 Gaussian 16, Revision C.01,
 Gaussian 16:  ES64L-G16RevC.01  3-Jul-2019

 -----------------------------------------
 # sp b3lyp/6-311g** Force nosymm scf=(qc)
 -----------------------------------------

 -------------------
 Title Card Required
 -------------------
 Symbolic Z-matrix:
 Charge =  0 Multiplicity = 2

                          Input orientation:
 ---------------------------------------------------------------------
 Center     Atomic      Atomic             Coordinates (Angstroms)
 Number     Number       Type             X           Y           Z
 ---------------------------------------------------------------------
      1          1           0        0.000000    0.000000    0.000000
      2          1           0       -3.450000    0.000000    0.000000
      3          9           0        0.550000    0.000000    0.000000
 ---------------------------------------------------------------------

 SCF Done:  E(UB3LYP) =  -100.519233367     a.u. after    6 cycles

 Alpha  occ. eigenvalues --  -24.62694  -1.38434  -0.62258  -0.43635  -0.43635
 Alpha  occ. eigenvalues --   -0.33323
 Alpha virt. eigenvalues --    0.07756   0.25125   0.60265   0.91193   0.91213
 Alpha virt. eigenvalues --    0.91213   1.23887   1.24188   1.24188   1.35920
 Alpha virt. eigenvalues --    1.54134   1.54134   1.96778   2.14950   3.65607

  Beta  occ. eigenvalues --  -24.62693  -1.38432  -0.62258  -0.43634  -0.43634
  Beta virt. eigenvalues --   -0.05320   0.08260   0.39368   0.60297   0.91190
  Beta virt. eigenvalues --    0.91212   0.91212   1.35010   1.50243   1.50243
  Beta virt. eigenvalues --    1.50691   1.54135   1.54135   1.96727   2.45089

 Mulliken charges and spin densities:
               1          2
     1  H    0.199968   0.000533
     2  H    0.000811   0.999041
     3  F   -0.200779   0.000426
 Sum of Mulliken charges =   0.00000   1.00000

 Dipole moment (field-independent basis, Debye):
    X=             -1.3702    Y=             -0.0000    Z=              0.0000  Tot=              1.3702
 Quadrupole moment (field-independent basis, Debye-Ang):
   XX=             -6.8012   YY=             -6.4956   ZZ=             -6.4956
   XY=             -0.0000   XZ=             -0.0000   YZ=             -0.0000

  Exact polarizability:       3.263      -0.000       2.429       0.000       0.000       2.429
 Approx polarizability:       3.446       0.000       2.407      -0.000       0.000       2.407

 ******    3 imaginary frequencies (negative Signs) ******

                      1                      2                      3
                      A                      A                      A
 Frequencies --  -7507.7990             -7507.7990               -32.3784
 Red. masses --      1.0447                 1.0447                 1.0532
 Frc consts  --     34.6954                34.6954                 0.0007
 IR Inten    --    258.4900               258.4900                 0.0272

                      4
                      A
 Frequencies --  15777.8568
 Red. masses --      1.0583
 Frc consts  --    155.2242
 IR Inten    --     89.1328

 - Thermochemistry -
 -------------------
 Temperature   298.150 Kelvin.  Pressure   1.00000 Atm.
 Atom     1 has atomic number  1 and mass   1.00783

 Molecular mass:    21.01405 amu.
 Principal axes and moments of inertia in atomic units:
                           1         2         3
     Eigenvalues --     0.00000  55.09944  55.09944
           X            1.00000  -0.00000   0.00000
           Y            0.00000   1.00000   0.00000
           Z            0.00000   0.00000   1.00000
 This molecule is a prolate symmetric top.
 Rotational symmetry number  1.
 Rotational temperature (Kelvin)      1.57196
 Rotational constant (GHZ):          32.754256
    3 imaginary frequencies ignored.
 Zero-point vibrational energy      94372.5 (Joules/Mol)
                                   22.55558 (Kcal/Mol)
 Vibrational temperatures:  22700.82
          (Kelvin)

 Zero-point correction=                           0.035945 (Hartree/Particle)
 Thermal correction to Energy=                    0.038305
 Thermal correction to Enthalpy=                  0.039249
 Thermal correction to Gibbs Free Energy=         0.016036
 Sum of electronic and zero-point Energies=           -100.483289
 Sum of electronic and thermal Energies=              -100.480928
 Sum of electronic and thermal Enthalpies=            -100.479984
 Sum of electronic and thermal Free Energies=         -100.503197

                     E (Thermal)             CV                S
                      KCal/Mol        Cal/Mol-Kelvin    Cal/Mol-Kelvin
 Total                   24.037              4.968             48.856
 Electronic               0.000              0.000              1.377
 Translational            0.889              2.981             35.068
 Rotational               0.592              1.987             12.411
 Vibrational             22.556              0.000              0.000

 Normal termination of Gaussian 16 at Fri Aug 22 15:40:16 2025.
