 Gaussian 16, Revision C.01,
 Gaussian 16:  ES64L-G16RevC.01  3-Jul-2019

 -----------------------------------------
 # sp b3lyp/6-311g** Force nosymm scf=(qc)
 -----------------------------------------

 -------------------
 Title Card Required
 -------------------
 Symbolic Z-matrix:
 Charge =  0 Multiplicity = 2

                          Input orientation:
 ---------------------------------------------------------------------
 Center     Atomic      Atomic             Coordinates (Angstroms)
 Number     Number       Type             X           Y           Z
 ---------------------------------------------------------------------
      1          1           0        0.000000    0.000000    0.000000
      2          1           0       -1.750000    0.000000    0.000000
      3          9           0        3.500000    0.000000    0.000000
 ---------------------------------------------------------------------

 SCF Done:  E(UB3LYP) =  -100.790310111     a.u. after   54 cycles

 Alpha  occ. eigenvalues --  -24.76022  -1.21932  -0.55125  -0.46325  -0.46309
 Alpha  occ. eigenvalues --   -0.33175
 Alpha virt. eigenvalues --   -0.10831   0.25738   0.30973   0.86666   0.91052
 Alpha virt. eigenvalues --    0.91711   1.01467   1.08528   1.24153   1.24154
 Alpha virt. eigenvalues --    1.37747   1.37750   1.64379   2.15744   2.40637

  Beta  occ. eigenvalues --  -24.72882  -1.12903  -0.43183  -0.43160  -0.33152
  Beta virt. eigenvalues --   -0.25895  -0.10796   0.25704   0.31179   0.92549
  Beta virt. eigenvalues --    0.93027   0.96150   1.05535   1.08545   1.24163
  Beta virt. eigenvalues --    1.24165   1.37803   1.37804   1.64474   2.16148

 Mulliken charges and spin densities:
               1          2
     1  H    0.000068  -0.669353
     2  H    0.002256   0.673677
     3  F   -0.002324   0.995676
 Sum of Mulliken charges =   0.00000   1.00000

 Dipole moment (field-independent basis, Debye):
    X=             -0.0690    Y=              0.0007    Z=             -0.0009  Tot=              0.0690
 Quadrupole moment (field-independent basis, Debye-Ang):
   XX=             -6.4417   YY=             -7.5893   ZZ=             -7.4683
   XY=              0.2614   XZ=             -0.3406   YZ=             -0.2260

  Exact polarizability:      28.017       0.301       2.107      -0.011      -0.122       2.172
 Approx polarizability:      42.267       0.149       2.086      -0.194      -0.152       2.167

 ******    2 imaginary frequencies (negative Signs) ******

                      1                      2                      3
                      A                      A                      A
 Frequencies --  -1815.6939               -82.2433               835.6202
 Red. masses --      1.0078                 1.1085                 1.0117
 Frc consts  --      1.9576                 0.0044                 0.4162
 IR Inten    --      0.0103                 0.2259                 0.1103

                      4
                      A
 Frequencies --    835.7295
 Red. masses --      1.0117
 Frc consts  --      0.4163
 IR Inten    --      0.3047

 - Thermochemistry -
 -------------------
 Temperature   298.150 Kelvin.  Pressure   1.00000 Atm.
 Atom     1 has atomic number  1 and mass   1.00783

 Molecular mass:    21.01405 amu.
 Principal axes and moments of inertia in atomic units:
                           1         2         3
     Eigenvalues --     0.00000 130.07031 130.07031
           X            1.00000  -0.00000   0.00000
           Y            0.00000   1.00000   0.00000
           Z            0.00000   0.00000   1.00000
 This molecule is a prolate symmetric top.
 Rotational symmetry number  1.
 Rotational temperature (Kelvin)      0.66590
 Rotational constant (GHZ):          13.875120
    2 imaginary frequencies ignored.
 Zero-point vibrational energy       9996.9 (Joules/Mol)
                                    2.38931 (Kcal/Mol)
 Vibrational temperatures:   1202.27  1202.43
          (Kelvin)

 Zero-point correction=                           0.003808 (Hartree/Particle)
 Thermal correction to Energy=                    0.006306
 Thermal correction to Enthalpy=                  0.007250
 Thermal correction to Gibbs Free Energy=        -0.016946
 Sum of electronic and zero-point Energies=           -100.786502
 Sum of electronic and thermal Energies=              -100.784005
 Sum of electronic and thermal Enthalpies=            -100.783060
 Sum of electronic and thermal Free Energies=         -100.807256

                     E (Thermal)             CV                S
                      KCal/Mol        Cal/Mol-Kelvin    Cal/Mol-Kelvin
 Total                    3.957              6.155             50.923
 Electronic               0.000              0.000              1.377
 Translational            0.889              2.981             35.068
 Rotational               0.592              1.987             14.118
 Vibrational              2.476              1.187              0.360

 Normal termination of Gaussian 16 at Fri Aug 22 22:08:24 2025.
