 Gaussian 16, Revision C.01,
 Gaussian 16:  ES64L-G16RevC.01  3-Jul-2019

 -----------------------------------------
 # sp b3lyp/6-311g** Force nosymm scf=(qc)
 -----------------------------------------

 -------------------
 Title Card Required
 -------------------
 Symbolic Z-matrix:
 Charge =  0 Multiplicity = 2

                          Input orientation:
 ---------------------------------------------------------------------
 Center     Atomic      Atomic             Coordinates (Angstroms)
 Number     Number       Type             X           Y           Z
 ---------------------------------------------------------------------
      1          1           0        0.000000    0.000000    0.000000
      2          1           0       -1.900000    0.000000    0.000000
      3          9           0        1.650000    0.000000    0.000000
 ---------------------------------------------------------------------

 SCF Done:  E(UB3LYP) =  -100.837298533     a.u. after   13 cycles

 Alpha  occ. eigenvalues --  -24.65055  -1.11274  -0.44710  -0.37676  -0.37059
 Alpha  occ. eigenvalues --   -0.37059
 Alpha virt. eigenvalues --   -0.12328   0.22937   0.28650   0.94257   0.94702
 Alpha virt. eigenvalues --    0.94702   1.04647   1.19734   1.19734   1.32960
 Alpha virt. eigenvalues --    1.34215   1.34215   1.73293   2.11501   2.29904

  Beta  occ. eigenvalues --  -24.63541  -1.07167  -0.39890  -0.35597  -0.35597
  Beta virt. eigenvalues --   -0.20091  -0.09261   0.25515   0.31074   0.94567
  Beta virt. eigenvalues --    0.94567   0.97077   1.07662   1.26825   1.26825
  Beta virt. eigenvalues --    1.35994   1.35994   1.43283   1.72968   2.13956

 Mulliken charges and spin densities:
               1          2
     1  H    0.244031  -0.363625
     2  H    0.055840   0.888933
     3  F   -0.299871   0.474692
 Sum of Mulliken charges =   0.00000   1.00000

 Dipole moment (field-independent basis, Debye):
    X=             -2.9296    Y=              0.0000    Z=              0.0000  Tot=              2.9296
 Quadrupole moment (field-independent basis, Debye-Ang):
   XX=             -8.7523   YY=             -7.3913   ZZ=             -7.3913
   XY=              0.0000   XZ=              0.0000   YZ=              0.0000

  Exact polarizability:      38.989       0.000       2.172       0.000       0.000       2.172
 Approx polarizability:      52.008       0.000       2.089       0.000      -0.000       2.089

 ******    2 imaginary frequencies (negative Signs) ******

                      1                      2                      3
                      A                      A                      A
 Frequencies --  -2098.5156              -565.1143               869.2822
 Red. masses --      1.0320                 1.0807                 1.0197
 Frc consts  --      2.6775                 0.2033                 0.4540
 IR Inten    --     98.5255                 5.6040                38.2622

                      4
                      A
 Frequencies --    869.2822
 Red. masses --      1.0197
 Frc consts  --      0.4540
 IR Inten    --     38.2622

 - Thermochemistry -
 -------------------
 Temperature   298.150 Kelvin.  Pressure   1.00000 Atm.
 Atom     1 has atomic number  1 and mass   1.00783

 Molecular mass:    21.01405 amu.
 Principal axes and moments of inertia in atomic units:
                           1         2         3
     Eigenvalues --     0.00000  50.48751  50.48751
           X            1.00000  -0.00000   0.00000
           Y            0.00000   1.00000   0.00000
           Z            0.00000   0.00000   1.00000
 This molecule is a prolate symmetric top.
 Rotational symmetry number  1.
 Rotational temperature (Kelvin)      1.71555
 Rotational constant (GHZ):          35.746287
    2 imaginary frequencies ignored.
 Zero-point vibrational energy      10398.9 (Joules/Mol)
                                    2.48540 (Kcal/Mol)
 Vibrational temperatures:   1250.70  1250.70
          (Kelvin)

 Zero-point correction=                           0.003961 (Hartree/Particle)
 Thermal correction to Energy=                    0.006442
 Thermal correction to Enthalpy=                  0.007387
 Thermal correction to Gibbs Free Energy=        -0.015894
 Sum of electronic and zero-point Energies=           -100.833338
 Sum of electronic and thermal Energies=              -100.830856
 Sum of electronic and thermal Enthalpies=            -100.829912
 Sum of electronic and thermal Free Energies=         -100.853192

                     E (Thermal)             CV                S
                      KCal/Mol        Cal/Mol-Kelvin    Cal/Mol-Kelvin
 Total                    4.043              6.055             48.998
 Electronic               0.000              0.000              1.377
 Translational            0.889              2.981             35.068
 Rotational               0.592              1.987             12.237
 Vibrational              2.561              1.087              0.315

 Normal termination of Gaussian 16 at Fri Aug 22 16:34:12 2025.
