 Gaussian 16, Revision C.01,
 Gaussian 16:  ES64L-G16RevC.01  3-Jul-2019

 -----------------------------------------
 # sp b3lyp/6-311g** Force nosymm scf=(qc)
 -----------------------------------------

 -------------------
 Title Card Required
 -------------------
 Symbolic Z-matrix:
 Charge =  0 Multiplicity = 2

                          Input orientation:
 ---------------------------------------------------------------------
 Center     Atomic      Atomic             Coordinates (Angstroms)
 Number     Number       Type             X           Y           Z
 ---------------------------------------------------------------------
      1          1           0        0.000000    0.000000    0.000000
      2          1           0       -3.250000    0.000000    0.000000
      3          9           0        1.200000    0.000000    0.000000
 ---------------------------------------------------------------------

 SCF Done:  E(UB3LYP) =  -100.925638909     a.u. after    6 cycles

 Alpha  occ. eigenvalues --  -24.64328  -1.12252  -0.47732  -0.37509  -0.37509
 Alpha  occ. eigenvalues --   -0.34098
 Alpha virt. eigenvalues --   -0.05655   0.22689   0.29337   0.93195   0.93195
 Alpha virt. eigenvalues --    1.00815   1.23359   1.23423   1.23423   1.26758
 Alpha virt. eigenvalues --    1.34646   1.34646   1.73030   2.14024   2.28627

  Beta  occ. eigenvalues --  -24.64321  -1.12234  -0.47709  -0.37502  -0.37502
  Beta virt. eigenvalues --   -0.08432  -0.03983   0.27157   0.38282   0.93194
  Beta virt. eigenvalues --    0.93194   1.00835   1.26578   1.34630   1.34630
  Beta virt. eigenvalues --    1.46722   1.46722   1.46730   1.73098   2.28527

 Mulliken charges and spin densities:
               1          2
     1  H    0.352191   0.000118
     2  H    0.002196   0.997492
     3  F   -0.354387   0.002391
 Sum of Mulliken charges =   0.00000   1.00000

 Dipole moment (field-independent basis, Debye):
    X=             -2.3115    Y=              0.0000    Z=             -0.0000  Tot=              2.3115
 Quadrupole moment (field-independent basis, Debye-Ang):
   XX=             -8.8108   YY=             -7.1279   ZZ=             -7.1279
   XY=              0.0000   XZ=             -0.0000   YZ=             -0.0000

  Exact polarizability:      10.059      -0.000       2.327       0.000      -0.000       2.327
 Approx polarizability:      13.952      -0.000       2.282      -0.000       0.000       2.282

 ******    1 imaginary frequencies (negative Signs) ******

                      1                      2                      3
                      A                      A                      A
 Frequencies --    -78.2737               998.8306              1200.1420
 Red. masses --      1.0522                 1.0594                 1.0330
 Frc consts  --      0.0038                 0.6227                 0.8766
 IR Inten    --      0.3211                73.7510               144.0481

                      4
                      A
 Frequencies --   1200.1420
 Red. masses --      1.0330
 Frc consts  --      0.8766
 IR Inten    --    144.0481

 - Thermochemistry -
 -------------------
 Temperature   298.150 Kelvin.  Pressure   1.00000 Atm.
 Atom     1 has atomic number  1 and mass   1.00783

 Molecular mass:    21.01405 amu.
 Principal axes and moments of inertia in atomic units:
                           1         2         3
     Eigenvalues --     0.00000  70.94189  70.94189
           X            1.00000  -0.00000   0.00000
           Y            0.00000   1.00000   0.00000
           Z            0.00000   0.00000   1.00000
 This molecule is a prolate symmetric top.
 Rotational symmetry number  1.
 Rotational temperature (Kelvin)      1.22091
 Rotational constant (GHZ):          25.439710
    1 imaginary frequencies ignored.
 Zero-point vibrational energy      20331.2 (Joules/Mol)
                                    4.85928 (Kcal/Mol)
 Vibrational temperatures:   1437.09  1726.74  1726.74
          (Kelvin)

 Zero-point correction=                           0.007744 (Hartree/Particle)
 Thermal correction to Energy=                    0.010175
 Thermal correction to Enthalpy=                  0.011119
 Thermal correction to Gibbs Free Energy=        -0.012417
 Sum of electronic and zero-point Energies=           -100.917895
 Sum of electronic and thermal Energies=              -100.915464
 Sum of electronic and thermal Enthalpies=            -100.914520
 Sum of electronic and thermal Free Energies=         -100.938056

                     E (Thermal)             CV                S
                      KCal/Mol        Cal/Mol-Kelvin    Cal/Mol-Kelvin
 Total                    6.385              5.756             49.535
 Electronic               0.000              0.000              1.377
 Translational            0.889              2.981             35.068
 Rotational               0.592              1.987             12.913
 Vibrational              4.904              0.788              0.177

 Normal termination of Gaussian 16 at Fri Aug 22 16:10:59 2025.
