 Gaussian 16, Revision C.01,
 Gaussian 16:  ES64L-G16RevC.01  3-Jul-2019

 -----------------------------------------
 # sp b3lyp/6-311g** Force nosymm scf=(qc)
 -----------------------------------------

 -------------------
 Title Card Required
 -------------------
 Symbolic Z-matrix:
 Charge =  0 Multiplicity = 2

                          Input orientation:
 ---------------------------------------------------------------------
 Center     Atomic      Atomic             Coordinates (Angstroms)
 Number     Number       Type             X           Y           Z
 ---------------------------------------------------------------------
      1          1           0        0.000000    0.000000    0.000000
      2          1           0       -0.650000    0.000000    0.000000
      3          9           0        0.750000    0.000000    0.000000
 ---------------------------------------------------------------------

 SCF Done:  E(UB3LYP) =  -100.786551655     a.u. after    6 cycles

 Alpha  occ. eigenvalues --  -24.67698  -1.32850  -0.69501  -0.45296  -0.45296
 Alpha  occ. eigenvalues --   -0.30135
 Alpha virt. eigenvalues --    0.16789   0.17584   0.77583   0.85753   0.85753
 Alpha virt. eigenvalues --    0.92561   1.10461   1.10461   1.42737   1.68071
 Alpha virt. eigenvalues --    1.87518   1.87518   2.00869   2.89099   3.75646

  Beta  occ. eigenvalues --  -24.66630  -1.29790  -0.64446  -0.44371  -0.44371
  Beta virt. eigenvalues --   -0.11905   0.17652   0.21717   0.81937   0.87705
  Beta virt. eigenvalues --    0.87705   0.95260   1.15401   1.15401   1.44985
  Beta virt. eigenvalues --    1.74195   1.92828   1.92828   2.06166   2.95919

 Mulliken charges and spin densities:
               1          2
     1  H    0.271917  -0.048225
     2  H   -0.103421   0.854802
     3  F   -0.168497   0.193423
 Sum of Mulliken charges =   0.00000   1.00000

 Dipole moment (field-independent basis, Debye):
    X=             -0.8290    Y=             -0.0000    Z=              0.0000  Tot=              0.8290
 Quadrupole moment (field-independent basis, Debye-Ang):
   XX=             -7.5050   YY=             -6.4378   ZZ=             -6.4378
   XY=             -0.0000   XZ=              0.0000   YZ=             -0.0000

  Exact polarizability:       9.294       0.000       2.499      -0.000       0.000       2.499
 Approx polarizability:       9.623       0.000       2.589      -0.000       0.000       2.589

 ******    2 imaginary frequencies (negative Signs) ******

                      1                      2                      3
                      A                      A                      A
 Frequencies --  -4097.4915             -4097.4915              4112.8374
 Red. masses --      1.0163                 1.0163                 1.0820
 Frc consts  --     10.0533                10.0533                10.7833
 IR Inten    --     94.5909                94.5909               244.0370

                      4
                      A
 Frequencies --   8271.7751
 Red. masses --      1.0308
 Frc consts  --     41.5552
 IR Inten    --     21.9883

 - Thermochemistry -
 -------------------
 Temperature   298.150 Kelvin.  Pressure   1.00000 Atm.
 Atom     1 has atomic number  1 and mass   1.00783

 Molecular mass:    21.01405 amu.
 Principal axes and moments of inertia in atomic units:
                           1         2         3
     Eigenvalues --     0.00000   8.28062   8.28062
           X            1.00000  -0.00000   0.00000
           Y            0.00000   1.00000   0.00000
           Z            0.00000   0.00000   1.00000
 This molecule is a prolate symmetric top.
 Rotational symmetry number  1.
 Rotational temperature (Kelvin)     10.45983
 Rotational constant (GHZ):         217.947500
    2 imaginary frequencies ignored.
 Zero-point vibrational energy      74076.4 (Joules/Mol)
                                   17.70469 (Kcal/Mol)
 Vibrational temperatures:   5917.46 11901.24
          (Kelvin)

 Zero-point correction=                           0.028214 (Hartree/Particle)
 Thermal correction to Energy=                    0.030575
 Thermal correction to Enthalpy=                  0.031519
 Thermal correction to Gibbs Free Energy=         0.010095
 Sum of electronic and zero-point Energies=           -100.758337
 Sum of electronic and thermal Energies=              -100.755977
 Sum of electronic and thermal Enthalpies=            -100.755033
 Sum of electronic and thermal Free Energies=         -100.776456

                     E (Thermal)             CV                S
                      KCal/Mol        Cal/Mol-Kelvin    Cal/Mol-Kelvin
 Total                   19.186              4.968             45.090
 Electronic               0.000              0.000              1.377
 Translational            0.889              2.981             35.068
 Rotational               0.592              1.987              8.644
 Vibrational             17.705              0.000              0.000

 Normal termination of Gaussian 16 at Fri Aug 22 15:47:49 2025.
