 Gaussian 16, Revision C.01,
 Gaussian 16:  ES64L-G16RevC.01  3-Jul-2019

 -----------------------------------------
 # sp b3lyp/6-311g** Force nosymm scf=(qc)
 -----------------------------------------

 -------------------
 Title Card Required
 -------------------
 Symbolic Z-matrix:
 Charge =  0 Multiplicity = 2

                          Input orientation:
 ---------------------------------------------------------------------
 Center     Atomic      Atomic             Coordinates (Angstroms)
 Number     Number       Type             X           Y           Z
 ---------------------------------------------------------------------
      1          1           0        0.000000    0.000000    0.000000
      2          1           0       -1.000000    0.000000    0.000000
      3          9           0        2.600000    0.000000    0.000000
 ---------------------------------------------------------------------

 SCF Done:  E(UB3LYP) =  -100.907194477     a.u. after    7 cycles

 Alpha  occ. eigenvalues --  -24.75832  -1.21759  -0.55017  -0.46154  -0.46154
 Alpha  occ. eigenvalues --   -0.39652
 Alpha virt. eigenvalues --    0.00185   0.21321   0.39184   0.89798   0.91110
 Alpha virt. eigenvalues --    0.91110   1.08419   1.08419   1.09180   1.37014
 Alpha virt. eigenvalues --    1.65077   1.65077   2.22522   2.36348   2.58504

  Beta  occ. eigenvalues --  -24.72722  -1.12826  -0.43038  -0.43038  -0.39559
  Beta virt. eigenvalues --   -0.26109   0.00588   0.21572   0.39607   0.92584
  Beta virt. eigenvalues --    0.92584   0.98232   1.08589   1.08589   1.13511
  Beta virt. eigenvalues --    1.37278   1.65206   1.65206   2.22785   2.36510

 Mulliken charges and spin densities:
               1          2
     1  H   -0.010235  -0.014003
     2  H    0.018133   0.029996
     3  F   -0.007897   0.984007
 Sum of Mulliken charges =   0.00000   1.00000

 Dipole moment (field-independent basis, Debye):
    X=             -0.1961    Y=             -0.0000    Z=             -0.0000  Tot=              0.1961
 Quadrupole moment (field-independent basis, Debye-Ang):
   XX=             -5.7274   YY=             -7.2630   ZZ=             -7.2630
   XY=             -0.0000   XZ=             -0.0000   YZ=              0.0000

  Exact polarizability:      20.950      -0.000       2.071       0.000      -0.000       2.071
 Approx polarizability:      24.247      -0.000       2.124       0.000      -0.000       2.124

 ******    1 imaginary frequencies (negative Signs) ******

                      1                      2                      3
                      A                      A                      A
 Frequencies --   -167.9073              1522.2334              1522.2334
 Red. masses --      1.1084                 1.0104                 1.0104
 Frc consts  --      0.0184                 1.3794                 1.3794
 IR Inten    --      7.6781                 0.2143                 0.2143

                      4
                      A
 Frequencies --   1742.9668
 Red. masses --      1.0079
 Frc consts  --      1.8040
 IR Inten    --     70.0992

 - Thermochemistry -
 -------------------
 Temperature   298.150 Kelvin.  Pressure   1.00000 Atm.
 Atom     1 has atomic number  1 and mass   1.00783

 Molecular mass:    21.01405 amu.
 Principal axes and moments of inertia in atomic units:
                           1         2         3
     Eigenvalues --     0.00000  64.33744  64.33744
           X            1.00000  -0.00000   0.00000
           Y            0.00000   1.00000   0.00000
           Z            0.00000   0.00000   1.00000
 This molecule is a prolate symmetric top.
 Rotational symmetry number  1.
 Rotational temperature (Kelvin)      1.34624
 Rotational constant (GHZ):          28.051182
    1 imaginary frequencies ignored.
 Zero-point vibrational energy      28635.2 (Joules/Mol)
                                    6.84398 (Kcal/Mol)
 Vibrational temperatures:   2190.15  2190.15  2507.74
          (Kelvin)

 Zero-point correction=                           0.010907 (Hartree/Particle)
 Thermal correction to Energy=                    0.013278
 Thermal correction to Enthalpy=                  0.014222
 Thermal correction to Gibbs Free Energy=        -0.009150
 Sum of electronic and zero-point Energies=           -100.896288
 Sum of electronic and thermal Energies=              -100.893917
 Sum of electronic and thermal Enthalpies=            -100.892973
 Sum of electronic and thermal Free Energies=         -100.916344

                     E (Thermal)             CV                S
                      KCal/Mol        Cal/Mol-Kelvin    Cal/Mol-Kelvin
 Total                    8.332              5.138             49.190
 Electronic               0.000              0.000              1.377
 Translational            0.889              2.981             35.068
 Rotational               0.592              1.987             12.719
 Vibrational              6.851              0.170              0.026

 Normal termination of Gaussian 16 at Fri Aug 22 18:00:10 2025.
