 Gaussian 16, Revision C.01,
 Gaussian 16:  ES64L-G16RevC.01  3-Jul-2019

 -----------------------------------------
 # sp b3lyp/6-311g** Force nosymm scf=(qc)
 -----------------------------------------

 -------------------
 Title Card Required
 -------------------
 Symbolic Z-matrix:
 Charge =  0 Multiplicity = 2

                          Input orientation:
 ---------------------------------------------------------------------
 Center     Atomic      Atomic             Coordinates (Angstroms)
 Number     Number       Type             X           Y           Z
 ---------------------------------------------------------------------
      1          1           0        0.000000    0.000000    0.000000
      2          1           0       -0.900000    0.000000    0.000000
      3          9           0        2.850000    0.000000    0.000000
 ---------------------------------------------------------------------

 SCF Done:  E(UB3LYP) =  -100.921735865     a.u. after    5 cycles

 Alpha  occ. eigenvalues --  -24.76146  -1.22043  -0.55286  -0.46412  -0.46412
 Alpha  occ. eigenvalues --   -0.40892
 Alpha virt. eigenvalues --    0.02420   0.20586   0.41661   0.89914   0.90962
 Alpha virt. eigenvalues --    0.90962   1.06657   1.07890   1.07890   1.44893
 Alpha virt. eigenvalues --    1.71770   1.71770   2.18871   2.37886   2.73620

  Beta  occ. eigenvalues --  -24.73010  -1.13023  -0.43268  -0.43268  -0.40861
  Beta virt. eigenvalues --   -0.26182   0.02667   0.20756   0.42060   0.92450
  Beta virt. eigenvalues --    0.92450   0.98494   1.07952   1.07952   1.11043
  Beta virt. eigenvalues --    1.44962   1.71815   1.71815   2.18975   2.37968

 Mulliken charges and spin densities:
               1          2
     1  H   -0.011206  -0.005005
     2  H    0.011600   0.011538
     3  F   -0.000394   0.993467
 Sum of Mulliken charges =   0.00000   1.00000

 Dipole moment (field-independent basis, Debye):
    X=             -0.0662    Y=              0.0000    Z=             -0.0000  Tot=              0.0662
 Quadrupole moment (field-independent basis, Debye-Ang):
   XX=             -5.5375   YY=             -7.1476   ZZ=             -7.1476
   XY=              0.0000   XZ=             -0.0000   YZ=             -0.0000

  Exact polarizability:      13.890       0.000       2.034       0.000      -0.000       2.034
 Approx polarizability:      16.062      -0.000       2.098      -0.000      -0.000       2.098

 ******    1 imaginary frequencies (negative Signs) ******

                      1                      2                      3
                      A                      A                      A
 Frequencies --    -90.5191              1441.1317              1441.1317
 Red. masses --      1.1085                 1.0097                 1.0097
 Frc consts  --      0.0054                 1.2355                 1.2355
 IR Inten    --      0.9502                 0.1350                 0.1350

                      4
                      A
 Frequencies --   2630.0373
 Red. masses --      1.0078
 Frc consts  --      4.1073
 IR Inten    --     11.4471

 - Thermochemistry -
 -------------------
 Temperature   298.150 Kelvin.  Pressure   1.00000 Atm.
 Atom     1 has atomic number  1 and mass   1.00783

 Molecular mass:    21.01405 amu.
 Principal axes and moments of inertia in atomic units:
                           1         2         3
     Eigenvalues --     0.00000  72.32525  72.32525
           X            1.00000  -0.00000   0.00000
           Y            0.00000   1.00000   0.00000
           Z            0.00000   0.00000   1.00000
 This molecule is a prolate symmetric top.
 Rotational symmetry number  1.
 Rotational temperature (Kelvin)      1.19756
 Rotational constant (GHZ):          24.953129
    1 imaginary frequencies ignored.
 Zero-point vibrational energy      32970.9 (Joules/Mol)
                                    7.88023 (Kcal/Mol)
 Vibrational temperatures:   2073.47  2073.47  3784.04
          (Kelvin)

 Zero-point correction=                           0.012558 (Hartree/Particle)
 Thermal correction to Energy=                    0.014931
 Thermal correction to Enthalpy=                  0.015875
 Thermal correction to Gibbs Free Energy=        -0.007609
 Sum of electronic and zero-point Energies=           -100.909178
 Sum of electronic and thermal Energies=              -100.906805
 Sum of electronic and thermal Enthalpies=            -100.905861
 Sum of electronic and thermal Free Energies=         -100.929345

                     E (Thermal)             CV                S
                      KCal/Mol        Cal/Mol-Kelvin    Cal/Mol-Kelvin
 Total                    9.369              5.153             49.427
 Electronic               0.000              0.000              1.377
 Translational            0.889              2.981             35.068
 Rotational               0.592              1.987             12.951
 Vibrational              7.888              0.185              0.030

 Normal termination of Gaussian 16 at Fri Aug 22 18:47:39 2025.
