 Gaussian 16, Revision C.01,
 Gaussian 16:  ES64L-G16RevC.01  3-Jul-2019

 -----------------------------------------
 # sp b3lyp/6-311g** Force nosymm scf=(qc)
 -----------------------------------------

 -------------------
 Title Card Required
 -------------------
 Symbolic Z-matrix:
 Charge =  0 Multiplicity = 2

                          Input orientation:
 ---------------------------------------------------------------------
 Center     Atomic      Atomic             Coordinates (Angstroms)
 Number     Number       Type             X           Y           Z
 ---------------------------------------------------------------------
      1          1           0        0.000000    0.000000    0.000000
      2          1           0       -1.650000    0.000000    0.000000
      3          9           0        2.500000    0.000000    0.000000
 ---------------------------------------------------------------------

 SCF Done:  E(UB3LYP) =  -100.805678838     a.u. after   21 cycles

 Alpha  occ. eigenvalues --  -24.72657  -1.18814  -0.51809  -0.43482  -0.43482
 Alpha  occ. eigenvalues --   -0.35563
 Alpha virt. eigenvalues --   -0.11918   0.24118   0.30985   0.89051   0.93055
 Alpha virt. eigenvalues --    0.93055   1.03127   1.13864   1.20728   1.20728
 Alpha virt. eigenvalues --    1.36517   1.36517   1.68772   2.15717   2.41953

  Beta  occ. eigenvalues --  -24.69758  -1.10544  -0.40588  -0.40588  -0.35205
  Beta virt. eigenvalues --   -0.24347  -0.11245   0.25754   0.30628   0.94444
  Beta virt. eigenvalues --    0.94444   0.95323   1.05967   1.17476   1.21319
  Beta virt. eigenvalues --    1.21319   1.37118   1.37118   1.69436   2.16724

 Mulliken charges and spin densities:
               1          2
     1  H    0.031705  -0.522608
     2  H    0.038918   0.606164
     3  F   -0.070623   0.916444
 Sum of Mulliken charges =  -0.00000   1.00000

 Dipole moment (field-independent basis, Debye):
    X=             -1.2041    Y=             -0.0000    Z=             -0.0000  Tot=              1.2041
 Quadrupole moment (field-independent basis, Debye-Ang):
   XX=             -7.3622   YY=             -7.6848   ZZ=             -7.6848
   XY=             -0.0000   XZ=             -0.0000   YZ=             -0.0000

  Exact polarizability:      62.151      -0.000       2.029      -0.000      -0.000       2.029
 Approx polarizability:      80.511       0.000       1.985       0.000       0.000       1.985

 ******    2 imaginary frequencies (negative Signs) ******

                      1                      2                      3
                      A                      A                      A
 Frequencies --  -1991.3928              -353.3344               938.4882
 Red. masses --      1.0084                 1.1078                 1.0137
 Frc consts  --      2.3561                 0.0815                 0.5260
 IR Inten    --    315.1250                44.3898                 0.1657

                      4
                      A
 Frequencies --    938.4882
 Red. masses --      1.0137
 Frc consts  --      0.5260
 IR Inten    --      0.1657

 - Thermochemistry -
 -------------------
 Temperature   298.150 Kelvin.  Pressure   1.00000 Atm.
 Atom     1 has atomic number  1 and mass   1.00783

 Molecular mass:    21.01405 amu.
 Principal axes and moments of inertia in atomic units:
                           1         2         3
     Eigenvalues --     0.00000  76.84462  76.84462
           X            1.00000  -0.00000   0.00000
           Y            0.00000   1.00000   0.00000
           Z            0.00000   0.00000   1.00000
 This molecule is a prolate symmetric top.
 Rotational symmetry number  1.
 Rotational temperature (Kelvin)      1.12713
 Rotational constant (GHZ):          23.485590
    2 imaginary frequencies ignored.
 Zero-point vibrational energy      11226.8 (Joules/Mol)
                                    2.68327 (Kcal/Mol)
 Vibrational temperatures:   1350.28  1350.28
          (Kelvin)

 Zero-point correction=                           0.004276 (Hartree/Particle)
 Thermal correction to Energy=                    0.006730
 Thermal correction to Enthalpy=                  0.007674
 Thermal correction to Gibbs Free Energy=        -0.015967
 Sum of electronic and zero-point Energies=           -100.801403
 Sum of electronic and thermal Energies=              -100.798949
 Sum of electronic and thermal Enthalpies=            -100.798005
 Sum of electronic and thermal Free Energies=         -100.821646

                     E (Thermal)             CV                S
                      KCal/Mol        Cal/Mol-Kelvin    Cal/Mol-Kelvin
 Total                    4.223              5.867             49.757
 Electronic               0.000              0.000              1.377
 Translational            0.889              2.981             35.068
 Rotational               0.592              1.987             13.072
 Vibrational              2.742              0.899              0.240

 Normal termination of Gaussian 16 at Fri Aug 22 17:44:24 2025.
