 Gaussian 16, Revision C.01,
 Gaussian 16:  ES64L-G16RevC.01  3-Jul-2019

 -----------------------------------------
 # sp b3lyp/6-311g** Force nosymm scf=(qc)
 -----------------------------------------

 -------------------
 Title Card Required
 -------------------
 Symbolic Z-matrix:
 Charge =  0 Multiplicity = 2

                          Input orientation:
 ---------------------------------------------------------------------
 Center     Atomic      Atomic             Coordinates (Angstroms)
 Number     Number       Type             X           Y           Z
 ---------------------------------------------------------------------
      1          1           0        0.000000    0.000000    0.000000
      2          1           0       -2.550000    0.000000    0.000000
      3          9           0        3.850000    0.000000    0.000000
 ---------------------------------------------------------------------

 SCF Done:  E(UB3LYP) =  -100.762069652     a.u. after   36 cycles

 Alpha  occ. eigenvalues --  -24.75828  -1.21759  -0.54953  -0.46141  -0.46141
 Alpha  occ. eigenvalues --   -0.32524
 Alpha virt. eigenvalues --   -0.09067   0.25725   0.34899   0.86755   0.91200
 Alpha virt. eigenvalues --    0.91200   1.01181   1.25108   1.25108   1.26650
 Alpha virt. eigenvalues --    1.42061   1.42061   1.43349   2.15974   2.37141

  Beta  occ. eigenvalues --  -24.72687  -1.12728  -0.42992  -0.42992  -0.32691
  Beta virt. eigenvalues --   -0.25716  -0.08819   0.25554   0.35243   0.92697
  Beta virt. eigenvalues --    0.92697   0.96100   1.05297   1.24922   1.24922
  Beta virt. eigenvalues --    1.26438   1.42424   1.42424   1.43707   2.16122

 Mulliken charges and spin densities:
               1          2
     1  H    0.002604  -0.969621
     2  H    0.001013   0.973726
     3  F   -0.003617   0.995896
 Sum of Mulliken charges =   0.00000   1.00000

 Dipole moment (field-independent basis, Debye):
    X=             -0.0840    Y=              0.0000    Z=              0.0000  Tot=              0.0840
 Quadrupole moment (field-independent basis, Debye-Ang):
   XX=             -6.7848   YY=             -7.6628   ZZ=             -7.6628
   XY=             -0.0000   XZ=             -0.0000   YZ=              0.0000

  Exact polarizability:      21.657       0.000       2.021       0.000       0.000       2.021
 Approx polarizability:      16.237      -0.000       1.931      -0.000       0.000       1.931

 ******    2 imaginary frequencies (negative Signs) ******

                      1                      2                      3
                      A                      A                      A
 Frequencies --   -616.0293               -88.0373               226.8333
 Red. masses --      1.0079                 1.1085                 1.0137
 Frc consts  --      0.2253                 0.0051                 0.0307
 IR Inten    --      1.2002                 1.3494                 0.0046

                      4
                      A
 Frequencies --    226.8333
 Red. masses --      1.0137
 Frc consts  --      0.0307
 IR Inten    --      0.0046

 - Thermochemistry -
 -------------------
 Temperature   298.150 Kelvin.  Pressure   1.00000 Atm.
 Atom     1 has atomic number  1 and mass   1.00783

 Molecular mass:    21.01405 amu.
 Principal axes and moments of inertia in atomic units:
                           1         2         3
     Eigenvalues --     0.00000 182.62718 182.62718
           X            1.00000  -0.00000   0.00000
           Y            0.00000   1.00000   0.00000
           Z            0.00000   0.00000   1.00000
 This molecule is a prolate symmetric top.
 Rotational symmetry number  1.
 Rotational temperature (Kelvin)      0.47427
 Rotational constant (GHZ):           9.882106
    2 imaginary frequencies ignored.
 Zero-point vibrational energy       2713.5 (Joules/Mol)
                                    0.64855 (Kcal/Mol)
 Warning -- explicit consideration of   2 degrees of freedom as
           vibrations may cause significant error
 Vibrational temperatures:    326.36   326.36
          (Kelvin)

 Zero-point correction=                           0.001034 (Hartree/Particle)
 Thermal correction to Energy=                    0.004434
 Thermal correction to Enthalpy=                  0.005378
 Thermal correction to Gibbs Free Energy=        -0.020776
 Sum of electronic and zero-point Energies=           -100.761036
 Sum of electronic and thermal Energies=              -100.757636
 Sum of electronic and thermal Enthalpies=            -100.756692
 Sum of electronic and thermal Free Energies=         -100.782845

                     E (Thermal)             CV                S
                      KCal/Mol        Cal/Mol-Kelvin    Cal/Mol-Kelvin
 Total                    2.782              8.568             55.045
 Electronic               0.000              0.000              1.377
 Translational            0.889              2.981             35.068
 Rotational               0.592              1.987             14.792
 Vibrational              1.301              3.600              3.808
 Vibration     1          0.650              1.800              1.904
 Vibration     2          0.650              1.800              1.904

 Normal termination of Gaussian 16 at Sat Aug 23 01:09:09 2025.
