 Gaussian 16, Revision C.01,
 Gaussian 16:  ES64L-G16RevC.01  3-Jul-2019

 -----------------------------------------
 # sp b3lyp/6-311g** Force nosymm scf=(qc)
 -----------------------------------------

 -------------------
 Title Card Required
 -------------------
 Symbolic Z-matrix:
 Charge =  0 Multiplicity = 2

                          Input orientation:
 ---------------------------------------------------------------------
 Center     Atomic      Atomic             Coordinates (Angstroms)
 Number     Number       Type             X           Y           Z
 ---------------------------------------------------------------------
      1          1           0        0.000000    0.000000    0.000000
      2          1           0       -2.350000    0.000000    0.000000
      3          9           0        0.850000    0.000000    0.000000
 ---------------------------------------------------------------------

 SCF Done:  E(UB3LYP) =  -100.965815963     a.u. after    6 cycles

 Alpha  occ. eigenvalues --  -24.63736  -1.20801  -0.54985  -0.40028  -0.40028
 Alpha  occ. eigenvalues --   -0.35008
 Alpha virt. eigenvalues --    0.06067   0.25172   0.42368   0.94436   0.94436
 Alpha virt. eigenvalues --    0.97167   1.17111   1.22540   1.22540   1.38466
 Alpha virt. eigenvalues --    1.38466   1.43627   2.02290   2.14702   2.43011

  Beta  occ. eigenvalues --  -24.63715  -1.20748  -0.54892  -0.40011  -0.40011
  Beta virt. eigenvalues --   -0.09767   0.07742   0.36909   0.42394   0.94438
  Beta virt. eigenvalues --    0.94438   0.97391   1.27072   1.38406   1.38406
  Beta virt. eigenvalues --    1.43831   1.43831   1.55728   2.02783   2.41026

 Mulliken charges and spin densities:
               1          2
     1  H    0.277735   0.004642
     2  H    0.007156   0.989303
     3  F   -0.284891   0.006055
 Sum of Mulliken charges =   0.00000   1.00000

 Dipole moment (field-independent basis, Debye):
    X=             -1.8970    Y=              0.0000    Z=              0.0000  Tot=              1.8970
 Quadrupole moment (field-independent basis, Debye-Ang):
   XX=             -7.5096   YY=             -6.8071   ZZ=             -6.8071
   XY=              0.0000   XZ=              0.0000   YZ=              0.0000

  Exact polarizability:       7.245       0.000       2.472      -0.000      -0.000       2.472
 Approx polarizability:       7.656       0.000       2.457      -0.000      -0.000       2.457

 ******    2 imaginary frequencies (negative Signs) ******

                      1                      2                      3
                      A                      A                      A
 Frequencies --  -1311.4031             -1311.4031               107.8616
 Red. masses --      1.0333                 1.0333                 1.0532
 Frc consts  --      1.0470                 1.0470                 0.0072
 IR Inten    --    169.6591               169.6591                 0.6317

                      4
                      A
 Frequencies --   5304.4460
 Red. masses --      1.0584
 Frc consts  --     17.5459
 IR Inten    --    137.3778

 - Thermochemistry -
 -------------------
 Temperature   298.150 Kelvin.  Pressure   1.00000 Atm.
 Atom     1 has atomic number  1 and mass   1.00783

 Molecular mass:    21.01405 amu.
 Principal axes and moments of inertia in atomic units:
                           1         2         3
     Eigenvalues --     0.00000  36.62295  36.62295
           X            1.00000  -0.00000   0.00000
           Y            0.00000   1.00000   0.00000
           Z            0.00000   0.00000   1.00000
 This molecule is a prolate symmetric top.
 Rotational symmetry number  1.
 Rotational temperature (Kelvin)      2.36502
 Rotational constant (GHZ):          49.278974
    2 imaginary frequencies ignored.
 Zero-point vibrational energy      32372.8 (Joules/Mol)
                                    7.73728 (Kcal/Mol)
 Warning -- explicit consideration of   1 degrees of freedom as
           vibrations may cause significant error
 Vibrational temperatures:    155.19  7631.91
          (Kelvin)

 Zero-point correction=                           0.012330 (Hartree/Particle)
 Thermal correction to Energy=                    0.015410
 Thermal correction to Enthalpy=                  0.016354
 Thermal correction to Gibbs Free Energy=        -0.008044
 Sum of electronic and zero-point Energies=           -100.953486
 Sum of electronic and thermal Energies=              -100.950406
 Sum of electronic and thermal Enthalpies=            -100.949461
 Sum of electronic and thermal Free Energies=         -100.973860

                     E (Thermal)             CV                S
                      KCal/Mol        Cal/Mol-Kelvin    Cal/Mol-Kelvin
 Total                    9.670              6.911             51.351
 Electronic               0.000              0.000              1.377
 Translational            0.889              2.981             35.068
 Rotational               0.592              1.987             11.599
 Vibrational              8.189              1.943              3.307
 Vibration     1          0.606              1.943              3.307

 Normal termination of Gaussian 16 at Fri Aug 22 15:53:41 2025.
