 Gaussian 16, Revision C.01,
 Gaussian 16:  ES64L-G16RevC.01  3-Jul-2019

 -----------------------------------------
 # sp b3lyp/6-311g** Force nosymm scf=(qc)
 -----------------------------------------

 -------------------
 Title Card Required
 -------------------
 Symbolic Z-matrix:
 Charge =  0 Multiplicity = 2

                          Input orientation:
 ---------------------------------------------------------------------
 Center     Atomic      Atomic             Coordinates (Angstroms)
 Number     Number       Type             X           Y           Z
 ---------------------------------------------------------------------
      1          1           0        0.000000    0.000000    0.000000
      2          1           0       -0.950000    0.000000    0.000000
      3          9           0        3.900000    0.000000    0.000000
 ---------------------------------------------------------------------

 SCF Done:  E(UB3LYP) =  -100.914707505     a.u. after   72 cycles

 Alpha  occ. eigenvalues --  -24.76206  -1.22102  -0.55305  -0.46481  -0.46461
 Alpha  occ. eigenvalues --   -0.39627
 Alpha virt. eigenvalues --    0.01483   0.21092   0.40132   0.86066   0.90943
 Alpha virt. eigenvalues --    0.91575   1.01010   1.08697   1.08699   1.41525
 Alpha virt. eigenvalues --    1.69015   1.69017   2.20607   2.36724   2.64687

  Beta  occ. eigenvalues --  -24.73051  -1.13028  -0.43318  -0.43298  -0.39625
  Beta virt. eigenvalues --   -0.25954   0.01486   0.21095   0.40149   0.92444
  Beta virt. eigenvalues --    0.93067   0.95532   1.05153   1.08697   1.08699
  Beta virt. eigenvalues --    1.41527   1.69015   1.69017   2.20611   2.36724

 Mulliken charges and spin densities:
               1          2
     1  H    0.000638  -0.000117
     2  H   -0.001897  -0.000020
     3  F    0.001259   1.000137
 Sum of Mulliken charges =   0.00000   1.00000

 Dipole moment (field-independent basis, Debye):
    X=              0.0225    Y=              0.0000    Z=              0.0000  Tot=              0.0225
 Quadrupole moment (field-independent basis, Debye-Ang):
   XX=             -6.3314   YY=             -6.7803   ZZ=             -6.7786
   XY=              0.0000   XZ=              0.0000   YZ=              0.4323

  Exact polarizability:      11.086       0.000       2.276       0.000       0.233       2.277
 Approx polarizability:      14.233       0.000       2.390       0.000       0.291       2.392

 ******    1 imaginary frequencies (negative Signs) ******

                      1                      2                      3
                      A                      A                      A
 Frequencies --    -55.1130              1517.7295              1517.7852
 Red. masses --      1.1085                 1.0090                 1.0090
 Frc consts  --      0.0020                 1.3694                 1.3695
 IR Inten    --      0.0474                 0.0005                 0.0004

                      4
                      A
 Frequencies --   2200.2151
 Red. masses --      1.0078
 Frc consts  --      2.8745
 IR Inten    --      0.0446

 - Thermochemistry -
 -------------------
 Temperature   298.150 Kelvin.  Pressure   1.00000 Atm.
 Atom     1 has atomic number  1 and mass   1.00783

 Molecular mass:    21.01405 amu.
 Principal axes and moments of inertia in atomic units:
                           1         2         3
     Eigenvalues --     0.00000 126.18338 126.18338
           X            1.00000  -0.00000   0.00000
           Y            0.00000   1.00000   0.00000
           Z            0.00000   0.00000   1.00000
 This molecule is a prolate symmetric top.
 Rotational symmetry number  1.
 Rotational temperature (Kelvin)      0.68641
 Rotational constant (GHZ):          14.302527
    1 imaginary frequencies ignored.
 Zero-point vibrational energy      31316.6 (Joules/Mol)
                                    7.48485 (Kcal/Mol)
 Vibrational temperatures:   2183.67  2183.75  3165.62
          (Kelvin)

 Zero-point correction=                           0.011928 (Hartree/Particle)
 Thermal correction to Energy=                    0.014298
 Thermal correction to Enthalpy=                  0.015242
 Thermal correction to Gibbs Free Energy=        -0.008764
 Sum of electronic and zero-point Energies=           -100.902780
 Sum of electronic and thermal Energies=              -100.900410
 Sum of electronic and thermal Enthalpies=            -100.899466
 Sum of electronic and thermal Free Energies=         -100.923472

                     E (Thermal)             CV                S
                      KCal/Mol        Cal/Mol-Kelvin    Cal/Mol-Kelvin
 Total                    8.972              5.114             50.525
 Electronic               0.000              0.000              1.377
 Translational            0.889              2.981             35.068
 Rotational               0.592              1.987             14.057
 Vibrational              7.491              0.146              0.022

 Normal termination of Gaussian 16 at Sat Aug 23 01:15:15 2025.
