 Gaussian 16, Revision C.01,
 Gaussian 16:  ES64L-G16RevC.01  3-Jul-2019

 -----------------------------------------
 # sp b3lyp/6-311g** Force nosymm scf=(qc)
 -----------------------------------------

 -------------------
 Title Card Required
 -------------------
 Symbolic Z-matrix:
 Charge =  0 Multiplicity = 2

                          Input orientation:
 ---------------------------------------------------------------------
 Center     Atomic      Atomic             Coordinates (Angstroms)
 Number     Number       Type             X           Y           Z
 ---------------------------------------------------------------------
      1          1           0        0.000000    0.000000    0.000000
      2          1           0       -2.850000    0.000000    0.000000
      3          9           0        2.750000    0.000000    0.000000
 ---------------------------------------------------------------------

 SCF Done:  E(UB3LYP) =  -100.764739976     a.u. after   21 cycles

 Alpha  occ. eigenvalues --  -24.73077  -1.19206  -0.52190  -0.43828  -0.43828
 Alpha  occ. eigenvalues --   -0.33034
 Alpha virt. eigenvalues --   -0.10185   0.24663   0.34376   0.90102   0.92874
 Alpha virt. eigenvalues --    0.92874   1.05465   1.24526   1.24526   1.25813
 Alpha virt. eigenvalues --    1.40875   1.40875   1.42288   2.15413   2.37015

  Beta  occ. eigenvalues --  -24.70124  -1.10766  -0.40877  -0.40877  -0.34461
  Beta virt. eigenvalues --   -0.24190  -0.08175   0.25035   0.36140   0.94307
  Beta virt. eigenvalues --    0.94307   0.98279   1.08944   1.22924   1.22924
  Beta virt. eigenvalues --    1.25556   1.43917   1.43917   1.44188   2.15450

 Mulliken charges and spin densities:
               1          2
     1  H    0.055242  -0.923698
     2  H    0.003397   0.988999
     3  F   -0.058639   0.934699
 Sum of Mulliken charges =  -0.00000   1.00000

 Dipole moment (field-independent basis, Debye):
    X=             -0.8720    Y=             -0.0000    Z=             -0.0000  Tot=              0.8720
 Quadrupole moment (field-independent basis, Debye-Ang):
   XX=             -8.6271   YY=             -7.6136   ZZ=             -7.6136
   XY=             -0.0000   XZ=             -0.0000   YZ=             -0.0000

  Exact polarizability:      37.478      -0.000       2.018      -0.000      -0.000       2.018
 Approx polarizability:      40.010      -0.000       1.920      -0.000       0.000       1.920

 ******    2 imaginary frequencies (negative Signs) ******

                      1                      2                      3
                      A                      A                      A
 Frequencies --   -564.9759              -233.7841               215.0143
 Red. masses --      1.0286                 1.0845                 1.0184
 Frc consts  --      0.1934                 0.0349                 0.0277
 IR Inten    --     50.5852                 8.3015                 2.6972

                      4
                      A
 Frequencies --    215.0143
 Red. masses --      1.0184
 Frc consts  --      0.0277
 IR Inten    --      2.6972

 - Thermochemistry -
 -------------------
 Temperature   298.150 Kelvin.  Pressure   1.00000 Atm.
 Atom     1 has atomic number  1 and mass   1.00783

 Molecular mass:    21.01405 amu.
 Principal axes and moments of inertia in atomic units:
                           1         2         3
     Eigenvalues --     0.00000 128.04782 128.04782
           X            1.00000  -0.00000   0.00000
           Y            0.00000   1.00000   0.00000
           Z            0.00000   0.00000   1.00000
 This molecule is a prolate symmetric top.
 Rotational symmetry number  1.
 Rotational temperature (Kelvin)      0.67642
 Rotational constant (GHZ):          14.094275
    2 imaginary frequencies ignored.
 Zero-point vibrational energy       2572.1 (Joules/Mol)
                                    0.61476 (Kcal/Mol)
 Warning -- explicit consideration of   2 degrees of freedom as
           vibrations may cause significant error
 Vibrational temperatures:    309.36   309.36
          (Kelvin)

 Zero-point correction=                           0.000980 (Hartree/Particle)
 Thermal correction to Energy=                    0.004415
 Thermal correction to Enthalpy=                  0.005359
 Thermal correction to Gibbs Free Energy=        -0.020551
 Sum of electronic and zero-point Energies=           -100.763760
 Sum of electronic and thermal Energies=              -100.760325
 Sum of electronic and thermal Enthalpies=            -100.759381
 Sum of electronic and thermal Free Energies=         -100.785291

                     E (Thermal)             CV                S
                      KCal/Mol        Cal/Mol-Kelvin    Cal/Mol-Kelvin
 Total                    2.771              8.604             54.533
 Electronic               0.000              0.000              1.377
 Translational            0.889              2.981             35.068
 Rotational               0.592              1.987             14.086
 Vibrational              1.289              3.636              4.001
 Vibration     1          0.645              1.818              2.001
 Vibration     2          0.645              1.818              2.001

 Normal termination of Gaussian 16 at Fri Aug 22 18:34:31 2025.
