 Gaussian 16, Revision C.01,
 Gaussian 16:  ES64L-G16RevC.01  3-Jul-2019

 -----------------------------------------
 # sp b3lyp/6-311g** Force nosymm scf=(qc)
 -----------------------------------------

 -------------------
 Title Card Required
 -------------------
 Symbolic Z-matrix:
 Charge =  0 Multiplicity = 2

                          Input orientation:
 ---------------------------------------------------------------------
 Center     Atomic      Atomic             Coordinates (Angstroms)
 Number     Number       Type             X           Y           Z
 ---------------------------------------------------------------------
      1          1           0        0.000000    0.000000    0.000000
      2          1           0       -0.750000    0.000000    0.000000
      3          9           0        1.050000    0.000000    0.000000
 ---------------------------------------------------------------------

 SCF Done:  E(UB3LYP) =  -100.936605528     a.u. after    6 cycles

 Alpha  occ. eigenvalues --  -24.66844  -1.18813  -0.61962  -0.40988  -0.40988
 Alpha  occ. eigenvalues --   -0.36283
 Alpha virt. eigenvalues --    0.13127   0.18519   0.53554   0.87553   0.87553
 Alpha virt. eigenvalues --    0.95741   1.09680   1.09680   1.46098   1.71123
 Alpha virt. eigenvalues --    1.76424   1.76424   2.03951   2.36385   3.54362

  Beta  occ. eigenvalues --  -24.65208  -1.14669  -0.54244  -0.39499  -0.39499
  Beta virt. eigenvalues --   -0.18699   0.15119   0.19846   0.58690   0.89383
  Beta virt. eigenvalues --    0.89383   0.99095   1.13885   1.13885   1.48349
  Beta virt. eigenvalues --    1.78825   1.80271   1.80271   2.04556   2.43839

 Mulliken charges and spin densities:
               1          2
     1  H    0.275135  -0.021684
     2  H   -0.021968   0.593013
     3  F   -0.253168   0.428671
 Sum of Mulliken charges =   0.00000   1.00000

 Dipole moment (field-independent basis, Debye):
    X=             -1.5914    Y=              0.0000    Z=             -0.0000  Tot=              1.5914
 Quadrupole moment (field-independent basis, Debye-Ang):
   XX=             -7.4531   YY=             -6.5715   ZZ=             -6.5715
   XY=              0.0000   XZ=              0.0000   YZ=             -0.0000

  Exact polarizability:      14.571      -0.000       2.525       0.000       0.000       2.525
 Approx polarizability:      17.892       0.000       2.573       0.000       0.000       2.573

 ******    2 imaginary frequencies (negative Signs) ******

                      1                      2                      3
                      A                      A                      A
 Frequencies --  -1746.9816             -1746.9816              1692.6637
 Red. masses --      1.0144                 1.0144                 1.1072
 Frc consts  --      1.8240                 1.8240                 1.8691
 IR Inten    --     26.6490                26.6490                 0.9643

                      4
                      A
 Frequencies --   3690.4049
 Red. masses --      1.0089
 Frc consts  --      8.0956
 IR Inten    --    207.5564

 - Thermochemistry -
 -------------------
 Temperature   298.150 Kelvin.  Pressure   1.00000 Atm.
 Atom     1 has atomic number  1 and mass   1.00783

 Molecular mass:    21.01405 amu.
 Principal axes and moments of inertia in atomic units:
                           1         2         3
     Eigenvalues --     0.00000  14.22669  14.22669
           X            1.00000  -0.00000   0.00000
           Y            0.00000   1.00000   0.00000
           Z            0.00000   0.00000   1.00000
 This molecule is a prolate symmetric top.
 Rotational symmetry number  1.
 Rotational temperature (Kelvin)      6.08813
 Rotational constant (GHZ):         126.855971
    2 imaginary frequencies ignored.
 Zero-point vibrational energy      32197.9 (Joules/Mol)
                                    7.69548 (Kcal/Mol)
 Vibrational temperatures:   2435.37  5309.67
          (Kelvin)

 Zero-point correction=                           0.012264 (Hartree/Particle)
 Thermal correction to Energy=                    0.014626
 Thermal correction to Enthalpy=                  0.015570
 Thermal correction to Gibbs Free Energy=        -0.006367
 Sum of electronic and zero-point Energies=           -100.924342
 Sum of electronic and thermal Energies=              -100.921979
 Sum of electronic and thermal Enthalpies=            -100.921035
 Sum of electronic and thermal Free Energies=         -100.942972

                     E (Thermal)             CV                S
                      KCal/Mol        Cal/Mol-Kelvin    Cal/Mol-Kelvin
 Total                    9.178              5.006             46.171
 Electronic               0.000              0.000              1.377
 Translational            0.889              2.981             35.068
 Rotational               0.592              1.987              9.720
 Vibrational              7.697              0.038              0.005

 Normal termination of Gaussian 16 at Fri Aug 22 16:02:03 2025.
