 Gaussian 16, Revision C.01,
 Gaussian 16:  ES64L-G16RevC.01  3-Jul-2019

 -----------------------------------------
 # sp b3lyp/6-311g** Force nosymm scf=(qc)
 -----------------------------------------

 -------------------
 Title Card Required
 -------------------
 Symbolic Z-matrix:
 Charge =  0 Multiplicity = 2

                          Input orientation:
 ---------------------------------------------------------------------
 Center     Atomic      Atomic             Coordinates (Angstroms)
 Number     Number       Type             X           Y           Z
 ---------------------------------------------------------------------
      1          1           0        0.000000    0.000000    0.000000
      2          1           0       -3.500000    0.000000    0.000000
      3          9           0        3.750000    0.000000    0.000000
 ---------------------------------------------------------------------

 SCF Done:  E(UB3LYP) =  -100.758799510     a.u. after   34 cycles

 Alpha  occ. eigenvalues --  -24.75708  -1.21648  -0.54832  -0.46038  -0.46038
 Alpha  occ. eigenvalues --   -0.32288
 Alpha virt. eigenvalues --   -0.06770   0.24355   0.37414   0.86954   0.91279
 Alpha virt. eigenvalues --    0.91279   1.01330   1.25216   1.25216   1.25367
 Alpha virt. eigenvalues --    1.45405   1.45626   1.45626   2.15072   2.41203

  Beta  occ. eigenvalues --  -24.72574  -1.12636  -0.42896  -0.42896  -0.32588
  Beta virt. eigenvalues --   -0.25647  -0.06452   0.24158   0.37951   0.92775
  Beta virt. eigenvalues --    0.92775   0.96233   1.05414   1.24882   1.24882
  Beta virt. eigenvalues --    1.25015   1.45906   1.46133   1.46133   2.15137

 Mulliken charges and spin densities:
               1          2
     1  H    0.005434  -0.991734
     2  H    0.000109   0.997863
     3  F   -0.005543   0.993870
 Sum of Mulliken charges =   0.00000   1.00000

 Dipole moment (field-independent basis, Debye):
    X=             -0.1090    Y=              0.0000    Z=             -0.0000  Tot=              0.1090
 Quadrupole moment (field-independent basis, Debye-Ang):
   XX=             -7.0901   YY=             -7.6234   ZZ=             -7.6234
   XY=              0.0000   XZ=             -0.0000   YZ=              0.0000

  Exact polarizability:      16.802      -0.000       2.028       0.000      -0.000       2.028
 Approx polarizability:      12.463       0.000       1.935      -0.000       0.000       1.935

 ******    2 imaginary frequencies (negative Signs) ******

                      1                      2                      3
                      A                      A                      A
 Frequencies --   -210.3634               -87.6785                70.3363
 Red. masses --      1.0165                 1.0982                 1.0171
 Frc consts  --      0.0265                 0.0050                 0.0030
 IR Inten    --      3.2664                 0.9761                 0.0293

                      4
                      A
 Frequencies --     70.3367
 Red. masses --      1.0171
 Frc consts  --      0.0030
 IR Inten    --      0.0293

 - Thermochemistry -
 -------------------
 Temperature   298.150 Kelvin.  Pressure   1.00000 Atm.
 Atom     1 has atomic number  1 and mass   1.00783

 Molecular mass:    21.01405 amu.
 Principal axes and moments of inertia in atomic units:
                           1         2         3
     Eigenvalues --     0.00000 218.89851 218.89851
           X            1.00000  -0.00000   0.00000
           Y            0.00000   1.00000   0.00000
           Z            0.00000   0.00000   1.00000
 This molecule is a prolate symmetric top.
 Rotational symmetry number  1.
 Rotational temperature (Kelvin)      0.39568
 Rotational constant (GHZ):           8.244648
    2 imaginary frequencies ignored.
 Zero-point vibrational energy        841.4 (Joules/Mol)
                                    0.20110 (Kcal/Mol)
 Warning -- explicit consideration of   2 degrees of freedom as
           vibrations may cause significant error
 Vibrational temperatures:    101.20   101.20
          (Kelvin)

 Zero-point correction=                           0.000320 (Hartree/Particle)
 Thermal correction to Energy=                    0.004267
 Thermal correction to Enthalpy=                  0.005211
 Thermal correction to Gibbs Free Energy=        -0.023242
 Sum of electronic and zero-point Energies=           -100.758479
 Sum of electronic and thermal Energies=              -100.754533
 Sum of electronic and thermal Enthalpies=            -100.753588
 Sum of electronic and thermal Free Energies=         -100.782042

                     E (Thermal)             CV                S
                      KCal/Mol        Cal/Mol-Kelvin    Cal/Mol-Kelvin
 Total                    2.678              8.904             59.885
 Electronic               0.000              0.000              1.377
 Translational            0.889              2.981             35.068
 Rotational               0.592              1.987             15.152
 Vibrational              1.196              3.936              8.288
 Vibration     1          0.598              1.968              4.144
 Vibration     2          0.598              1.968              4.144

 Normal termination of Gaussian 16 at Sat Aug 23 00:27:49 2025.
