 Gaussian 16, Revision C.01,
 Gaussian 16:  ES64L-G16RevC.01  3-Jul-2019

 -----------------------------------------
 # sp b3lyp/6-311g** Force nosymm scf=(qc)
 -----------------------------------------

 -------------------
 Title Card Required
 -------------------
 Symbolic Z-matrix:
 Charge =  0 Multiplicity = 2

                          Input orientation:
 ---------------------------------------------------------------------
 Center     Atomic      Atomic             Coordinates (Angstroms)
 Number     Number       Type             X           Y           Z
 ---------------------------------------------------------------------
      1          1           0        0.000000    0.000000    0.000000
      2          1           0       -1.750000    0.000000    0.000000
      3          9           0        2.900000    0.000000    0.000000
 ---------------------------------------------------------------------

 SCF Done:  E(UB3LYP) =  -100.792236364     a.u. after   26 cycles

 Alpha  occ. eigenvalues --  -24.74307  -1.20348  -0.53432  -0.44864  -0.44864
 Alpha  occ. eigenvalues --   -0.34270
 Alpha virt. eigenvalues --   -0.11776   0.25052   0.30648   0.89913   0.92120
 Alpha virt. eigenvalues --    0.92120   1.04242   1.08507   1.23007   1.23007
 Alpha virt. eigenvalues --    1.36494   1.36494   1.63280   2.14582   2.40603

  Beta  occ. eigenvalues --  -24.71277  -1.11663  -0.41832  -0.41832  -0.34144
  Beta virt. eigenvalues --   -0.25063  -0.11379   0.25822   0.30774   0.93579
  Beta virt. eigenvalues --    0.93579   0.98351   1.06897   1.10248   1.23158
  Beta virt. eigenvalues --    1.23158   1.36949   1.36949   1.63773   2.15628

 Mulliken charges and spin densities:
               1          2
     1  H    0.012435  -0.650089
     2  H    0.022009   0.690168
     3  F   -0.034444   0.959921
 Sum of Mulliken charges =   0.00000   1.00000

 Dipole moment (field-independent basis, Debye):
    X=             -0.6943    Y=              0.0000    Z=              0.0000  Tot=              0.6943
 Quadrupole moment (field-independent basis, Debye-Ang):
   XX=             -6.9744   YY=             -7.7331   ZZ=             -7.7331
   XY=              0.0000   XZ=              0.0000   YZ=              0.0000

  Exact polarizability:      61.793       0.000       2.012       0.000      -0.000       2.012
 Approx polarizability:      67.814       0.000       1.962       0.000      -0.000       1.962

 ******    2 imaginary frequencies (negative Signs) ******

                      1                      2                      3
                      A                      A                      A
 Frequencies --  -1830.1998              -249.5060               822.4139
 Red. masses --      1.0079                 1.1084                 1.0130
 Frc consts  --      1.9892                 0.0407                 0.4037
 IR Inten    --    113.1486                31.7588                 0.0099

                      4
                      A
 Frequencies --    822.4139
 Red. masses --      1.0130
 Frc consts  --      0.4037
 IR Inten    --      0.0099

 - Thermochemistry -
 -------------------
 Temperature   298.150 Kelvin.  Pressure   1.00000 Atm.
 Atom     1 has atomic number  1 and mass   1.00783

 Molecular mass:    21.01405 amu.
 Principal axes and moments of inertia in atomic units:
                           1         2         3
     Eigenvalues --     0.00000  98.24820  98.24820
           X            1.00000  -0.00000   0.00000
           Y            0.00000   1.00000   0.00000
           Z            0.00000   0.00000   1.00000
 This molecule is a prolate symmetric top.
 Rotational symmetry number  1.
 Rotational temperature (Kelvin)      0.88158
 Rotational constant (GHZ):          18.369204
    2 imaginary frequencies ignored.
 Zero-point vibrational energy       9838.3 (Joules/Mol)
                                    2.35140 (Kcal/Mol)
 Vibrational temperatures:   1183.27  1183.27
          (Kelvin)

 Zero-point correction=                           0.003747 (Hartree/Particle)
 Thermal correction to Energy=                    0.006252
 Thermal correction to Enthalpy=                  0.007196
 Thermal correction to Gibbs Free Energy=        -0.016743
 Sum of electronic and zero-point Energies=           -100.788489
 Sum of electronic and thermal Energies=              -100.785984
 Sum of electronic and thermal Enthalpies=            -100.785040
 Sum of electronic and thermal Free Energies=         -100.808980

                     E (Thermal)             CV                S
                      KCal/Mol        Cal/Mol-Kelvin    Cal/Mol-Kelvin
 Total                    3.923              6.197             50.385
 Electronic               0.000              0.000              1.377
 Translational            0.889              2.981             35.068
 Rotational               0.592              1.987             13.560
 Vibrational              2.442              1.229              0.380

 Normal termination of Gaussian 16 at Fri Aug 22 19:02:48 2025.
