 Gaussian 16, Revision C.01,
 Gaussian 16:  ES64L-G16RevC.01  3-Jul-2019

 -----------------------------------------
 # sp b3lyp/6-311g** Force nosymm scf=(qc)
 -----------------------------------------

 -------------------
 Title Card Required
 -------------------
 Symbolic Z-matrix:
 Charge =  0 Multiplicity = 2

                          Input orientation:
 ---------------------------------------------------------------------
 Center     Atomic      Atomic             Coordinates (Angstroms)
 Number     Number       Type             X           Y           Z
 ---------------------------------------------------------------------
      1          1           0        0.000000    0.000000    0.000000
      2          1           0       -2.200000    0.000000    0.000000
      3          9           0        2.900000    0.000000    0.000000
 ---------------------------------------------------------------------

 SCF Done:  E(UB3LYP) =  -100.770475218     a.u. after   22 cycles

 Alpha  occ. eigenvalues --  -24.73840  -1.19912  -0.52956  -0.44464  -0.44464
 Alpha  occ. eigenvalues --   -0.33585
 Alpha virt. eigenvalues --   -0.11546   0.25426   0.32641   0.89945   0.92428
 Alpha virt. eigenvalues --    0.92428   1.04599   1.23430   1.24251   1.24251
 Alpha virt. eigenvalues --    1.37684   1.37684   1.43971   2.13297   2.35239

  Beta  occ. eigenvalues --  -24.70833  -1.11300  -0.41456  -0.41456  -0.34047
  Beta virt. eigenvalues --   -0.24675  -0.10523   0.25953   0.33478   0.93881
  Beta virt. eigenvalues --    0.93881   0.98568   1.08495   1.22988   1.23667
  Beta virt. eigenvalues --    1.23667   1.39345   1.39345   1.45363   2.14475

 Mulliken charges and spin densities:
               1          2
     1  H    0.029634  -0.879715
     2  H    0.012504   0.927189
     3  F   -0.042138   0.952526
 Sum of Mulliken charges =  -0.00000   1.00000

 Dipole moment (field-independent basis, Debye):
    X=             -0.7578    Y=              0.0000    Z=             -0.0000  Tot=              0.7578
 Quadrupole moment (field-independent basis, Debye-Ang):
   XX=             -7.8046   YY=             -7.6777   ZZ=             -7.6777
   XY=              0.0000   XZ=             -0.0000   YZ=              0.0000

  Exact polarizability:      53.970       0.000       2.007      -0.000       0.000       2.007
 Approx polarizability:      49.073      -0.000       1.923       0.000      -0.000       1.923

 ******    2 imaginary frequencies (negative Signs) ******

                      1                      2                      3
                      A                      A                      A
 Frequencies --  -1049.1734              -267.9066               405.7116
 Red. masses --      1.0085                 1.1077                 1.0149
 Frc consts  --      0.6541                 0.0468                 0.0984
 IR Inten    --     29.2375                30.2917                 0.5371

                      4
                      A
 Frequencies --    405.7116
 Red. masses --      1.0149
 Frc consts  --      0.0984
 IR Inten    --      0.5371

 - Thermochemistry -
 -------------------
 Temperature   298.150 Kelvin.  Pressure   1.00000 Atm.
 Atom     1 has atomic number  1 and mass   1.00783

 Molecular mass:    21.01405 amu.
 Principal axes and moments of inertia in atomic units:
                           1         2         3
     Eigenvalues --     0.00000 112.83103 112.83103
           X            1.00000  -0.00000   0.00000
           Y            0.00000   1.00000   0.00000
           Z            0.00000   0.00000   1.00000
 This molecule is a prolate symmetric top.
 Rotational symmetry number  1.
 Rotational temperature (Kelvin)      0.76764
 Rotational constant (GHZ):          15.995078
    2 imaginary frequencies ignored.
 Zero-point vibrational energy       4853.4 (Joules/Mol)
                                    1.15999 (Kcal/Mol)
 Warning -- explicit consideration of   2 degrees of freedom as
           vibrations may cause significant error
 Vibrational temperatures:    583.73   583.73
          (Kelvin)

 Zero-point correction=                           0.001849 (Hartree/Particle)
 Thermal correction to Energy=                    0.004817
 Thermal correction to Enthalpy=                  0.005761
 Thermal correction to Gibbs Free Energy=        -0.019024
 Sum of electronic and zero-point Energies=           -100.768627
 Sum of electronic and thermal Energies=              -100.765659
 Sum of electronic and thermal Enthalpies=            -100.764714
 Sum of electronic and thermal Free Energies=         -100.789499

                     E (Thermal)             CV                S
                      KCal/Mol        Cal/Mol-Kelvin    Cal/Mol-Kelvin
 Total                    3.023              7.884             52.164
 Electronic               0.000              0.000              1.377
 Translational            0.889              2.981             35.068
 Rotational               0.592              1.987             13.835
 Vibrational              1.541              2.916              1.884
 Vibration     1          0.771              1.458              0.942
 Vibration     2          0.771              1.458              0.942

 Normal termination of Gaussian 16 at Fri Aug 22 19:03:22 2025.
