 Gaussian 16, Revision C.01,
 Gaussian 16:  ES64L-G16RevC.01  3-Jul-2019

 -----------------------------------------
 # sp b3lyp/6-311g** Force nosymm scf=(qc)
 -----------------------------------------

 -------------------
 Title Card Required
 -------------------
 Symbolic Z-matrix:
 Charge =  0 Multiplicity = 2

                          Input orientation:
 ---------------------------------------------------------------------
 Center     Atomic      Atomic             Coordinates (Angstroms)
 Number     Number       Type             X           Y           Z
 ---------------------------------------------------------------------
      1          1           0        0.000000    0.000000    0.000000
      2          1           0       -3.300000    0.000000    0.000000
      3          9           0        2.050000    0.000000    0.000000
 ---------------------------------------------------------------------

 SCF Done:  E(UB3LYP) =  -100.784333811     a.u. after   15 cycles

 Alpha  occ. eigenvalues --  -24.68633  -1.14957  -0.47639  -0.40104  -0.40104
 Alpha  occ. eigenvalues --   -0.33537
 Alpha virt. eigenvalues --   -0.13351   0.22654   0.32365   0.88648   0.94797
 Alpha virt. eigenvalues --    0.94797   1.05835   1.23985   1.23985   1.24257
 Alpha virt. eigenvalues --    1.35920   1.35920   1.58075   2.14226   2.30343

  Beta  occ. eigenvalues --  -24.66184  -1.08093  -0.37687  -0.37687  -0.37617
  Beta virt. eigenvalues --   -0.21081  -0.07386   0.23058   0.37567   0.90429
  Beta virt. eigenvalues --    0.95569   0.95569   1.08221   1.21768   1.21768
  Beta virt. eigenvalues --    1.44705   1.45359   1.45359   1.50745   2.12161

 Mulliken charges and spin densities:
               1          2
     1  H    0.177403  -0.766473
     2  H    0.002540   0.996157
     3  F   -0.179943   0.770317
 Sum of Mulliken charges =  -0.00000   1.00000

 Dipole moment (field-independent basis, Debye):
    X=             -1.8696    Y=             -0.0000    Z=              0.0000  Tot=              1.8696
 Quadrupole moment (field-independent basis, Debye-Ang):
   XX=             -9.9114   YY=             -7.5034   ZZ=             -7.5034
   XY=             -0.0000   XZ=              0.0000   YZ=              0.0000

  Exact polarizability:      27.579      -0.000       2.054       0.000      -0.000       2.054
 Approx polarizability:      38.399      -0.000       1.941       0.000      -0.000       1.941

 ******    2 imaginary frequencies (negative Signs) ******

                      1                      2                      3
                      A                      A                      A
 Frequencies --  -1058.4045              -152.8717               445.8850
 Red. masses --      1.0560                 1.0555                 1.0246
 Frc consts  --      0.6970                 0.0145                 0.1200
 IR Inten    --    115.7578                 0.6276                29.1589

                      4
                      A
 Frequencies --    445.8850
 Red. masses --      1.0246
 Frc consts  --      0.1200
 IR Inten    --     29.1589

 - Thermochemistry -
 -------------------
 Temperature   298.150 Kelvin.  Pressure   1.00000 Atm.
 Atom     1 has atomic number  1 and mass   1.00783

 Molecular mass:    21.01405 amu.
 Principal axes and moments of inertia in atomic units:
                           1         2         3
     Eigenvalues --     0.00000 108.68550 108.68550
           X            1.00000  -0.00000   0.00000
           Y            0.00000   1.00000   0.00000
           Z            0.00000   0.00000   1.00000
 This molecule is a prolate symmetric top.
 Rotational symmetry number  1.
 Rotational temperature (Kelvin)      0.79692
 Rotational constant (GHZ):          16.605170
    2 imaginary frequencies ignored.
 Zero-point vibrational energy       5334.0 (Joules/Mol)
                                    1.27485 (Kcal/Mol)
 Warning -- explicit consideration of   2 degrees of freedom as
           vibrations may cause significant error
 Vibrational temperatures:    641.53   641.53
          (Kelvin)

 Zero-point correction=                           0.002032 (Hartree/Particle)
 Thermal correction to Energy=                    0.004927
 Thermal correction to Enthalpy=                  0.005871
 Thermal correction to Gibbs Free Energy=        -0.018752
 Sum of electronic and zero-point Energies=           -100.782302
 Sum of electronic and thermal Energies=              -100.779407
 Sum of electronic and thermal Enthalpies=            -100.778463
 Sum of electronic and thermal Free Energies=         -100.803086

                     E (Thermal)             CV                S
                      KCal/Mol        Cal/Mol-Kelvin    Cal/Mol-Kelvin
 Total                    3.092              7.708             51.823
 Electronic               0.000              0.000              1.377
 Translational            0.889              2.981             35.068
 Rotational               0.592              1.987             13.761
 Vibrational              1.610              2.740              1.617
 Vibration     1          0.805              1.370              0.808
 Vibration     2          0.805              1.370              0.808

 Normal termination of Gaussian 16 at Fri Aug 22 17:01:27 2025.
