 Gaussian 16, Revision C.01,
 Gaussian 16:  ES64L-G16RevC.01  3-Jul-2019

 -----------------------------------------
 # sp b3lyp/6-311g** Force nosymm scf=(qc)
 -----------------------------------------

 -------------------
 Title Card Required
 -------------------
 Symbolic Z-matrix:
 Charge =  0 Multiplicity = 2

                          Input orientation:
 ---------------------------------------------------------------------
 Center     Atomic      Atomic             Coordinates (Angstroms)
 Number     Number       Type             X           Y           Z
 ---------------------------------------------------------------------
      1          1           0        0.000000    0.000000    0.000000
      2          1           0       -0.500000    0.000000    0.000000
      3          9           0        1.200000    0.000000    0.000000
 ---------------------------------------------------------------------

 SCF Done:  E(UB3LYP) =  -100.839829088     a.u. after    6 cycles

 Alpha  occ. eigenvalues --  -24.69664  -1.19337  -0.64916  -0.42547  -0.42547
 Alpha  occ. eigenvalues --   -0.39593
 Alpha virt. eigenvalues --    0.13074   0.18898   0.62366   0.87150   0.87150
 Alpha virt. eigenvalues --    0.94603   1.14341   1.14341   1.53188   1.62735
 Alpha virt. eigenvalues --    1.84238   1.93989   1.93989   2.53015   3.78309

  Beta  occ. eigenvalues --  -24.67168  -1.12871  -0.56679  -0.40208  -0.40208
  Beta virt. eigenvalues --   -0.19366   0.14314   0.19482   0.65825   0.88610
  Beta virt. eigenvalues --    0.88610   0.99943   1.17181   1.17181   1.56340
  Beta virt. eigenvalues --    1.67406   1.85508   1.96339   1.96339   2.57845

 Mulliken charges and spin densities:
               1          2
     1  H    0.226662  -0.011564
     2  H   -0.048185   0.318906
     3  F   -0.178477   0.692658
 Sum of Mulliken charges =   0.00000   1.00000

 Dipole moment (field-independent basis, Debye):
    X=             -1.1106    Y=             -0.0000    Z=             -0.0000  Tot=              1.1106
 Quadrupole moment (field-independent basis, Debye-Ang):
   XX=             -6.9634   YY=             -6.3870   ZZ=             -6.3870
   XY=             -0.0000   XZ=              0.0000   YZ=              0.0000

  Exact polarizability:      12.244      -0.000       2.359       0.000      -0.000       2.359
 Approx polarizability:      14.547      -0.000       2.425       0.000      -0.000       2.425

 ******    2 imaginary frequencies (negative Signs) ******

                      1                      2                      3
                      A                      A                      A
 Frequencies --  -5053.3028             -5053.3028              1378.5707
 Red. masses --      1.0107                 1.0107                 1.1085
 Frc consts  --     15.2070                15.2070                 1.2412
 IR Inten    --      2.3353                 2.3353                21.7907

                      4
                      A
 Frequencies --   9713.3758
 Red. masses --      1.0078
 Frc consts  --     56.0251
 IR Inten    --    331.5166

 - Thermochemistry -
 -------------------
 Temperature   298.150 Kelvin.  Pressure   1.00000 Atm.
 Atom     1 has atomic number  1 and mass   1.00783

 Molecular mass:    21.01405 amu.
 Principal axes and moments of inertia in atomic units:
                           1         2         3
     Eigenvalues --     0.00000  14.13208  14.13208
           X            1.00000  -0.00000   0.00000
           Y            0.00000   1.00000   0.00000
           Z            0.00000   0.00000   1.00000
 This molecule is a prolate symmetric top.
 Rotational symmetry number  1.
 Rotational temperature (Kelvin)      6.12889
 Rotational constant (GHZ):         127.705252
    2 imaginary frequencies ignored.
 Zero-point vibrational energy      66344.6 (Joules/Mol)
                                   15.85673 (Kcal/Mol)
 Vibrational temperatures:   1983.46 13975.38
          (Kelvin)

 Zero-point correction=                           0.025269 (Hartree/Particle)
 Thermal correction to Energy=                    0.027638
 Thermal correction to Enthalpy=                  0.028582
 Thermal correction to Gibbs Free Energy=         0.006644
 Sum of electronic and zero-point Energies=           -100.814560
 Sum of electronic and thermal Energies=              -100.812191
 Sum of electronic and thermal Enthalpies=            -100.811247
 Sum of electronic and thermal Free Energies=         -100.833185

                     E (Thermal)             CV                S
                      KCal/Mol        Cal/Mol-Kelvin    Cal/Mol-Kelvin
 Total                   17.343              5.082             46.172
 Electronic               0.000              0.000              1.377
 Translational            0.889              2.981             35.068
 Rotational               0.592              1.987              9.707
 Vibrational             15.862              0.114              0.020

 Normal termination of Gaussian 16 at Fri Aug 22 16:09:04 2025.
