 Gaussian 16, Revision C.01,
 Gaussian 16:  ES64L-G16RevC.01  3-Jul-2019

 -----------------------------------------
 # sp b3lyp/6-311g** Force nosymm scf=(qc)
 -----------------------------------------

 -------------------
 Title Card Required
 -------------------
 Symbolic Z-matrix:
 Charge =  0 Multiplicity = 2

                          Input orientation:
 ---------------------------------------------------------------------
 Center     Atomic      Atomic             Coordinates (Angstroms)
 Number     Number       Type             X           Y           Z
 ---------------------------------------------------------------------
      1          1           0        0.000000    0.000000    0.000000
      2          1           0       -3.300000    0.000000    0.000000
      3          9           0        1.600000    0.000000    0.000000
 ---------------------------------------------------------------------

 SCF Done:  E(UB3LYP) =  -100.834157959     a.u. after   13 cycles

 Alpha  occ. eigenvalues --  -24.64870  -1.10514  -0.43355  -0.36792  -0.36792
 Alpha  occ. eigenvalues --   -0.34200
 Alpha virt. eigenvalues --   -0.15283   0.20900   0.28411   0.94180   0.94180
 Alpha virt. eigenvalues --    1.00457   1.07064   1.23320   1.23320   1.23494
 Alpha virt. eigenvalues --    1.32085   1.32085   1.74322   2.13642   2.20808

  Beta  occ. eigenvalues --  -24.64039  -1.08283  -0.41403  -0.35994  -0.35994
  Beta virt. eigenvalues --   -0.17180  -0.07332   0.22438   0.37641   0.93873
  Beta virt. eigenvalues --    0.93873   1.01288   1.07337   1.27669   1.27669
  Beta virt. eigenvalues --    1.44996   1.45457   1.45457   1.72261   2.14261

 Mulliken charges and spin densities:
               1          2
     1  H    0.327036  -0.258811
     2  H    0.003449   0.996105
     3  F   -0.330485   0.262706
 Sum of Mulliken charges =  -0.00000   1.00000

 Dipole moment (field-independent basis, Debye):
    X=             -2.6383    Y=              0.0000    Z=             -0.0000  Tot=              2.6383
 Quadrupole moment (field-independent basis, Debye-Ang):
   XX=            -10.0596   YY=             -7.3721   ZZ=             -7.3721
   XY=              0.0000   XZ=              0.0000   YZ=             -0.0000

  Exact polarizability:      20.609      -0.000       2.149      -0.000       0.000       2.149
 Approx polarizability:      35.004       0.000       2.062       0.000      -0.000       2.062

 ******    2 imaginary frequencies (negative Signs) ******

                      1                      2                      3
                      A                      A                      A
 Frequencies --  -1895.7233              -126.2242               905.3350
 Red. masses --      1.0572                 1.0543                 1.0286
 Frc consts  --      2.2386                 0.0099                 0.4967
 IR Inten    --     55.9341                 0.6674               100.0057

                      4
                      A
 Frequencies --    905.3350
 Red. masses --      1.0286
 Frc consts  --      0.4967
 IR Inten    --    100.0057

 - Thermochemistry -
 -------------------
 Temperature   298.150 Kelvin.  Pressure   1.00000 Atm.
 Atom     1 has atomic number  1 and mass   1.00783

 Molecular mass:    21.01405 amu.
 Principal axes and moments of inertia in atomic units:
                           1         2         3
     Eigenvalues --     0.00000  88.33301  88.33301
           X            1.00000  -0.00000   0.00000
           Y            0.00000   1.00000   0.00000
           Z            0.00000   0.00000   1.00000
 This molecule is a prolate symmetric top.
 Rotational symmetry number  1.
 Rotational temperature (Kelvin)      0.98054
 Rotational constant (GHZ):          20.431106
    2 imaginary frequencies ignored.
 Zero-point vibrational energy      10830.2 (Joules/Mol)
                                    2.58848 (Kcal/Mol)
 Vibrational temperatures:   1302.58  1302.58
          (Kelvin)

 Zero-point correction=                           0.004125 (Hartree/Particle)
 Thermal correction to Energy=                    0.006591
 Thermal correction to Enthalpy=                  0.007535
 Thermal correction to Gibbs Free Energy=        -0.016253
 Sum of electronic and zero-point Energies=           -100.830033
 Sum of electronic and thermal Energies=              -100.827567
 Sum of electronic and thermal Enthalpies=            -100.826622
 Sum of electronic and thermal Free Energies=         -100.850411

                     E (Thermal)             CV                S
                      KCal/Mol        Cal/Mol-Kelvin    Cal/Mol-Kelvin
 Total                    4.136              5.954             50.067
 Electronic               0.000              0.000              1.377
 Translational            0.889              2.981             35.068
 Rotational               0.592              1.987             13.349
 Vibrational              2.655              0.986              0.273

 Normal termination of Gaussian 16 at Fri Aug 22 16:32:21 2025.
