 Gaussian 16, Revision C.01,
 Gaussian 16:  ES64L-G16RevC.01  3-Jul-2019

 -----------------------------------------
 # sp b3lyp/6-311g** Force nosymm scf=(qc)
 -----------------------------------------

 -------------------
 Title Card Required
 -------------------
 Symbolic Z-matrix:
 Charge =  0 Multiplicity = 2

                          Input orientation:
 ---------------------------------------------------------------------
 Center     Atomic      Atomic             Coordinates (Angstroms)
 Number     Number       Type             X           Y           Z
 ---------------------------------------------------------------------
      1          1           0        0.000000    0.000000    0.000000
      2          1           0       -3.850000    0.000000    0.000000
      3          9           0        1.200000    0.000000    0.000000
 ---------------------------------------------------------------------

 SCF Done:  E(UB3LYP) =  -100.925538244     a.u. after    6 cycles

 Alpha  occ. eigenvalues --  -24.64361  -1.12278  -0.47751  -0.37537  -0.37537
 Alpha  occ. eigenvalues --   -0.33568
 Alpha virt. eigenvalues --   -0.05775   0.22143   0.29143   0.93166   0.93166
 Alpha virt. eigenvalues --    1.00800   1.23888   1.23941   1.23941   1.26036
 Alpha virt. eigenvalues --    1.34608   1.34608   1.72568   2.13526   2.28411

  Beta  occ. eigenvalues --  -24.64359  -1.12273  -0.47746  -0.37535  -0.37535
  Beta virt. eigenvalues --   -0.06854  -0.04489   0.26688   0.38928   0.93166
  Beta virt. eigenvalues --    0.93166   1.00805   1.26034   1.34604   1.34604
  Beta virt. eigenvalues --    1.48422   1.48422   1.48959   1.72588   2.27753

 Mulliken charges and spin densities:
               1          2
     1  H    0.353520   0.000009
     2  H    0.000566   0.999390
     3  F   -0.354086   0.000601
 Sum of Mulliken charges =   0.00000   1.00000

 Dipole moment (field-independent basis, Debye):
    X=             -2.2849    Y=              0.0000    Z=              0.0000  Tot=              2.2849
 Quadrupole moment (field-independent basis, Debye-Ang):
   XX=             -8.9136   YY=             -7.1277   ZZ=             -7.1277
   XY=              0.0000   XZ=              0.0000   YZ=             -0.0000

  Exact polarizability:       9.192       0.000       2.322      -0.000      -0.000       2.322
 Approx polarizability:      13.194       0.000       2.276      -0.000       0.000       2.276

 ******    1 imaginary frequencies (negative Signs) ******

                      1                      2                      3
                      A                      A                      A
 Frequencies --    -38.2382              1006.8530              1209.7097
 Red. masses --      1.0530                 1.0585                 1.0356
 Frc consts  --      0.0009                 0.6322                 0.8929
 IR Inten    --      0.0335                64.3281               148.2616

                      4
                      A
 Frequencies --   1209.7097
 Red. masses --      1.0356
 Frc consts  --      0.8929
 IR Inten    --    148.2616

 - Thermochemistry -
 -------------------
 Temperature   298.150 Kelvin.  Pressure   1.00000 Atm.
 Atom     1 has atomic number  1 and mass   1.00783

 Molecular mass:    21.01405 amu.
 Principal axes and moments of inertia in atomic units:
                           1         2         3
     Eigenvalues --     0.00000  90.22383  90.22383
           X            1.00000  -0.00000   0.00000
           Y            0.00000   1.00000   0.00000
           Z            0.00000   0.00000   1.00000
 This molecule is a prolate symmetric top.
 Rotational symmetry number  1.
 Rotational temperature (Kelvin)      0.95999
 Rotational constant (GHZ):          20.002933
    1 imaginary frequencies ignored.
 Zero-point vibrational energy      20493.7 (Joules/Mol)
                                    4.89810 (Kcal/Mol)
 Vibrational temperatures:   1448.64  1740.50  1740.50
          (Kelvin)

 Zero-point correction=                           0.007806 (Hartree/Particle)
 Thermal correction to Energy=                    0.010234
 Thermal correction to Enthalpy=                  0.011178
 Thermal correction to Gibbs Free Energy=        -0.012581
 Sum of electronic and zero-point Energies=           -100.917733
 Sum of electronic and thermal Energies=              -100.915304
 Sum of electronic and thermal Enthalpies=            -100.914360
 Sum of electronic and thermal Free Energies=         -100.938120

                     E (Thermal)             CV                S
                      KCal/Mol        Cal/Mol-Kelvin    Cal/Mol-Kelvin
 Total                    6.422              5.735             50.007
 Electronic               0.000              0.000              1.377
 Translational            0.889              2.981             35.068
 Rotational               0.592              1.987             13.391
 Vibrational              4.941              0.767              0.170

 Normal termination of Gaussian 16 at Fri Aug 22 16:11:21 2025.
