 Gaussian 16, Revision C.01,
 Gaussian 16:  ES64L-G16RevC.01  3-Jul-2019

 -----------------------------------------
 # sp b3lyp/6-311g** Force nosymm scf=(qc)
 -----------------------------------------

 -------------------
 Title Card Required
 -------------------
 Symbolic Z-matrix:
 Charge =  0 Multiplicity = 2

                          Input orientation:
 ---------------------------------------------------------------------
 Center     Atomic      Atomic             Coordinates (Angstroms)
 Number     Number       Type             X           Y           Z
 ---------------------------------------------------------------------
      1          1           0        0.000000    0.000000    0.000000
      2          1           0       -1.750000    0.000000    0.000000
      3          9           0        2.300000    0.000000    0.000000
 ---------------------------------------------------------------------

 SCF Done:  E(UB3LYP) =  -100.800960320     a.u. after   18 cycles

 Alpha  occ. eigenvalues --  -24.70999  -1.17250  -0.50147  -0.42082  -0.42082
 Alpha  occ. eigenvalues --   -0.36060
 Alpha virt. eigenvalues --   -0.12602   0.23958   0.31305   0.87441   0.93927
 Alpha virt. eigenvalues --    0.93927   1.03297   1.20069   1.21176   1.21176
 Alpha virt. eigenvalues --    1.34875   1.34875   1.62629   2.13244   2.38347

  Beta  occ. eigenvalues --  -24.68243  -1.09432  -0.39341  -0.39341  -0.35879
  Beta virt. eigenvalues --   -0.23400  -0.11670   0.26222   0.30688   0.92267
  Beta virt. eigenvalues --    0.95198   0.95198   1.06860   1.21994   1.21994
  Beta virt. eigenvalues --    1.24432   1.35809   1.35809   1.63145   2.14072

 Mulliken charges and spin densities:
               1          2
     1  H    0.062756  -0.598292
     2  H    0.045661   0.729007
     3  F   -0.108417   0.869285
 Sum of Mulliken charges =  -0.00000   1.00000

 Dipole moment (field-independent basis, Debye):
    X=             -1.6432    Y=             -0.0000    Z=             -0.0000  Tot=              1.6432
 Quadrupole moment (field-independent basis, Debye-Ang):
   XX=             -7.9212   YY=             -7.6421   ZZ=             -7.6421
   XY=             -0.0000   XZ=             -0.0000   YZ=             -0.0000

  Exact polarizability:      60.032      -0.000       2.032       0.000       0.000       2.032
 Approx polarizability:      76.522       0.000       1.969       0.000       0.000       1.969

 ******    2 imaginary frequencies (negative Signs) ******

                      1                      2                      3
                      A                      A                      A
 Frequencies --  -1852.0000              -447.7236               810.1346
 Red. masses --      1.0093                 1.1067                 1.0150
 Frc consts  --      2.0397                 0.1307                 0.3925
 IR Inten    --    242.3897                49.0838                 1.4328

                      4
                      A
 Frequencies --    810.1346
 Red. masses --      1.0150
 Frc consts  --      0.3925
 IR Inten    --      1.4328

 - Thermochemistry -
 -------------------
 Temperature   298.150 Kelvin.  Pressure   1.00000 Atm.
 Atom     1 has atomic number  1 and mass   1.00783

 Molecular mass:    21.01405 amu.
 Principal axes and moments of inertia in atomic units:
                           1         2         3
     Eigenvalues --     0.00000  71.11155  71.11155
           X            1.00000  -0.00000   0.00000
           Y            0.00000   1.00000   0.00000
           Z            0.00000   0.00000   1.00000
 This molecule is a prolate symmetric top.
 Rotational symmetry number  1.
 Rotational temperature (Kelvin)      1.21800
 Rotational constant (GHZ):          25.379016
    2 imaginary frequencies ignored.
 Zero-point vibrational energy       9691.4 (Joules/Mol)
                                    2.31629 (Kcal/Mol)
 Vibrational temperatures:   1165.60  1165.60
          (Kelvin)

 Zero-point correction=                           0.003691 (Hartree/Particle)
 Thermal correction to Energy=                    0.006203
 Thermal correction to Enthalpy=                  0.007147
 Thermal correction to Gibbs Free Energy=        -0.016496
 Sum of electronic and zero-point Energies=           -100.797269
 Sum of electronic and thermal Energies=              -100.794758
 Sum of electronic and thermal Enthalpies=            -100.793813
 Sum of electronic and thermal Free Energies=         -100.817457

                     E (Thermal)             CV                S
                      KCal/Mol        Cal/Mol-Kelvin    Cal/Mol-Kelvin
 Total                    3.892              6.236             49.761
 Electronic               0.000              0.000              1.377
 Translational            0.889              2.981             35.068
 Rotational               0.592              1.987             12.918
 Vibrational              2.411              1.268              0.398

 Normal termination of Gaussian 16 at Fri Aug 22 17:21:38 2025.
