 Gaussian 16, Revision C.01,
 Gaussian 16:  ES64L-G16RevC.01  3-Jul-2019

 -----------------------------------------
 # sp b3lyp/6-311g** Force nosymm scf=(qc)
 -----------------------------------------

 -------------------
 Title Card Required
 -------------------
 Symbolic Z-matrix:
 Charge =  0 Multiplicity = 2

                          Input orientation:
 ---------------------------------------------------------------------
 Center     Atomic      Atomic             Coordinates (Angstroms)
 Number     Number       Type             X           Y           Z
 ---------------------------------------------------------------------
      1          1           0        0.000000    0.000000    0.000000
      2          1           0       -1.800000    0.000000    0.000000
      3          9           0        2.450000    0.000000    0.000000
 ---------------------------------------------------------------------

 SCF Done:  E(UB3LYP) =  -100.793827768     a.u. after   17 cycles

 Alpha  occ. eigenvalues --  -24.71889  -1.18087  -0.51017  -0.42826  -0.42826
 Alpha  occ. eigenvalues --   -0.35422
 Alpha virt. eigenvalues --   -0.12604   0.24402   0.31365   0.89054   0.93519
 Alpha virt. eigenvalues --    0.93519   1.04015   1.16901   1.22113   1.22113
 Alpha virt. eigenvalues --    1.34967   1.34967   1.59079   2.12562   2.38021

  Beta  occ. eigenvalues --  -24.69045  -1.09991  -0.39991  -0.39991  -0.35318
  Beta virt. eigenvalues --   -0.23777  -0.11798   0.26405   0.30853   0.94877
  Beta virt. eigenvalues --    0.94877   0.95115   1.07017   1.20510   1.22517
  Beta virt. eigenvalues --    1.22517   1.35972   1.35972   1.59676   2.13429

 Mulliken charges and spin densities:
               1          2
     1  H    0.048242  -0.655045
     2  H    0.037964   0.756555
     3  F   -0.086206   0.898490
 Sum of Mulliken charges =  -0.00000   1.00000

 Dipole moment (field-independent basis, Debye):
    X=             -1.4008    Y=              0.0000    Z=             -0.0000  Tot=              1.4008
 Quadrupole moment (field-independent basis, Debye-Ang):
   XX=             -7.8267   YY=             -7.6711   ZZ=             -7.6711
   XY=             -0.0000   XZ=             -0.0000   YZ=             -0.0000

  Exact polarizability:      61.996      -0.000       2.017      -0.000      -0.000       2.017
 Approx polarizability:      74.088       0.000       1.954       0.000       0.000       1.954

 ******    2 imaginary frequencies (negative Signs) ******

                      1                      2                      3
                      A                      A                      A
 Frequencies --  -1754.3022              -396.7065               754.7911
 Red. masses --      1.0087                 1.1074                 1.0146
 Frc consts  --      1.8291                 0.1027                 0.3406
 IR Inten    --    172.1622                51.1499                 0.8326

                      4
                      A
 Frequencies --    754.7911
 Red. masses --      1.0146
 Frc consts  --      0.3406
 IR Inten    --      0.8326

 - Thermochemistry -
 -------------------
 Temperature   298.150 Kelvin.  Pressure   1.00000 Atm.
 Atom     1 has atomic number  1 and mass   1.00783

 Molecular mass:    21.01405 amu.
 Principal axes and moments of inertia in atomic units:
                           1         2         3
     Eigenvalues --     0.00000  78.86182  78.86182
           X            1.00000  -0.00000   0.00000
           Y            0.00000   1.00000   0.00000
           Z            0.00000   0.00000   1.00000
 This molecule is a prolate symmetric top.
 Rotational symmetry number  1.
 Rotational temperature (Kelvin)      1.09830
 Rotational constant (GHZ):          22.884855
    2 imaginary frequencies ignored.
 Zero-point vibrational energy       9029.3 (Joules/Mol)
                                    2.15806 (Kcal/Mol)
 Vibrational temperatures:   1085.98  1085.98
          (Kelvin)

 Zero-point correction=                           0.003439 (Hartree/Particle)
 Thermal correction to Energy=                    0.005985
 Thermal correction to Enthalpy=                  0.006929
 Thermal correction to Gibbs Free Energy=        -0.016858
 Sum of electronic and zero-point Energies=           -100.790389
 Sum of electronic and thermal Energies=              -100.787843
 Sum of electronic and thermal Enthalpies=            -100.786899
 Sum of electronic and thermal Free Energies=         -100.810686

                     E (Thermal)             CV                S
                      KCal/Mol        Cal/Mol-Kelvin    Cal/Mol-Kelvin
 Total                    3.755              6.424             50.063
 Electronic               0.000              0.000              1.377
 Translational            0.889              2.981             35.068
 Rotational               0.592              1.987             13.123
 Vibrational              2.274              1.456              0.495

 Normal termination of Gaussian 16 at Fri Aug 22 17:38:07 2025.
