 Gaussian 16, Revision C.01,
 Gaussian 16:  ES64L-G16RevC.01  3-Jul-2019

 -----------------------------------------
 # sp b3lyp/6-311g** Force nosymm scf=(qc)
 -----------------------------------------

 -------------------
 Title Card Required
 -------------------
 Symbolic Z-matrix:
 Charge =  0 Multiplicity = 2

                          Input orientation:
 ---------------------------------------------------------------------
 Center     Atomic      Atomic             Coordinates (Angstroms)
 Number     Number       Type             X           Y           Z
 ---------------------------------------------------------------------
      1          1           0        0.000000    0.000000    0.000000
      2          1           0       -1.800000    0.000000    0.000000
      3          9           0        2.800000    0.000000    0.000000
 ---------------------------------------------------------------------

 SCF Done:  E(UB3LYP) =  -100.789071183     a.u. after   24 cycles

 Alpha  occ. eigenvalues --  -24.73791  -1.19867  -0.52915  -0.44428  -0.44428
 Alpha  occ. eigenvalues --   -0.34422
 Alpha virt. eigenvalues --   -0.12045   0.25009   0.30958   0.90134   0.92438
 Alpha virt. eigenvalues --    0.92438   1.04617   1.10578   1.23145   1.23145
 Alpha virt. eigenvalues --    1.35990   1.35990   1.59869   2.13453   2.39398

  Beta  occ. eigenvalues --  -24.70796  -1.11292  -0.41432  -0.41432  -0.34331
  Beta virt. eigenvalues --   -0.24770  -0.11537   0.26049   0.30971   0.93884
  Beta virt. eigenvalues --    0.93884   0.98300   1.07372   1.12385   1.23269
  Beta virt. eigenvalues --    1.23269   1.36642   1.36642   1.60466   2.14550

 Mulliken charges and spin densities:
               1          2
     1  H    0.019812  -0.688412
     2  H    0.024700   0.739851
     3  F   -0.044511   0.948562
 Sum of Mulliken charges =   0.00000   1.00000

 Dipole moment (field-independent basis, Debye):
    X=             -0.8496    Y=              0.0000    Z=              0.0000  Tot=              0.8496
 Quadrupole moment (field-independent basis, Debye-Ang):
   XX=             -7.2644   YY=             -7.7196   ZZ=             -7.7196
   XY=             -0.0000   XZ=             -0.0000   YZ=              0.0000

  Exact polarizability:      63.133      -0.000       2.009      -0.000       0.000       2.009
 Approx polarizability:      68.670      -0.000       1.952      -0.000       0.000       1.952

 ******    2 imaginary frequencies (negative Signs) ******

                      1                      2                      3
                      A                      A                      A
 Frequencies --  -1742.2733              -283.1285               758.6458
 Red. masses --      1.0080                 1.1083                 1.0135
 Frc consts  --      1.8028                 0.0523                 0.3437
 IR Inten    --    110.5435                38.1989                 0.0765

                      4
                      A
 Frequencies --    758.6458
 Red. masses --      1.0135
 Frc consts  --      0.3437
 IR Inten    --      0.0765

 - Thermochemistry -
 -------------------
 Temperature   298.150 Kelvin.  Pressure   1.00000 Atm.
 Atom     1 has atomic number  1 and mass   1.00783

 Molecular mass:    21.01405 amu.
 Principal axes and moments of inertia in atomic units:
                           1         2         3
     Eigenvalues --     0.00000  94.91929  94.91929
           X            1.00000  -0.00000   0.00000
           Y            0.00000   1.00000   0.00000
           Z            0.00000   0.00000   1.00000
 This molecule is a prolate symmetric top.
 Rotational symmetry number  1.
 Rotational temperature (Kelvin)      0.91250
 Rotational constant (GHZ):          19.013429
    2 imaginary frequencies ignored.
 Zero-point vibrational energy       9075.4 (Joules/Mol)
                                    2.16908 (Kcal/Mol)
 Vibrational temperatures:   1091.52  1091.52
          (Kelvin)

 Zero-point correction=                           0.003457 (Hartree/Particle)
 Thermal correction to Energy=                    0.006000
 Thermal correction to Enthalpy=                  0.006944
 Thermal correction to Gibbs Free Energy=        -0.017015
 Sum of electronic and zero-point Energies=           -100.785615
 Sum of electronic and thermal Energies=              -100.783072
 Sum of electronic and thermal Enthalpies=            -100.782127
 Sum of electronic and thermal Free Energies=         -100.806086

                     E (Thermal)             CV                S
                      KCal/Mol        Cal/Mol-Kelvin    Cal/Mol-Kelvin
 Total                    3.765              6.411             50.424
 Electronic               0.000              0.000              1.377
 Translational            0.889              2.981             35.068
 Rotational               0.592              1.987             13.491
 Vibrational              2.284              1.443              0.487

 Normal termination of Gaussian 16 at Fri Aug 22 18:42:46 2025.
