 Gaussian 16, Revision C.01,
 Gaussian 16:  ES64L-G16RevC.01  3-Jul-2019

 -----------------------------------------
 # sp b3lyp/6-311g** Force nosymm scf=(qc)
 -----------------------------------------

 -------------------
 Title Card Required
 -------------------
 Symbolic Z-matrix:
 Charge =  0 Multiplicity = 2

                          Input orientation:
 ---------------------------------------------------------------------
 Center     Atomic      Atomic             Coordinates (Angstroms)
 Number     Number       Type             X           Y           Z
 ---------------------------------------------------------------------
      1          1           0        0.000000    0.000000    0.000000
      2          1           0       -3.650000    0.000000    0.000000
      3          9           0        1.450000    0.000000    0.000000
 ---------------------------------------------------------------------

 SCF Done:  E(UB3LYP) =  -100.865786536     a.u. after    8 cycles

 Alpha  occ. eigenvalues --  -24.64366  -1.09957  -0.43876  -0.36563  -0.36563
 Alpha  occ. eigenvalues --   -0.33832
 Alpha virt. eigenvalues --   -0.13243   0.20504   0.27637   0.93272   0.93272
 Alpha virt. eigenvalues --    1.03520   1.12128   1.23673   1.23678   1.23678
 Alpha virt. eigenvalues --    1.31897   1.31897   1.72312   2.13179   2.19961

  Beta  occ. eigenvalues --  -24.64354  -1.09923  -0.43845  -0.36551  -0.36551
  Beta virt. eigenvalues --   -0.13471  -0.06336   0.23489   0.38326   0.93267
  Beta virt. eigenvalues --    0.93267   1.03553   1.12148   1.31842   1.31842
  Beta virt. eigenvalues --    1.46160   1.46580   1.46580   1.72319   2.19146

 Mulliken charges and spin densities:
               1          2
     1  H    0.353312  -0.002794
     2  H    0.001222   0.998706
     3  F   -0.354535   0.004089
 Sum of Mulliken charges =   0.00000   1.00000

 Dipole moment (field-independent basis, Debye):
    X=             -2.5594    Y=             -0.0000    Z=             -0.0000  Tot=              2.5594
 Quadrupole moment (field-independent basis, Debye-Ang):
   XX=             -9.7418   YY=             -7.2934   ZZ=             -7.2934
   XY=             -0.0000   XZ=             -0.0000   YZ=              0.0000

  Exact polarizability:      14.075       0.000       2.209      -0.000      -0.000       2.209
 Approx polarizability:      25.321       0.000       2.138      -0.000       0.000       2.138

 ******    2 imaginary frequencies (negative Signs) ******

                      1                      2                      3
                      A                      A                      A
 Frequencies --  -1098.6125               -62.3528              1056.7205
 Red. masses --      1.0578                 1.0538                 1.0318
 Frc consts  --      0.7522                 0.0024                 0.6788
 IR Inten    --     45.1771                 0.0971               122.7978

                      4
                      A
 Frequencies --   1056.7205
 Red. masses --      1.0318
 Frc consts  --      0.6788
 IR Inten    --    122.7978

 - Thermochemistry -
 -------------------
 Temperature   298.150 Kelvin.  Pressure   1.00000 Atm.
 Atom     1 has atomic number  1 and mass   1.00783

 Molecular mass:    21.01405 amu.
 Principal axes and moments of inertia in atomic units:
                           1         2         3
     Eigenvalues --     0.00000  93.77186  93.77186
           X            1.00000  -0.00000   0.00000
           Y            0.00000   1.00000   0.00000
           Z            0.00000   0.00000   1.00000
 This molecule is a prolate symmetric top.
 Rotational symmetry number  1.
 Rotational temperature (Kelvin)      0.92367
 Rotational constant (GHZ):          19.246085
    2 imaginary frequencies ignored.
 Zero-point vibrational energy      12641.2 (Joules/Mol)
                                    3.02132 (Kcal/Mol)
 Vibrational temperatures:   1520.39  1520.39
          (Kelvin)

 Zero-point correction=                           0.004815 (Hartree/Particle)
 Thermal correction to Energy=                    0.007234
 Thermal correction to Enthalpy=                  0.008179
 Thermal correction to Gibbs Free Energy=        -0.015607
 Sum of electronic and zero-point Energies=           -100.860972
 Sum of electronic and thermal Energies=              -100.858552
 Sum of electronic and thermal Enthalpies=            -100.857608
 Sum of electronic and thermal Free Energies=         -100.881394

                     E (Thermal)             CV                S
                      KCal/Mol        Cal/Mol-Kelvin    Cal/Mol-Kelvin
 Total                    4.540              5.606             50.061
 Electronic               0.000              0.000              1.377
 Translational            0.889              2.981             35.068
 Rotational               0.592              1.987             13.467
 Vibrational              3.058              0.638              0.149

 Normal termination of Gaussian 16 at Fri Aug 22 16:23:58 2025.
