 Gaussian 16, Revision C.01,
 Gaussian 16:  ES64L-G16RevC.01  3-Jul-2019

 -----------------------------------------
 # sp b3lyp/6-311g** Force nosymm scf=(qc)
 -----------------------------------------

 -------------------
 Title Card Required
 -------------------
 Symbolic Z-matrix:
 Charge =  0 Multiplicity = 2

                          Input orientation:
 ---------------------------------------------------------------------
 Center     Atomic      Atomic             Coordinates (Angstroms)
 Number     Number       Type             X           Y           Z
 ---------------------------------------------------------------------
      1          1           0        0.000000    0.000000    0.000000
      2          1           0       -0.950000    0.000000    0.000000
      3          9           0        1.350000    0.000000    0.000000
 ---------------------------------------------------------------------

 SCF Done:  E(UB3LYP) =  -100.936816163     a.u. after    7 cycles

 Alpha  occ. eigenvalues --  -24.67801  -1.15634  -0.54634  -0.40231  -0.40231
 Alpha  occ. eigenvalues --   -0.39706
 Alpha virt. eigenvalues --    0.06422   0.19528   0.36780   0.89290   0.89290
 Alpha virt. eigenvalues --    0.98480   1.07690   1.07690   1.28746   1.64176
 Alpha virt. eigenvalues --    1.66476   1.66476   2.22586   2.32672   2.53124

  Beta  occ. eigenvalues --  -24.65768  -1.10214  -0.46502  -0.38295  -0.38295
  Beta virt. eigenvalues --   -0.22434   0.08766   0.21153   0.39867   0.90390
  Beta virt. eigenvalues --    0.90390   1.03146   1.11448   1.11448   1.32861
  Beta virt. eigenvalues --    1.67997   1.68875   1.68875   2.24433   2.38095

 Mulliken charges and spin densities:
               1          2
     1  H    0.207110  -0.078933
     2  H    0.038725   0.475822
     3  F   -0.245836   0.603111
 Sum of Mulliken charges =  -0.00000   1.00000

 Dipole moment (field-independent basis, Debye):
    X=             -1.8673    Y=              0.0000    Z=              0.0000  Tot=              1.8673
 Quadrupole moment (field-independent basis, Debye-Ang):
   XX=             -7.4486   YY=             -6.8888   ZZ=             -6.8888
   XY=              0.0000   XZ=              0.0000   YZ=             -0.0000

  Exact polarizability:      23.918      -0.000       2.440      -0.000      -0.000       2.440
 Approx polarizability:      33.668      -0.000       2.442      -0.000      -0.000       2.442

 ******    1 imaginary frequencies (negative Signs) ******

                      1                      2                      3
                      A                      A                      A
 Frequencies --  -1795.9443              1063.0317              1063.0317
 Red. masses --      1.0531                 1.0142                 1.0142
 Frc consts  --      2.0012                 0.6753                 0.6753
 IR Inten    --    615.5305                 9.6446                 9.6446

                      4
                      A
 Frequencies --   1376.1925
 Red. masses --      1.0585
 Frc consts  --      1.1811
 IR Inten    --    218.1075

 - Thermochemistry -
 -------------------
 Temperature   298.150 Kelvin.  Pressure   1.00000 Atm.
 Atom     1 has atomic number  1 and mass   1.00783

 Molecular mass:    21.01405 amu.
 Principal axes and moments of inertia in atomic units:
                           1         2         3
     Eigenvalues --     0.00000  23.29839  23.29839
           X            1.00000  -0.00000   0.00000
           Y            0.00000   1.00000   0.00000
           Z            0.00000   0.00000   1.00000
 This molecule is a prolate symmetric top.
 Rotational symmetry number  1.
 Rotational temperature (Kelvin)      3.71759
 Rotational constant (GHZ):          77.462048
    1 imaginary frequencies ignored.
 Zero-point vibrational energy      20948.1 (Joules/Mol)
                                    5.00673 (Kcal/Mol)
 Vibrational temperatures:   1529.47  1529.47  1980.03
          (Kelvin)

 Zero-point correction=                           0.007979 (Hartree/Particle)
 Thermal correction to Energy=                    0.010405
 Thermal correction to Enthalpy=                  0.011349
 Thermal correction to Gibbs Free Energy=        -0.011129
 Sum of electronic and zero-point Energies=           -100.928837
 Sum of electronic and thermal Energies=              -100.926411
 Sum of electronic and thermal Enthalpies=            -100.925467
 Sum of electronic and thermal Free Energies=         -100.947946

                     E (Thermal)             CV                S
                      KCal/Mol        Cal/Mol-Kelvin    Cal/Mol-Kelvin
 Total                    6.529              5.709             47.310
 Electronic               0.000              0.000              1.377
 Translational            0.889              2.981             35.068
 Rotational               0.592              1.987             10.700
 Vibrational              5.048              0.741              0.165

 Normal termination of Gaussian 16 at Fri Aug 22 16:16:45 2025.
