 Gaussian 16, Revision C.01,
 Gaussian 16:  ES64L-G16RevC.01  3-Jul-2019

 -----------------------------------------
 # sp b3lyp/6-311g** Force nosymm scf=(qc)
 -----------------------------------------

 -------------------
 Title Card Required
 -------------------
 Symbolic Z-matrix:
 Charge =  0 Multiplicity = 2

                          Input orientation:
 ---------------------------------------------------------------------
 Center     Atomic      Atomic             Coordinates (Angstroms)
 Number     Number       Type             X           Y           Z
 ---------------------------------------------------------------------
      1          1           0        0.000000    0.000000    0.000000
      2          1           0       -2.350000    0.000000    0.000000
      3          9           0        3.050000    0.000000    0.000000
 ---------------------------------------------------------------------

 SCF Done:  E(UB3LYP) =  -100.766487610     a.u. after   23 cycles

 Alpha  occ. eigenvalues --  -24.74362  -1.20398  -0.53480  -0.44904  -0.44904
 Alpha  occ. eigenvalues --   -0.33178
 Alpha virt. eigenvalues --   -0.10793   0.25517   0.33211   0.89368   0.92110
 Alpha virt. eigenvalues --    0.92110   1.03658   1.24552   1.24552   1.25734
 Alpha virt. eigenvalues --    1.39175   1.39175   1.42403   2.14679   2.35752

  Beta  occ. eigenvalues --  -24.71318  -1.11670  -0.41856  -0.41856  -0.33705
  Beta virt. eigenvalues --   -0.24955  -0.09814   0.25684   0.34272   0.93577
  Beta virt. eigenvalues --    0.93577   0.98198   1.07592   1.23896   1.23896
  Beta virt. eigenvalues --    1.24943   1.40753   1.40753   1.43909   2.15786

 Mulliken charges and spin densities:
               1          2
     1  H    0.024265  -0.918500
     2  H    0.007297   0.953820
     3  F   -0.031562   0.964680
 Sum of Mulliken charges =   0.00000   1.00000

 Dipole moment (field-independent basis, Debye):
    X=             -0.5757    Y=              0.0000    Z=              0.0000  Tot=              0.5757
 Quadrupole moment (field-independent basis, Debye-Ang):
   XX=             -7.7085   YY=             -7.6687   ZZ=             -7.6687
   XY=              0.0000   XZ=              0.0000   YZ=              0.0000

  Exact polarizability:      47.610       0.000       2.012       0.000       0.000       2.012
 Approx polarizability:      41.094       0.000       1.923       0.000      -0.000       1.923

 ******    2 imaginary frequencies (negative Signs) ******

                      1                      2                      3
                      A                      A                      A
 Frequencies --   -848.6392              -229.2379               320.8554
 Red. masses --      1.0086                 1.1076                 1.0151
 Frc consts  --      0.4280                 0.0343                 0.0616
 IR Inten    --     20.3386                21.0244                 0.4057

                      4
                      A
 Frequencies --    320.8554
 Red. masses --      1.0151
 Frc consts  --      0.0616
 IR Inten    --      0.4057

 - Thermochemistry -
 -------------------
 Temperature   298.150 Kelvin.  Pressure   1.00000 Atm.
 Atom     1 has atomic number  1 and mass   1.00783

 Molecular mass:    21.01405 amu.
 Principal axes and moments of inertia in atomic units:
                           1         2         3
     Eigenvalues --     0.00000 126.10230 126.10230
           X            1.00000  -0.00000   0.00000
           Y            0.00000   1.00000   0.00000
           Z            0.00000   0.00000   1.00000
 This molecule is a prolate symmetric top.
 Rotational symmetry number  1.
 Rotational temperature (Kelvin)      0.68685
 Rotational constant (GHZ):          14.311723
    2 imaginary frequencies ignored.
 Zero-point vibrational energy       3838.3 (Joules/Mol)
                                    0.91737 (Kcal/Mol)
 Warning -- explicit consideration of   2 degrees of freedom as
           vibrations may cause significant error
 Vibrational temperatures:    461.64   461.64
          (Kelvin)

 Zero-point correction=                           0.001462 (Hartree/Particle)
 Thermal correction to Energy=                    0.004612
 Thermal correction to Enthalpy=                  0.005556
 Thermal correction to Gibbs Free Energy=        -0.019680
 Sum of electronic and zero-point Energies=           -100.765026
 Sum of electronic and thermal Energies=              -100.761876
 Sum of electronic and thermal Enthalpies=            -100.760932
 Sum of electronic and thermal Free Energies=         -100.786167

                     E (Thermal)             CV                S
                      KCal/Mol        Cal/Mol-Kelvin    Cal/Mol-Kelvin
 Total                    2.894              8.235             53.113
 Electronic               0.000              0.000              1.377
 Translational            0.889              2.981             35.068
 Rotational               0.592              1.987             14.056
 Vibrational              1.413              3.267              2.611
 Vibration     1          0.706              1.634              1.306
 Vibration     2          0.706              1.634              1.306

 Normal termination of Gaussian 16 at Fri Aug 22 19:44:02 2025.
