 Gaussian 16, Revision C.01,
 Gaussian 16:  ES64L-G16RevC.01  3-Jul-2019

 -----------------------------------------
 # sp b3lyp/6-311g** Force nosymm scf=(qc)
 -----------------------------------------

 -------------------
 Title Card Required
 -------------------
 Symbolic Z-matrix:
 Charge =  0 Multiplicity = 2

                          Input orientation:
 ---------------------------------------------------------------------
 Center     Atomic      Atomic             Coordinates (Angstroms)
 Number     Number       Type             X           Y           Z
 ---------------------------------------------------------------------
      1          1           0        0.000000    0.000000    0.000000
      2          1           0       -2.400000    0.000000    0.000000
      3          9           0        1.200000    0.000000    0.000000
 ---------------------------------------------------------------------

 SCF Done:  E(UB3LYP) =  -100.926486377     a.u. after    7 cycles

 Alpha  occ. eigenvalues --  -24.64081  -1.12078  -0.47689  -0.37304  -0.37304
 Alpha  occ. eigenvalues --   -0.35546
 Alpha virt. eigenvalues --   -0.04588   0.24541   0.28458   0.93394   0.93394
 Alpha virt. eigenvalues --    1.00924   1.19269   1.21976   1.21976   1.34238
 Alpha virt. eigenvalues --    1.34893   1.34893   1.74032   2.12828   2.29665

  Beta  occ. eigenvalues --  -24.64022  -1.11929  -0.47430  -0.37251  -0.37251
  Beta virt. eigenvalues --   -0.12045  -0.01871   0.28417   0.36100   0.93392
  Beta virt. eigenvalues --    0.93392   1.01069   1.26372   1.34749   1.34749
  Beta virt. eigenvalues --    1.42822   1.42822   1.46966   1.74283   2.28595

 Mulliken charges and spin densities:
               1          2
     1  H    0.344072  -0.001570
     2  H    0.012768   0.983595
     3  F   -0.356840   0.017975
 Sum of Mulliken charges =   0.00000   1.00000

 Dipole moment (field-independent basis, Debye):
    X=             -2.4423    Y=             -0.0000    Z=             -0.0000  Tot=              2.4423
 Quadrupole moment (field-independent basis, Debye-Ang):
   XX=             -8.4840   YY=             -7.1190   ZZ=             -7.1190
   XY=             -0.0000   XZ=             -0.0000   YZ=              0.0000

  Exact polarizability:      13.257       0.000       2.352      -0.000      -0.000       2.352
 Approx polarizability:      16.865      -0.000       2.311       0.000      -0.000       2.311

 ******    1 imaginary frequencies (negative Signs) ******

                      1                      2                      3
                      A                      A                      A
 Frequencies --   -209.8703               920.0486              1177.0961
 Red. masses --      1.0433                 1.0686                 1.0281
 Frc consts  --      0.0271                 0.5329                 0.8392
 IR Inten    --      8.9422               131.6812               127.4272

                      4
                      A
 Frequencies --   1177.0961
 Red. masses --      1.0281
 Frc consts  --      0.8392
 IR Inten    --    127.4272

 - Thermochemistry -
 -------------------
 Temperature   298.150 Kelvin.  Pressure   1.00000 Atm.
 Atom     1 has atomic number  1 and mass   1.00783

 Molecular mass:    21.01405 amu.
 Principal axes and moments of inertia in atomic units:
                           1         2         3
     Eigenvalues --     0.00000  47.84886  47.84886
           X            1.00000  -0.00000   0.00000
           Y            0.00000   1.00000   0.00000
           Z            0.00000   0.00000   1.00000
 This molecule is a prolate symmetric top.
 Rotational symmetry number  1.
 Rotational temperature (Kelvin)      1.81016
 Rotational constant (GHZ):          37.717538
    1 imaginary frequencies ignored.
 Zero-point vibrational energy      19584.3 (Joules/Mol)
                                    4.68076 (Kcal/Mol)
 Vibrational temperatures:   1323.74  1693.58  1693.58
          (Kelvin)

 Zero-point correction=                           0.007459 (Hartree/Particle)
 Thermal correction to Energy=                    0.009907
 Thermal correction to Enthalpy=                  0.010851
 Thermal correction to Gibbs Free Energy=        -0.012334
 Sum of electronic and zero-point Energies=           -100.919027
 Sum of electronic and thermal Energies=              -100.916580
 Sum of electronic and thermal Enthalpies=            -100.915636
 Sum of electronic and thermal Free Energies=         -100.938820

                     E (Thermal)             CV                S
                      KCal/Mol        Cal/Mol-Kelvin    Cal/Mol-Kelvin
 Total                    6.216              5.882             48.795
 Electronic               0.000              0.000              1.377
 Translational            0.889              2.981             35.068
 Rotational               0.592              1.987             12.130
 Vibrational              4.735              0.914              0.220

 Normal termination of Gaussian 16 at Fri Aug 22 16:10:25 2025.
