 Gaussian 16, Revision C.01,
 Gaussian 16:  ES64L-G16RevC.01  3-Jul-2019

 -----------------------------------------
 # sp b3lyp/6-311g** Force nosymm scf=(qc)
 -----------------------------------------

 -------------------
 Title Card Required
 -------------------
 Symbolic Z-matrix:
 Charge =  0 Multiplicity = 2

                          Input orientation:
 ---------------------------------------------------------------------
 Center     Atomic      Atomic             Coordinates (Angstroms)
 Number     Number       Type             X           Y           Z
 ---------------------------------------------------------------------
      1          1           0        0.000000    0.000000    0.000000
      2          1           0       -1.200000    0.000000    0.000000
      3          9           0        0.700000    0.000000    0.000000
 ---------------------------------------------------------------------

 SCF Done:  E(UB3LYP) =  -100.856238658     a.u. after    6 cycles

 Alpha  occ. eigenvalues --  -24.63814  -1.29440  -0.61194  -0.42419  -0.42419
 Alpha  occ. eigenvalues --   -0.35550
 Alpha virt. eigenvalues --    0.15208   0.20226   0.60513   0.91470   0.91470
 Alpha virt. eigenvalues --    0.93822   1.11442   1.11442   1.45210   1.58005
 Alpha virt. eigenvalues --    1.58005   1.70458   1.97617   2.30519   3.48231

  Beta  occ. eigenvalues --  -24.63539  -1.28638  -0.59508  -0.42197  -0.42197
  Beta virt. eigenvalues --   -0.13429   0.16196   0.26900   0.65906   0.92218
  Beta virt. eigenvalues --    0.92218   0.94414   1.20992   1.20992   1.46658
  Beta virt. eigenvalues --    1.63727   1.63727   1.81892   1.98644   2.49663

 Mulliken charges and spin densities:
               1          2
     1  H    0.252129   0.007780
     2  H    0.002319   0.948165
     3  F   -0.254447   0.044055
 Sum of Mulliken charges =   0.00000   1.00000

 Dipole moment (field-independent basis, Debye):
    X=             -1.4891    Y=             -0.0000    Z=              0.0000  Tot=              1.4891
 Quadrupole moment (field-independent basis, Debye-Ang):
   XX=             -7.2408   YY=             -6.5253   ZZ=             -6.5253
   XY=             -0.0000   XZ=              0.0000   YZ=              0.0000

  Exact polarizability:       7.828      -0.000       2.561      -0.000      -0.000       2.561
 Approx polarizability:       7.674      -0.000       2.594       0.000      -0.000       2.594

 ******    2 imaginary frequencies (negative Signs) ******

                      1                      2                      3
                      A                      A                      A
 Frequencies --  -3501.5965             -3501.5965              1393.8390
 Red. masses --      1.0256                 1.0256                 1.0541
 Frc consts  --      7.4089                 7.4089                 1.2065
 IR Inten    --    133.2250               133.2250                28.5209

                      4
                      A
 Frequencies --   9021.6371
 Red. masses --      1.0575
 Frc consts  --     50.7108
 IR Inten    --    112.3859

 - Thermochemistry -
 -------------------
 Temperature   298.150 Kelvin.  Pressure   1.00000 Atm.
 Atom     1 has atomic number  1 and mass   1.00783

 Molecular mass:    21.01405 amu.
 Principal axes and moments of inertia in atomic units:
                           1         2         3
     Eigenvalues --     0.00000  13.58911  13.58911
           X            1.00000  -0.00000   0.00000
           Y            0.00000   1.00000   0.00000
           Z            0.00000   0.00000   1.00000
 This molecule is a prolate symmetric top.
 Rotational symmetry number  1.
 Rotational temperature (Kelvin)      6.37377
 Rotational constant (GHZ):         132.807881
    2 imaginary frequencies ignored.
 Zero-point vibrational energy      62298.4 (Joules/Mol)
                                   14.88967 (Kcal/Mol)
 Vibrational temperatures:   2005.42 12980.12
          (Kelvin)

 Zero-point correction=                           0.023728 (Hartree/Particle)
 Thermal correction to Energy=                    0.026096
 Thermal correction to Enthalpy=                  0.027040
 Thermal correction to Gibbs Free Energy=         0.005140
 Sum of electronic and zero-point Energies=           -100.832510
 Sum of electronic and thermal Energies=              -100.830142
 Sum of electronic and thermal Enthalpies=            -100.829198
 Sum of electronic and thermal Free Energies=         -100.851098

                     E (Thermal)             CV                S
                      KCal/Mol        Cal/Mol-Kelvin    Cal/Mol-Kelvin
 Total                   16.376              5.076             46.093
 Electronic               0.000              0.000              1.377
 Translational            0.889              2.981             35.068
 Rotational               0.592              1.987              9.629
 Vibrational             14.894              0.108              0.018

 Normal termination of Gaussian 16 at Fri Aug 22 15:45:52 2025.
