 Gaussian 16, Revision C.01,
 Gaussian 16:  ES64L-G16RevC.01  3-Jul-2019

 -----------------------------------------
 # sp b3lyp/6-311g** Force nosymm scf=(qc)
 -----------------------------------------

 -------------------
 Title Card Required
 -------------------
 Symbolic Z-matrix:
 Charge =  0 Multiplicity = 2

                          Input orientation:
 ---------------------------------------------------------------------
 Center     Atomic      Atomic             Coordinates (Angstroms)
 Number     Number       Type             X           Y           Z
 ---------------------------------------------------------------------
      1          1           0        0.000000    0.000000    0.000000
      2          1           0       -1.900000    0.000000    0.000000
      3          9           0        3.250000    0.000000    0.000000
 ---------------------------------------------------------------------

 SCF Done:  E(UB3LYP) =  -100.780158876     a.u. after   28 cycles

 Alpha  occ. eigenvalues --  -24.75183  -1.21161  -0.54305  -0.45600  -0.45600
 Alpha  occ. eigenvalues --   -0.33466
 Alpha virt. eigenvalues --   -0.11417   0.25647   0.31415   0.88563   0.91590
 Alpha virt. eigenvalues --    0.91590   1.02587   1.13006   1.24445   1.24445
 Alpha virt. eigenvalues --    1.37014   1.37014   1.55379   2.13237   2.37926

  Beta  occ. eigenvalues --  -24.72090  -1.12277  -0.42500  -0.42500  -0.33499
  Beta virt. eigenvalues --   -0.25454  -0.11105   0.25749   0.31879   0.93072
  Beta virt. eigenvalues --    0.93072   0.97554   1.06572   1.13052   1.24386
  Beta virt. eigenvalues --    1.24386   1.37434   1.37434   1.55722   2.14084

 Mulliken charges and spin densities:
               1          2
     1  H    0.005815  -0.785346
     2  H    0.010858   0.804678
     3  F   -0.016673   0.980669
 Sum of Mulliken charges =   0.00000   1.00000

 Dipole moment (field-independent basis, Debye):
    X=             -0.3754    Y=             -0.0000    Z=             -0.0000  Tot=              0.3754
 Quadrupole moment (field-independent basis, Debye-Ang):
   XX=             -6.7508   YY=             -7.7352   ZZ=             -7.7352
   XY=             -0.0000   XZ=             -0.0000   YZ=              0.0000

  Exact polarizability:      53.351      -0.000       2.012      -0.000      -0.000       2.012
 Approx polarizability:      49.840      -0.000       1.943      -0.000      -0.000       1.943

 ******    2 imaginary frequencies (negative Signs) ******

                      1                      2                      3
                      A                      A                      A
 Frequencies --  -1545.9544              -177.7372               650.2703
 Red. masses --      1.0079                 1.1085                 1.0128
 Frc consts  --      1.4192                 0.0206                 0.2523
 IR Inten    --     29.8694                15.4401                 0.0017

                      4
                      A
 Frequencies --    650.2703
 Red. masses --      1.0128
 Frc consts  --      0.2523
 IR Inten    --      0.0017

 - Thermochemistry -
 -------------------
 Temperature   298.150 Kelvin.  Pressure   1.00000 Atm.
 Atom     1 has atomic number  1 and mass   1.00783

 Molecular mass:    21.01405 amu.
 Principal axes and moments of inertia in atomic units:
                           1         2         3
     Eigenvalues --     0.00000 121.29009 121.29009
           X            1.00000  -0.00000   0.00000
           Y            0.00000   1.00000   0.00000
           Z            0.00000   0.00000   1.00000
 This molecule is a prolate symmetric top.
 Rotational symmetry number  1.
 Rotational temperature (Kelvin)      0.71411
 Rotational constant (GHZ):          14.879544
    2 imaginary frequencies ignored.
 Zero-point vibrational energy       7779.0 (Joules/Mol)
                                    1.85922 (Kcal/Mol)
 Vibrational temperatures:    935.59   935.59
          (Kelvin)

 Zero-point correction=                           0.002963 (Hartree/Particle)
 Thermal correction to Energy=                    0.005592
 Thermal correction to Enthalpy=                  0.006536
 Thermal correction to Gibbs Free Energy=        -0.017774
 Sum of electronic and zero-point Energies=           -100.777196
 Sum of electronic and thermal Energies=              -100.774567
 Sum of electronic and thermal Enthalpies=            -100.773623
 Sum of electronic and thermal Free Energies=         -100.797933

                     E (Thermal)             CV                S
                      KCal/Mol        Cal/Mol-Kelvin    Cal/Mol-Kelvin
 Total                    3.509              6.823             51.166
 Electronic               0.000              0.000              1.377
 Translational            0.889              2.981             35.068
 Rotational               0.592              1.987             13.979
 Vibrational              2.028              1.855              0.742

 Normal termination of Gaussian 16 at Fri Aug 22 20:34:16 2025.
