 Gaussian 16, Revision C.01,
 Gaussian 16:  ES64L-G16RevC.01  3-Jul-2019

 -----------------------------------------
 # sp b3lyp/6-311g** Force nosymm scf=(qc)
 -----------------------------------------

 -------------------
 Title Card Required
 -------------------
 Symbolic Z-matrix:
 Charge =  0 Multiplicity = 2

                          Input orientation:
 ---------------------------------------------------------------------
 Center     Atomic      Atomic             Coordinates (Angstroms)
 Number     Number       Type             X           Y           Z
 ---------------------------------------------------------------------
      1          1           0        0.000000    0.000000    0.000000
      2          1           0       -1.750000    0.000000    0.000000
      3          9           0        3.200000    0.000000    0.000000
 ---------------------------------------------------------------------

 SCF Done:  E(UB3LYP) =  -100.790891785     a.u. after   33 cycles

 Alpha  occ. eigenvalues --  -24.75235  -1.21210  -0.54359  -0.45648  -0.45648
 Alpha  occ. eigenvalues --   -0.33729
 Alpha virt. eigenvalues --   -0.11369   0.25388   0.30561   0.88756   0.91547
 Alpha virt. eigenvalues --    0.91547   1.02793   1.08002   1.23572   1.23572
 Alpha virt. eigenvalues --    1.37104   1.37104   1.63874   2.15182   2.40627

  Beta  occ. eigenvalues --  -24.72142  -1.12327  -0.42548  -0.42548  -0.33671
  Beta virt. eigenvalues --   -0.25524  -0.11133   0.25582   0.30916   0.93028
  Beta virt. eigenvalues --    0.93028   0.97702   1.06707   1.08206   1.23637
  Beta virt. eigenvalues --    1.23637   1.37360   1.37360   1.64167   2.15962

 Mulliken charges and spin densities:
               1          2
     1  H    0.003149  -0.662119
     2  H    0.013276   0.681580
     3  F   -0.016425   0.980539
 Sum of Mulliken charges =   0.00000   1.00000

 Dipole moment (field-independent basis, Debye):
    X=             -0.3788    Y=             -0.0000    Z=              0.0000  Tot=              0.3788
 Quadrupole moment (field-independent basis, Debye-Ang):
   XX=             -6.5080   YY=             -7.7511   ZZ=             -7.7511
   XY=              0.0000   XZ=             -0.0000   YZ=              0.0000

  Exact polarizability:      53.990       0.000       2.034      -0.000      -0.000       2.034
 Approx polarizability:      57.186       0.000       1.965      -0.000      -0.000       1.965

 ******    2 imaginary frequencies (negative Signs) ******

                      1                      2                      3
                      A                      A                      A
 Frequencies --  -1826.7106              -175.5369               828.5666
 Red. masses --      1.0079                 1.1085                 1.0123
 Frc consts  --      1.9815                 0.0201                 0.4095
 IR Inten    --     53.8754                15.7204                 0.0022

                      4
                      A
 Frequencies --    828.5666
 Red. masses --      1.0123
 Frc consts  --      0.4095
 IR Inten    --      0.0022

 - Thermochemistry -
 -------------------
 Temperature   298.150 Kelvin.  Pressure   1.00000 Atm.
 Atom     1 has atomic number  1 and mass   1.00783

 Molecular mass:    21.01405 amu.
 Principal axes and moments of inertia in atomic units:
                           1         2         3
     Eigenvalues --     0.00000 113.57357 113.57357
           X            1.00000  -0.00000   0.00000
           Y            0.00000   1.00000   0.00000
           Z            0.00000   0.00000   1.00000
 This molecule is a prolate symmetric top.
 Rotational symmetry number  1.
 Rotational temperature (Kelvin)      0.76262
 Rotational constant (GHZ):          15.890503
    2 imaginary frequencies ignored.
 Zero-point vibrational energy       9911.9 (Joules/Mol)
                                    2.36899 (Kcal/Mol)
 Vibrational temperatures:   1192.12  1192.12
          (Kelvin)

 Zero-point correction=                           0.003775 (Hartree/Particle)
 Thermal correction to Energy=                    0.006277
 Thermal correction to Enthalpy=                  0.007221
 Thermal correction to Gibbs Free Energy=        -0.016851
 Sum of electronic and zero-point Energies=           -100.787117
 Sum of electronic and thermal Energies=              -100.784615
 Sum of electronic and thermal Enthalpies=            -100.783671
 Sum of electronic and thermal Free Energies=         -100.807743

                     E (Thermal)             CV                S
                      KCal/Mol        Cal/Mol-Kelvin    Cal/Mol-Kelvin
 Total                    3.939              6.178             50.664
 Electronic               0.000              0.000              1.377
 Translational            0.889              2.981             35.068
 Rotational               0.592              1.987             13.848
 Vibrational              2.458              1.210              0.371

 Normal termination of Gaussian 16 at Fri Aug 22 20:22:41 2025.
