 Gaussian 16, Revision C.01,
 Gaussian 16:  ES64L-G16RevC.01  3-Jul-2019

 -----------------------------------------
 # sp b3lyp/6-311g** Force nosymm scf=(qc)
 -----------------------------------------

 -------------------
 Title Card Required
 -------------------
 Symbolic Z-matrix:
 Charge =  0 Multiplicity = 2

                          Input orientation:
 ---------------------------------------------------------------------
 Center     Atomic      Atomic             Coordinates (Angstroms)
 Number     Number       Type             X           Y           Z
 ---------------------------------------------------------------------
      1          1           0        0.000000    0.000000    0.000000
      2          1           0       -4.000000    0.000000    0.000000
      3          9           0        1.200000    0.000000    0.000000
 ---------------------------------------------------------------------

 SCF Done:  E(UB3LYP) =  -100.925530132     a.u. after    6 cycles

 Alpha  occ. eigenvalues --  -24.64364  -1.12280  -0.47753  -0.37540  -0.37540
 Alpha  occ. eigenvalues --   -0.33470
 Alpha virt. eigenvalues --   -0.05786   0.22218   0.28919   0.93163   0.93163
 Alpha virt. eigenvalues --    1.00798   1.23986   1.24036   1.24036   1.25981
 Alpha virt. eigenvalues --    1.34604   1.34604   1.72505   2.13443   2.28339

  Beta  occ. eigenvalues --  -24.64363  -1.12277  -0.47750  -0.37539  -0.37539
  Beta virt. eigenvalues --   -0.06594  -0.04549   0.26682   0.38961   0.93163
  Beta virt. eigenvalues --    0.93163   1.00802   1.25981   1.34601   1.34601
  Beta virt. eigenvalues --    1.48704   1.48704   1.49279   1.72522   2.27652

 Mulliken charges and spin densities:
               1          2
     1  H    0.353656   0.000001
     2  H    0.000397   0.999576
     3  F   -0.354054   0.000423
 Sum of Mulliken charges =   0.00000   1.00000

 Dipole moment (field-independent basis, Debye):
    X=             -2.2816    Y=             -0.0000    Z=              0.0000  Tot=              2.2816
 Quadrupole moment (field-independent basis, Debye-Ang):
   XX=             -8.9286   YY=             -7.1277   ZZ=             -7.1277
   XY=             -0.0000   XZ=              0.0000   YZ=             -0.0000

  Exact polarizability:       9.085       0.000       2.322      -0.000       0.000       2.322
 Approx polarizability:      13.101       0.000       2.275       0.000       0.000       2.275

 ******    1 imaginary frequencies (negative Signs) ******

                      1                      2                      3
                      A                      A                      A
 Frequencies --    -30.8466              1007.4112              1211.6022
 Red. masses --      1.0531                 1.0584                 1.0362
 Frc consts  --      0.0006                 0.6329                 0.8962
 IR Inten    --      0.0189                63.2749               148.9363

                      4
                      A
 Frequencies --   1211.6022
 Red. masses --      1.0362
 Frc consts  --      0.8962
 IR Inten    --    148.9363

 - Thermochemistry -
 -------------------
 Temperature   298.150 Kelvin.  Pressure   1.00000 Atm.
 Atom     1 has atomic number  1 and mass   1.00783

 Molecular mass:    21.01405 amu.
 Principal axes and moments of inertia in atomic units:
                           1         2         3
     Eigenvalues --     0.00000  95.42978  95.42978
           X            1.00000  -0.00000   0.00000
           Y            0.00000   1.00000   0.00000
           Z            0.00000   0.00000   1.00000
 This molecule is a prolate symmetric top.
 Rotational symmetry number  1.
 Rotational temperature (Kelvin)      0.90762
 Rotational constant (GHZ):          18.911718
    1 imaginary frequencies ignored.
 Zero-point vibrational energy      20519.6 (Joules/Mol)
                                    4.90431 (Kcal/Mol)
 Vibrational temperatures:   1449.44  1743.23  1743.23
          (Kelvin)

 Zero-point correction=                           0.007816 (Hartree/Particle)
 Thermal correction to Energy=                    0.010244
 Thermal correction to Enthalpy=                  0.011188
 Thermal correction to Gibbs Free Energy=        -0.012624
 Sum of electronic and zero-point Energies=           -100.917715
 Sum of electronic and thermal Energies=              -100.915286
 Sum of electronic and thermal Enthalpies=            -100.914342
 Sum of electronic and thermal Free Energies=         -100.938154

                     E (Thermal)             CV                S
                      KCal/Mol        Cal/Mol-Kelvin    Cal/Mol-Kelvin
 Total                    6.428              5.732             50.117
 Electronic               0.000              0.000              1.377
 Translational            0.889              2.981             35.068
 Rotational               0.592              1.987             13.502
 Vibrational              4.947              0.764              0.170

 Normal termination of Gaussian 16 at Fri Aug 22 16:11:27 2025.
