 Gaussian 16, Revision C.01,
 Gaussian 16:  ES64L-G16RevC.01  3-Jul-2019

 -----------------------------------------
 # sp b3lyp/6-311g** Force nosymm scf=(qc)
 -----------------------------------------

 -------------------
 Title Card Required
 -------------------
 Symbolic Z-matrix:
 Charge =  0 Multiplicity = 2

                          Input orientation:
 ---------------------------------------------------------------------
 Center     Atomic      Atomic             Coordinates (Angstroms)
 Number     Number       Type             X           Y           Z
 ---------------------------------------------------------------------
      1          1           0        0.000000    0.000000    0.000000
      2          1           0       -3.900000    0.000000    0.000000
      3          9           0        0.700000    0.000000    0.000000
 ---------------------------------------------------------------------

 SCF Done:  E(UB3LYP) =  -100.874744269     a.u. after    6 cycles

 Alpha  occ. eigenvalues --  -24.63201  -1.28236  -0.58591  -0.41768  -0.41768
 Alpha  occ. eigenvalues --   -0.33190
 Alpha virt. eigenvalues --    0.06460   0.24390   0.52523   0.93477   0.93477
 Alpha virt. eigenvalues --    0.95780   1.24222   1.24314   1.24314   1.30507
 Alpha virt. eigenvalues --    1.44054   1.44054   1.97641   2.14308   2.86556

  Beta  occ. eigenvalues --  -24.63201  -1.28235  -0.58591  -0.41767  -0.41767
  Beta virt. eigenvalues --   -0.04799   0.06630   0.38911   0.52498   0.93477
  Beta virt. eigenvalues --    0.93477   0.95776   1.30350   1.44054   1.44054
  Beta virt. eigenvalues --    1.50153   1.50268   1.50268   1.97704   2.45268

 Mulliken charges and spin densities:
               1          2
     1  H    0.262576   0.000304
     2  H    0.000347   0.999608
     3  F   -0.262923   0.000088
 Sum of Mulliken charges =   0.00000   1.00000

 Dipole moment (field-independent basis, Debye):
    X=             -1.5831    Y=             -0.0000    Z=             -0.0000  Tot=              1.5831
 Quadrupole moment (field-independent basis, Debye-Ang):
   XX=             -7.3206   YY=             -6.6631   ZZ=             -6.6631
   XY=             -0.0000   XZ=             -0.0000   YZ=             -0.0000

  Exact polarizability:       3.734      -0.000       2.443       0.000      -0.000       2.443
 Approx polarizability:       4.117      -0.000       2.423       0.000       0.000       2.423

 ******    3 imaginary frequencies (negative Signs) ******

                      1                      2                      3
                      A                      A                      A
 Frequencies --  -3569.3362             -3569.3362               -31.0846
 Red. masses --      1.0433                 1.0433                 1.0532
 Frc consts  --      7.8315                 7.8315                 0.0006
 IR Inten    --    216.5334               216.5334                 0.0090

                      4
                      A
 Frequencies --   9073.2407
 Red. masses --      1.0583
 Frc consts  --     51.3320
 IR Inten    --    103.8915

 - Thermochemistry -
 -------------------
 Temperature   298.150 Kelvin.  Pressure   1.00000 Atm.
 Atom     1 has atomic number  1 and mass   1.00783

 Molecular mass:    21.01405 amu.
 Principal axes and moments of inertia in atomic units:
                           1         2         3
     Eigenvalues --     0.00000  73.07001  73.07001
           X            1.00000  -0.00000   0.00000
           Y            0.00000   1.00000   0.00000
           Z            0.00000   0.00000   1.00000
 This molecule is a prolate symmetric top.
 Rotational symmetry number  1.
 Rotational temperature (Kelvin)      1.18536
 Rotational constant (GHZ):          24.698796
    3 imaginary frequencies ignored.
 Zero-point vibrational energy      54270.0 (Joules/Mol)
                                   12.97085 (Kcal/Mol)
 Vibrational temperatures:  13054.37
          (Kelvin)

 Zero-point correction=                           0.020670 (Hartree/Particle)
 Thermal correction to Energy=                    0.023031
 Thermal correction to Enthalpy=                  0.023975
 Thermal correction to Gibbs Free Energy=         0.000495
 Sum of electronic and zero-point Energies=           -100.854074
 Sum of electronic and thermal Energies=              -100.851713
 Sum of electronic and thermal Enthalpies=            -100.850769
 Sum of electronic and thermal Free Energies=         -100.874249

                     E (Thermal)             CV                S
                      KCal/Mol        Cal/Mol-Kelvin    Cal/Mol-Kelvin
 Total                   14.452              4.968             49.417
 Electronic               0.000              0.000              1.377
 Translational            0.889              2.981             35.068
 Rotational               0.592              1.987             12.972
 Vibrational             12.971              0.000              0.000

 Normal termination of Gaussian 16 at Fri Aug 22 15:47:37 2025.
