 Gaussian 16, Revision C.01,
 Gaussian 16:  ES64L-G16RevC.01  3-Jul-2019

 -----------------------------------------
 # sp b3lyp/6-311g** Force nosymm scf=(qc)
 -----------------------------------------

 -------------------
 Title Card Required
 -------------------
 Symbolic Z-matrix:
 Charge =  0 Multiplicity = 2

                          Input orientation:
 ---------------------------------------------------------------------
 Center     Atomic      Atomic             Coordinates (Angstroms)
 Number     Number       Type             X           Y           Z
 ---------------------------------------------------------------------
      1          1           0        0.000000    0.000000    0.000000
      2          1           0       -1.450000    0.000000    0.000000
      3          9           0        1.950000    0.000000    0.000000
 ---------------------------------------------------------------------

 SCF Done:  E(UB3LYP) =  -100.843515937     a.u. after   14 cycles

 Alpha  occ. eigenvalues --  -24.69699  -1.16080  -0.49332  -0.41062  -0.41062
 Alpha  occ. eigenvalues --   -0.38294
 Alpha virt. eigenvalues --   -0.09584   0.22140   0.31180   0.86136   0.93621
 Alpha virt. eigenvalues --    0.93621   1.03226   1.15298   1.15298   1.32133
 Alpha virt. eigenvalues --    1.40524   1.40524   1.87379   2.21250   2.45831

  Beta  occ. eigenvalues --  -24.67151  -1.08926  -0.38544  -0.38544  -0.37914
  Beta virt. eigenvalues --   -0.23609  -0.07728   0.24104   0.31207   0.90433
  Beta virt. eigenvalues --    0.94581   0.94581   1.07229   1.17463   1.17463
  Beta virt. eigenvalues --    1.36492   1.41454   1.41454   1.89308   2.22249

 Mulliken charges and spin densities:
               1          2
     1  H    0.089690  -0.311328
     2  H    0.064108   0.512301
     3  F   -0.153798   0.799027
 Sum of Mulliken charges =   0.00000   1.00000

 Dipole moment (field-independent basis, Debye):
    X=             -1.9247    Y=              0.0000    Z=             -0.0000  Tot=              1.9247
 Quadrupole moment (field-independent basis, Debye-Ang):
   XX=             -7.6314   YY=             -7.4898   ZZ=             -7.4898
   XY=              0.0000   XZ=             -0.0000   YZ=             -0.0000

  Exact polarizability:      49.939       0.000       2.140      -0.000      -0.000       2.140
 Approx polarizability:      77.018      -0.000       2.096       0.000       0.000       2.096

 ******    2 imaginary frequencies (negative Signs) ******

                      1                      2                      3
                      A                      A                      A
 Frequencies --  -2180.9820              -461.0674              1128.3161
 Red. masses --      1.0129                 1.1025                 1.0148
 Frc consts  --      2.8386                 0.1381                 0.7612
 IR Inten    --    904.6767                 9.7359                 1.9740

                      4
                      A
 Frequencies --   1128.3161
 Red. masses --      1.0148
 Frc consts  --      0.7612
 IR Inten    --      1.9740

 - Thermochemistry -
 -------------------
 Temperature   298.150 Kelvin.  Pressure   1.00000 Atm.
 Atom     1 has atomic number  1 and mass   1.00783

 Molecular mass:    21.01405 amu.
 Principal axes and moments of inertia in atomic units:
                           1         2         3
     Eigenvalues --     0.00000  50.34933  50.34933
           X            1.00000  -0.00000   0.00000
           Y            0.00000   1.00000   0.00000
           Z            0.00000   0.00000   1.00000
 This molecule is a prolate symmetric top.
 Rotational symmetry number  1.
 Rotational temperature (Kelvin)      1.72026
 Rotational constant (GHZ):          35.844396
    2 imaginary frequencies ignored.
 Zero-point vibrational energy      13497.7 (Joules/Mol)
                                    3.22602 (Kcal/Mol)
 Vibrational temperatures:   1623.40  1623.40
          (Kelvin)

 Zero-point correction=                           0.005141 (Hartree/Particle)
 Thermal correction to Energy=                    0.007546
 Thermal correction to Enthalpy=                  0.008490
 Thermal correction to Gibbs Free Energy=        -0.014691
 Sum of electronic and zero-point Energies=           -100.838375
 Sum of electronic and thermal Energies=              -100.835970
 Sum of electronic and thermal Enthalpies=            -100.835026
 Sum of electronic and thermal Free Energies=         -100.858206

                     E (Thermal)             CV                S
                      KCal/Mol        Cal/Mol-Kelvin    Cal/Mol-Kelvin
 Total                    4.735              5.481             48.788
 Electronic               0.000              0.000              1.377
 Translational            0.889              2.981             35.068
 Rotational               0.592              1.987             12.231
 Vibrational              3.254              0.513              0.111

 Normal termination of Gaussian 16 at Fri Aug 22 16:52:48 2025.
