 Gaussian 16, Revision C.01,
 Gaussian 16:  ES64L-G16RevC.01  3-Jul-2019

 -----------------------------------------
 # sp b3lyp/6-311g** Force nosymm scf=(qc)
 -----------------------------------------

 -------------------
 Title Card Required
 -------------------
 Symbolic Z-matrix:
 Charge =  0 Multiplicity = 2

                          Input orientation:
 ---------------------------------------------------------------------
 Center     Atomic      Atomic             Coordinates (Angstroms)
 Number     Number       Type             X           Y           Z
 ---------------------------------------------------------------------
      1          1           0        0.000000    0.000000    0.000000
      2          1           0       -3.300000    0.000000    0.000000
      3          9           0        2.500000    0.000000    0.000000
 ---------------------------------------------------------------------

 SCF Done:  E(UB3LYP) =  -100.767712894     a.u. after   24 cycles

 Alpha  occ. eigenvalues --  -24.71740  -1.17956  -0.50842  -0.42711  -0.42711
 Alpha  occ. eigenvalues --   -0.33000
 Alpha virt. eigenvalues --   -0.10452   0.23661   0.35047   0.89716   0.93614
 Alpha virt. eigenvalues --    0.93614   1.06327   1.24519   1.24519   1.24871
 Alpha virt. eigenvalues --    1.40544   1.40544   1.44604   2.14730   2.35909

  Beta  occ. eigenvalues --  -24.68898  -1.09868  -0.39879  -0.39879  -0.35360
  Beta virt. eigenvalues --   -0.23343  -0.07141   0.24157   0.37546   0.94977
  Beta virt. eigenvalues --    0.94977   0.96119   1.08698   1.22107   1.22107
  Beta virt. eigenvalues --    1.29702   1.45277   1.45510   1.45510   2.13233

 Mulliken charges and spin densities:
               1          2
     1  H    0.088836  -0.894416
     2  H    0.001488   0.996553
     3  F   -0.090325   0.897862
 Sum of Mulliken charges =  -0.00000   1.00000

 Dipole moment (field-independent basis, Debye):
    X=             -1.1723    Y=              0.0000    Z=             -0.0000  Tot=              1.1723
 Quadrupole moment (field-independent basis, Debye-Ang):
   XX=             -9.2571   YY=             -7.5748   ZZ=             -7.5748
   XY=              0.0000   XZ=             -0.0000   YZ=              0.0000

  Exact polarizability:      31.902       0.000       2.025      -0.000       0.000       2.025
 Approx polarizability:      39.566       0.000       1.920      -0.000      -0.000       1.920

 ******    2 imaginary frequencies (negative Signs) ******

                      1                      2                      3
                      A                      A                      A
 Frequencies --   -627.5529              -152.1342               245.3085
 Red. masses --      1.0516                 1.0599                 1.0216
 Frc consts  --      0.2440                 0.0145                 0.0362
 IR Inten    --     79.4486                 0.7617                 7.4218

                      4
                      A
 Frequencies --    245.3085
 Red. masses --      1.0216
 Frc consts  --      0.0362
 IR Inten    --      7.4218

 - Thermochemistry -
 -------------------
 Temperature   298.150 Kelvin.  Pressure   1.00000 Atm.
 Atom     1 has atomic number  1 and mass   1.00783

 Molecular mass:    21.01405 amu.
 Principal axes and moments of inertia in atomic units:
                           1         2         3
     Eigenvalues --     0.00000 131.67356 131.67356
           X            1.00000  -0.00000   0.00000
           Y            0.00000   1.00000   0.00000
           Z            0.00000   0.00000   1.00000
 This molecule is a prolate symmetric top.
 Rotational symmetry number  1.
 Rotational temperature (Kelvin)      0.65779
 Rotational constant (GHZ):          13.706178
    2 imaginary frequencies ignored.
 Zero-point vibrational energy       2934.5 (Joules/Mol)
                                    0.70137 (Kcal/Mol)
 Warning -- explicit consideration of   2 degrees of freedom as
           vibrations may cause significant error
 Vibrational temperatures:    352.94   352.94
          (Kelvin)

 Zero-point correction=                           0.001118 (Hartree/Particle)
 Thermal correction to Energy=                    0.004464
 Thermal correction to Enthalpy=                  0.005409
 Thermal correction to Gibbs Free Energy=        -0.020303
 Sum of electronic and zero-point Energies=           -100.766595
 Sum of electronic and thermal Energies=              -100.763249
 Sum of electronic and thermal Enthalpies=            -100.762304
 Sum of electronic and thermal Free Energies=         -100.788016

                     E (Thermal)             CV                S
                      KCal/Mol        Cal/Mol-Kelvin    Cal/Mol-Kelvin
 Total                    2.801              8.509             54.115
 Electronic               0.000              0.000              1.377
 Translational            0.889              2.981             35.068
 Rotational               0.592              1.987             14.142
 Vibrational              1.320              3.541              3.528
 Vibration     1          0.660              1.771              1.764
 Vibration     2          0.660              1.771              1.764

 Normal termination of Gaussian 16 at Fri Aug 22 17:46:03 2025.
