 Gaussian 16, Revision C.01,
 Gaussian 16:  ES64L-G16RevC.01  3-Jul-2019

 -----------------------------------------
 # sp b3lyp/6-311g** Force nosymm scf=(qc)
 -----------------------------------------

 -------------------
 Title Card Required
 -------------------
 Symbolic Z-matrix:
 Charge =  0 Multiplicity = 2

                          Input orientation:
 ---------------------------------------------------------------------
 Center     Atomic      Atomic             Coordinates (Angstroms)
 Number     Number       Type             X           Y           Z
 ---------------------------------------------------------------------
      1          1           0        0.000000    0.000000    0.000000
      2          1           0       -1.250000    0.000000    0.000000
      3          9           0        0.850000    0.000000    0.000000
 ---------------------------------------------------------------------

 SCF Done:  E(UB3LYP) =  -100.956799470     a.u. after    6 cycles

 Alpha  occ. eigenvalues --  -24.63846  -1.21380  -0.57558  -0.40243  -0.40243
 Alpha  occ. eigenvalues --   -0.36430
 Alpha virt. eigenvalues --    0.13456   0.19912   0.46691   0.92961   0.92961
 Alpha virt. eigenvalues --    0.96686   1.11220   1.11220   1.37583   1.51221
 Alpha virt. eigenvalues --    1.51221   1.58975   2.10351   2.24604   2.96896

  Beta  occ. eigenvalues --  -24.63491  -1.20455  -0.55188  -0.39940  -0.39940
  Beta virt. eigenvalues --   -0.15383   0.14914   0.25411   0.51743   0.93634
  Beta virt. eigenvalues --    0.93634   0.97407   1.20095   1.20095   1.41829
  Beta virt. eigenvalues --    1.56990   1.56990   1.66588   2.12361   2.41046

 Mulliken charges and spin densities:
               1          2
     1  H    0.265056   0.003814
     2  H    0.018315   0.917280
     3  F   -0.283371   0.078907
 Sum of Mulliken charges =   0.00000   1.00000

 Dipole moment (field-independent basis, Debye):
    X=             -1.8784    Y=              0.0000    Z=              0.0000  Tot=              1.8784
 Quadrupole moment (field-independent basis, Debye-Ang):
   XX=             -7.4509   YY=             -6.6578   ZZ=             -6.6578
   XY=              0.0000   XZ=              0.0000   YZ=             -0.0000

  Exact polarizability:      10.365       0.000       2.573       0.000      -0.000       2.573
 Approx polarizability:      10.721      -0.000       2.593       0.000      -0.000       2.593

 ******    2 imaginary frequencies (negative Signs) ******

                      1                      2                      3
                      A                      A                      A
 Frequencies --  -1451.3748             -1451.3748              1046.1414
 Red. masses --      1.0232                 1.0232                 1.0525
 Frc consts  --      1.2699                 1.2699                 0.6787
 IR Inten    --    106.2389               106.2389                14.4792

                      4
                      A
 Frequencies --   5135.4841
 Red. masses --      1.0590
 Frc consts  --     16.4561
 IR Inten    --    142.3915

 - Thermochemistry -
 -------------------
 Temperature   298.150 Kelvin.  Pressure   1.00000 Atm.
 Atom     1 has atomic number  1 and mass   1.00783

 Molecular mass:    21.01405 amu.
 Principal axes and moments of inertia in atomic units:
                           1         2         3
     Eigenvalues --     0.00000  16.96980  16.96980
           X            1.00000  -0.00000   0.00000
           Y            0.00000   1.00000   0.00000
           Z            0.00000   0.00000   1.00000
 This molecule is a prolate symmetric top.
 Rotational symmetry number  1.
 Rotational temperature (Kelvin)      5.10400
 Rotational constant (GHZ):         106.350177
    2 imaginary frequencies ignored.
 Zero-point vibrational energy      36974.3 (Joules/Mol)
                                    8.83708 (Kcal/Mol)
 Vibrational temperatures:   1505.16  7388.82
          (Kelvin)

 Zero-point correction=                           0.014083 (Hartree/Particle)
 Thermal correction to Energy=                    0.016474
 Thermal correction to Enthalpy=                  0.017418
 Thermal correction to Gibbs Free Energy=        -0.004720
 Sum of electronic and zero-point Energies=           -100.942717
 Sum of electronic and thermal Energies=              -100.940325
 Sum of electronic and thermal Enthalpies=            -100.939381
 Sum of electronic and thermal Free Energies=         -100.961519

                     E (Thermal)             CV                S
                      KCal/Mol        Cal/Mol-Kelvin    Cal/Mol-Kelvin
 Total                   10.338              5.297             46.593
 Electronic               0.000              0.000              1.377
 Translational            0.889              2.981             35.068
 Rotational               0.592              1.987             10.070
 Vibrational              8.856              0.329              0.078

 Normal termination of Gaussian 16 at Fri Aug 22 15:52:56 2025.
