 Gaussian 16, Revision C.01,
 Gaussian 16:  ES64L-G16RevC.01  3-Jul-2019

 -----------------------------------------
 # sp b3lyp/6-311g** Force nosymm scf=(qc)
 -----------------------------------------

 -------------------
 Title Card Required
 -------------------
 Symbolic Z-matrix:
 Charge =  0 Multiplicity = 2

                          Input orientation:
 ---------------------------------------------------------------------
 Center     Atomic      Atomic             Coordinates (Angstroms)
 Number     Number       Type             X           Y           Z
 ---------------------------------------------------------------------
      1          1           0        0.000000    0.000000    0.000000
      2          1           0       -1.850000    0.000000    0.000000
      3          9           0        2.600000    0.000000    0.000000
 ---------------------------------------------------------------------

 SCF Done:  E(UB3LYP) =  -100.787972939     a.u. after   23 cycles

 Alpha  occ. eigenvalues --  -24.72689  -1.18837  -0.51810  -0.43497  -0.43497
 Alpha  occ. eigenvalues --   -0.34861
 Alpha virt. eigenvalues --   -0.12469   0.24779   0.31388   0.90011   0.93092
 Alpha virt. eigenvalues --    0.93092   1.04861   1.14740   1.22887   1.22887
 Alpha virt. eigenvalues --    1.35284   1.35284   1.56376   2.12259   2.37750

  Beta  occ. eigenvalues --  -24.69775  -1.10520  -0.40588  -0.40588  -0.34839
  Beta virt. eigenvalues --   -0.24154  -0.11736   0.26388   0.31135   0.94499
  Beta virt. eigenvalues --    0.94499   0.97287   1.07615   1.17323   1.23015
  Beta virt. eigenvalues --    1.23015   1.36314   1.36314   1.57077   2.13235

 Mulliken charges and spin densities:
               1          2
     1  H    0.036860  -0.706917
     2  H    0.030728   0.785252
     3  F   -0.067588   0.921665
 Sum of Mulliken charges =   0.00000   1.00000

 Dipole moment (field-independent basis, Debye):
    X=             -1.1687    Y=              0.0000    Z=             -0.0000  Tot=              1.1687
 Quadrupole moment (field-independent basis, Debye-Ang):
   XX=             -7.7084   YY=             -7.6909   ZZ=             -7.6909
   XY=              0.0000   XZ=             -0.0000   YZ=              0.0000

  Exact polarizability:      62.872       0.000       2.009      -0.000       0.000       2.009
 Approx polarizability:      70.156       0.000       1.944      -0.000       0.000       1.944

 ******    2 imaginary frequencies (negative Signs) ******

                      1                      2                      3
                      A                      A                      A
 Frequencies --  -1656.5961              -349.4286               700.5085
 Red. masses --      1.0084                 1.1079                 1.0143
 Frc consts  --      1.6304                 0.0797                 0.2933
 IR Inten    --    119.4591                47.9665                 0.4800

                      4
                      A
 Frequencies --    700.5085
 Red. masses --      1.0143
 Frc consts  --      0.2933
 IR Inten    --      0.4800

 - Thermochemistry -
 -------------------
 Temperature   298.150 Kelvin.  Pressure   1.00000 Atm.
 Atom     1 has atomic number  1 and mass   1.00783

 Molecular mass:    21.01405 amu.
 Principal axes and moments of inertia in atomic units:
                           1         2         3
     Eigenvalues --     0.00000  87.01967  87.01967
           X            1.00000  -0.00000   0.00000
           Y            0.00000   1.00000   0.00000
           Z            0.00000   0.00000   1.00000
 This molecule is a prolate symmetric top.
 Rotational symmetry number  1.
 Rotational temperature (Kelvin)      0.99534
 Rotational constant (GHZ):          20.739463
    2 imaginary frequencies ignored.
 Zero-point vibrational energy       8379.9 (Joules/Mol)
                                    2.00285 (Kcal/Mol)
 Vibrational temperatures:   1007.88  1007.88
          (Kelvin)

 Zero-point correction=                           0.003192 (Hartree/Particle)
 Thermal correction to Energy=                    0.005777
 Thermal correction to Enthalpy=                  0.006721
 Thermal correction to Gibbs Free Energy=        -0.017214
 Sum of electronic and zero-point Energies=           -100.784781
 Sum of electronic and thermal Energies=              -100.782196
 Sum of electronic and thermal Enthalpies=            -100.781252
 Sum of electronic and thermal Free Energies=         -100.805187

                     E (Thermal)             CV                S
                      KCal/Mol        Cal/Mol-Kelvin    Cal/Mol-Kelvin
 Total                    3.625              6.625             50.375
 Electronic               0.000              0.000              1.377
 Translational            0.889              2.981             35.068
 Rotational               0.592              1.987             13.319
 Vibrational              2.144              1.656              0.611

 Normal termination of Gaussian 16 at Fri Aug 22 18:03:33 2025.
