 Gaussian 16, Revision C.01,
 Gaussian 16:  ES64L-G16RevC.01  3-Jul-2019

 -----------------------------------------
 # sp b3lyp/6-311g** Force nosymm scf=(qc)
 -----------------------------------------

 -------------------
 Title Card Required
 -------------------
 Symbolic Z-matrix:
 Charge =  0 Multiplicity = 2

                          Input orientation:
 ---------------------------------------------------------------------
 Center     Atomic      Atomic             Coordinates (Angstroms)
 Number     Number       Type             X           Y           Z
 ---------------------------------------------------------------------
      1          1           0        0.000000    0.000000    0.000000
      2          1           0       -1.650000    0.000000    0.000000
      3          9           0        2.200000    0.000000    0.000000
 ---------------------------------------------------------------------

 SCF Done:  E(UB3LYP) =  -100.812348613     a.u. after   14 cycles

 Alpha  occ. eigenvalues --  -24.70616  -1.16896  -0.49826  -0.41773  -0.41773
 Alpha  occ. eigenvalues --   -0.36691
 Alpha virt. eigenvalues --   -0.12093   0.23423   0.31181   0.86025   0.93984
 Alpha virt. eigenvalues --    0.93984   1.02787   1.19644   1.19644   1.22237
 Alpha virt. eigenvalues --    1.35828   1.35828   1.69823   2.15470   2.40466

  Beta  occ. eigenvalues --  -24.67912  -1.09244  -0.39087  -0.39087  -0.36331
  Beta virt. eigenvalues --   -0.23430  -0.11015   0.25636   0.30656   0.90325
  Beta virt. eigenvalues --    0.95183   0.95183   1.06705   1.20907   1.20907
  Beta virt. eigenvalues --    1.26702   1.36585   1.36585   1.70604   2.16368

 Mulliken charges and spin densities:
               1          2
     1  H    0.067739  -0.503122
     2  H    0.052520   0.651257
     3  F   -0.120259   0.851865
 Sum of Mulliken charges =  -0.00000   1.00000

 Dipole moment (field-independent basis, Debye):
    X=             -1.7449    Y=             -0.0000    Z=              0.0000  Tot=              1.7449
 Quadrupole moment (field-independent basis, Debye-Ang):
   XX=             -7.8074   YY=             -7.6147   ZZ=             -7.6147
   XY=             -0.0000   XZ=              0.0000   YZ=              0.0000

  Exact polarizability:      58.079      -0.000       2.055       0.000      -0.000       2.055
 Approx polarizability:      80.152       0.000       1.999      -0.000       0.000       1.999

 ******    2 imaginary frequencies (negative Signs) ******

                      1                      2                      3
                      A                      A                      A
 Frequencies --  -2010.2455              -465.1103               922.5289
 Red. masses --      1.0098                 1.1061                 1.0148
 Frc consts  --      2.4042                 0.1410                 0.5089
 IR Inten    --    399.2263                40.6399                 1.4098

                      4
                      A
 Frequencies --    922.5289
 Red. masses --      1.0148
 Frc consts  --      0.5089
 IR Inten    --      1.4098

 - Thermochemistry -
 -------------------
 Temperature   298.150 Kelvin.  Pressure   1.00000 Atm.
 Atom     1 has atomic number  1 and mass   1.00783

 Molecular mass:    21.01405 amu.
 Principal axes and moments of inertia in atomic units:
                           1         2         3
     Eigenvalues --     0.00000  64.44766  64.44766
           X            1.00000  -0.00000   0.00000
           Y            0.00000   1.00000   0.00000
           Z            0.00000   0.00000   1.00000
 This molecule is a prolate symmetric top.
 Rotational symmetry number  1.
 Rotational temperature (Kelvin)      1.34394
 Rotational constant (GHZ):          28.003207
    2 imaginary frequencies ignored.
 Zero-point vibrational energy      11035.9 (Joules/Mol)
                                    2.63764 (Kcal/Mol)
 Vibrational temperatures:   1327.31  1327.31
          (Kelvin)

 Zero-point correction=                           0.004203 (Hartree/Particle)
 Thermal correction to Energy=                    0.006663
 Thermal correction to Enthalpy=                  0.007607
 Thermal correction to Gibbs Free Energy=        -0.015875
 Sum of electronic and zero-point Energies=           -100.808145
 Sum of electronic and thermal Energies=              -100.805686
 Sum of electronic and thermal Enthalpies=            -100.804741
 Sum of electronic and thermal Free Energies=         -100.828224

                     E (Thermal)             CV                S
                      KCal/Mol        Cal/Mol-Kelvin    Cal/Mol-Kelvin
 Total                    4.181              5.908             49.423
 Electronic               0.000              0.000              1.377
 Translational            0.889              2.981             35.068
 Rotational               0.592              1.987             12.722
 Vibrational              2.700              0.940              0.255

 Normal termination of Gaussian 16 at Fri Aug 22 17:11:20 2025.
