 Gaussian 16, Revision C.01,
 Gaussian 16:  ES64L-G16RevC.01  3-Jul-2019

 -----------------------------------------
 # sp b3lyp/6-311g** Force nosymm scf=(qc)
 -----------------------------------------

 -------------------
 Title Card Required
 -------------------
 Symbolic Z-matrix:
 Charge =  0 Multiplicity = 2

                          Input orientation:
 ---------------------------------------------------------------------
 Center     Atomic      Atomic             Coordinates (Angstroms)
 Number     Number       Type             X           Y           Z
 ---------------------------------------------------------------------
      1          1           0        0.000000    0.000000    0.000000
      2          1           0       -1.900000    0.000000    0.000000
      3          9           0        3.300000    0.000000    0.000000
 ---------------------------------------------------------------------

 SCF Done:  E(UB3LYP) =  -100.780020852     a.u. after   30 cycles

 Alpha  occ. eigenvalues --  -24.75296  -1.21265  -0.54418  -0.45695  -0.45695
 Alpha  occ. eigenvalues --   -0.33406
 Alpha virt. eigenvalues --   -0.11354   0.25685   0.31449   0.88350   0.91520
 Alpha virt. eigenvalues --    0.91520   1.02369   1.13045   1.24507   1.24507
 Alpha virt. eigenvalues --    1.37102   1.37102   1.55445   2.13302   2.37897

  Beta  occ. eigenvalues --  -24.72195  -1.12358  -0.42588  -0.42588  -0.33439
  Beta virt. eigenvalues --   -0.25511  -0.11070   0.25734   0.31909   0.93004
  Beta virt. eigenvalues --    0.93004   0.97384   1.06369   1.13083   1.24452
  Beta virt. eigenvalues --    1.24452   1.37481   1.37481   1.55753   2.14083

 Mulliken charges and spin densities:
               1          2
     1  H    0.004677  -0.787246
     2  H    0.009883   0.804183
     3  F   -0.014560   0.983064
 Sum of Mulliken charges =   0.00000   1.00000

 Dipole moment (field-independent basis, Debye):
    X=             -0.3351    Y=             -0.0000    Z=             -0.0000  Tot=              0.3351
 Quadrupole moment (field-independent basis, Debye-Ang):
   XX=             -6.6807   YY=             -7.7367   ZZ=             -7.7367
   XY=             -0.0000   XZ=             -0.0000   YZ=             -0.0000

  Exact polarizability:      51.579      -0.000       2.016      -0.000       0.000       2.016
 Approx polarizability:      48.120      -0.000       1.944      -0.000       0.000       1.944

 ******    2 imaginary frequencies (negative Signs) ******

                      1                      2                      3
                      A                      A                      A
 Frequencies --  -1545.3346              -169.4001               650.5872
 Red. masses --      1.0079                 1.1085                 1.0126
 Frc consts  --      1.4181                 0.0187                 0.2525
 IR Inten    --     25.7347                13.2706                 0.0004

                      4
                      A
 Frequencies --    650.5872
 Red. masses --      1.0126
 Frc consts  --      0.2525
 IR Inten    --      0.0004

 - Thermochemistry -
 -------------------
 Temperature   298.150 Kelvin.  Pressure   1.00000 Atm.
 Atom     1 has atomic number  1 and mass   1.00783

 Molecular mass:    21.01405 amu.
 Principal axes and moments of inertia in atomic units:
                           1         2         3
     Eigenvalues --     0.00000 124.03954 124.03954
           X            1.00000  -0.00000   0.00000
           Y            0.00000   1.00000   0.00000
           Z            0.00000   0.00000   1.00000
 This molecule is a prolate symmetric top.
 Rotational symmetry number  1.
 Rotational temperature (Kelvin)      0.69828
 Rotational constant (GHZ):          14.549725
    2 imaginary frequencies ignored.
 Zero-point vibrational energy       7782.8 (Joules/Mol)
                                    1.86012 (Kcal/Mol)
 Vibrational temperatures:    936.05   936.05
          (Kelvin)

 Zero-point correction=                           0.002964 (Hartree/Particle)
 Thermal correction to Energy=                    0.005593
 Thermal correction to Enthalpy=                  0.006537
 Thermal correction to Gibbs Free Energy=        -0.017794
 Sum of electronic and zero-point Energies=           -100.777057
 Sum of electronic and thermal Energies=              -100.774428
 Sum of electronic and thermal Enthalpies=            -100.773484
 Sum of electronic and thermal Free Energies=         -100.797815

                     E (Thermal)             CV                S
                      KCal/Mol        Cal/Mol-Kelvin    Cal/Mol-Kelvin
 Total                    3.510              6.821             51.209
 Electronic               0.000              0.000              1.377
 Translational            0.889              2.981             35.068
 Rotational               0.592              1.987             14.023
 Vibrational              2.029              1.853              0.741

 Normal termination of Gaussian 16 at Fri Aug 22 20:48:00 2025.
