 Gaussian 16, Revision C.01,
 Gaussian 16:  ES64L-G16RevC.01  3-Jul-2019

 -----------------------------------------
 # sp b3lyp/6-311g** Force nosymm scf=(qc)
 -----------------------------------------

 -------------------
 Title Card Required
 -------------------
 Symbolic Z-matrix:
 Charge =  0 Multiplicity = 2

                          Input orientation:
 ---------------------------------------------------------------------
 Center     Atomic      Atomic             Coordinates (Angstroms)
 Number     Number       Type             X           Y           Z
 ---------------------------------------------------------------------
      1          1           0        0.000000    0.000000    0.000000
      2          1           0       -3.000000    0.000000    0.000000
      3          9           0        2.750000    0.000000    0.000000
 ---------------------------------------------------------------------

 SCF Done:  E(UB3LYP) =  -100.764221946     a.u. after   20 cycles

 Alpha  occ. eigenvalues --  -24.73069  -1.19199  -0.52183  -0.43822  -0.43822
 Alpha  occ. eigenvalues --   -0.32929
 Alpha virt. eigenvalues --   -0.09849   0.24423   0.34812   0.90058   0.92877
 Alpha virt. eigenvalues --    0.92877   1.05439   1.24611   1.24611   1.25484
 Alpha virt. eigenvalues --    1.41512   1.41512   1.42699   2.15297   2.37372

  Beta  occ. eigenvalues --  -24.70117  -1.10761  -0.40872  -0.40872  -0.34458
  Beta virt. eigenvalues --   -0.24183  -0.07742   0.24743   0.36680   0.94310
  Beta virt. eigenvalues --    0.94310   0.98195   1.08844   1.22903   1.22903
  Beta virt. eigenvalues --    1.25342   1.44577   1.44589   1.44589   2.15153

 Mulliken charges and spin densities:
               1          2
     1  H    0.056547  -0.927210
     2  H    0.002324   0.992625
     3  F   -0.058871   0.934585
 Sum of Mulliken charges =  -0.00000   1.00000

 Dipole moment (field-independent basis, Debye):
    X=             -0.8625    Y=              0.0000    Z=             -0.0000  Tot=              0.8625
 Quadrupole moment (field-independent basis, Debye-Ang):
   XX=             -8.6908   YY=             -7.6071   ZZ=             -7.6071
   XY=              0.0000   XZ=             -0.0000   YZ=              0.0000

  Exact polarizability:      35.569       0.000       2.020      -0.000       0.000       2.020
 Approx polarizability:      38.892       0.000       1.921      -0.000      -0.000       1.921

 ******    2 imaginary frequencies (negative Signs) ******

                      1                      2                      3
                      A                      A                      A
 Frequencies --   -529.5337              -204.1557               199.7883
 Red. masses --      1.0362                 1.0761                 1.0190
 Frc consts  --      0.1712                 0.0264                 0.0240
 IR Inten    --     54.5606                 4.3722                 2.8929

                      4
                      A
 Frequencies --    199.7883
 Red. masses --      1.0190
 Frc consts  --      0.0240
 IR Inten    --      2.8929

 - Thermochemistry -
 -------------------
 Temperature   298.150 Kelvin.  Pressure   1.00000 Atm.
 Atom     1 has atomic number  1 and mass   1.00783

 Molecular mass:    21.01405 amu.
 Principal axes and moments of inertia in atomic units:
                           1         2         3
     Eigenvalues --     0.00000 133.73887 133.73887
           X            1.00000  -0.00000   0.00000
           Y            0.00000   1.00000   0.00000
           Z            0.00000   0.00000   1.00000
 This molecule is a prolate symmetric top.
 Rotational symmetry number  1.
 Rotational temperature (Kelvin)      0.64763
 Rotational constant (GHZ):          13.494515
    2 imaginary frequencies ignored.
 Zero-point vibrational energy       2390.0 (Joules/Mol)
                                    0.57122 (Kcal/Mol)
 Warning -- explicit consideration of   2 degrees of freedom as
           vibrations may cause significant error
 Vibrational temperatures:    287.45   287.45
          (Kelvin)

 Zero-point correction=                           0.000910 (Hartree/Particle)
 Thermal correction to Energy=                    0.004393
 Thermal correction to Enthalpy=                  0.005337
 Thermal correction to Gibbs Free Energy=        -0.020742
 Sum of electronic and zero-point Energies=           -100.763312
 Sum of electronic and thermal Energies=              -100.759829
 Sum of electronic and thermal Enthalpies=            -100.758885
 Sum of electronic and thermal Free Energies=         -100.784964

                     E (Thermal)             CV                S
                      KCal/Mol        Cal/Mol-Kelvin    Cal/Mol-Kelvin
 Total                    2.757              8.648             54.888
 Electronic               0.000              0.000              1.377
 Translational            0.889              2.981             35.068
 Rotational               0.592              1.987             14.173
 Vibrational              1.275              3.680              4.270
 Vibration     1          0.638              1.840              2.135
 Vibration     2          0.638              1.840              2.135

 Normal termination of Gaussian 16 at Fri Aug 22 18:34:40 2025.
