 Gaussian 16, Revision C.01,
 Gaussian 16:  ES64L-G16RevC.01  3-Jul-2019

 -----------------------------------------
 # sp b3lyp/6-311g** Force nosymm scf=(qc)
 -----------------------------------------

 -------------------
 Title Card Required
 -------------------
 Symbolic Z-matrix:
 Charge =  0 Multiplicity = 2

                          Input orientation:
 ---------------------------------------------------------------------
 Center     Atomic      Atomic             Coordinates (Angstroms)
 Number     Number       Type             X           Y           Z
 ---------------------------------------------------------------------
      1          1           0        0.000000    0.000000    0.000000
      2          1           0       -2.200000    0.000000    0.000000
      3          9           0        2.300000    0.000000    0.000000
 ---------------------------------------------------------------------

 SCF Done:  E(UB3LYP) =  -100.781037753     a.u. after   19 cycles

 Alpha  occ. eigenvalues --  -24.70437  -1.16707  -0.49517  -0.41600  -0.41600
 Alpha  occ. eigenvalues --   -0.34882
 Alpha virt. eigenvalues --   -0.13090   0.24638   0.32196   0.89276   0.94284
 Alpha virt. eigenvalues --    0.94284   1.06300   1.22943   1.22943   1.26942
 Alpha virt. eigenvalues --    1.35388   1.35388   1.47398   2.12091   2.31603

  Beta  occ. eigenvalues --  -24.67723  -1.09022  -0.38903  -0.38903  -0.36016
  Beta virt. eigenvalues --   -0.22612  -0.11033   0.26315   0.33117   0.94458
  Beta virt. eigenvalues --    0.95516   0.95516   1.09018   1.22268   1.22268
  Beta virt. eigenvalues --    1.35422   1.38660   1.38660   1.44593   2.12187

 Mulliken charges and spin densities:
               1          2
     1  H    0.095449  -0.785961
     2  H    0.025583   0.930293
     3  F   -0.121032   0.855668
 Sum of Mulliken charges =  -0.00000   1.00000

 Dipole moment (field-independent basis, Debye):
    X=             -1.6747    Y=              0.0000    Z=             -0.0000  Tot=              1.6747
 Quadrupole moment (field-independent basis, Debye-Ang):
   XX=             -8.7451   YY=             -7.6072   ZZ=             -7.6072
   XY=             -0.0000   XZ=              0.0000   YZ=              0.0000

  Exact polarizability:      50.460      -0.000       2.021       0.000      -0.000       2.021
 Approx polarizability:      55.081       0.000       1.927      -0.000      -0.000       1.927

 ******    2 imaginary frequencies (negative Signs) ******

                      1                      2                      3
                      A                      A                      A
 Frequencies --  -1155.6436              -446.3945               468.9355
 Red. masses --      1.0155                 1.0993                 1.0174
 Frc consts  --      0.7991                 0.1291                 0.1318
 IR Inten    --     61.6508                43.3569                 6.4098

                      4
                      A
 Frequencies --    468.9355
 Red. masses --      1.0174
 Frc consts  --      0.1318
 IR Inten    --      6.4098

 - Thermochemistry -
 -------------------
 Temperature   298.150 Kelvin.  Pressure   1.00000 Atm.
 Atom     1 has atomic number  1 and mass   1.00783

 Molecular mass:    21.01405 amu.
 Principal axes and moments of inertia in atomic units:
                           1         2         3
     Eigenvalues --     0.00000  83.93733  83.93733
           X            1.00000  -0.00000   0.00000
           Y            0.00000   1.00000   0.00000
           Z            0.00000   0.00000   1.00000
 This molecule is a prolate symmetric top.
 Rotational symmetry number  1.
 Rotational temperature (Kelvin)      1.03189
 Rotational constant (GHZ):          21.501055
    2 imaginary frequencies ignored.
 Zero-point vibrational energy       5609.7 (Joules/Mol)
                                    1.34075 (Kcal/Mol)
 Warning -- explicit consideration of   2 degrees of freedom as
           vibrations may cause significant error
 Vibrational temperatures:    674.69   674.69
          (Kelvin)

 Zero-point correction=                           0.002137 (Hartree/Particle)
 Thermal correction to Energy=                    0.004993
 Thermal correction to Enthalpy=                  0.005938
 Thermal correction to Gibbs Free Energy=        -0.018377
 Sum of electronic and zero-point Energies=           -100.778901
 Sum of electronic and thermal Energies=              -100.776044
 Sum of electronic and thermal Enthalpies=            -100.775100
 Sum of electronic and thermal Free Energies=         -100.799414

                     E (Thermal)             CV                S
                      KCal/Mol        Cal/Mol-Kelvin    Cal/Mol-Kelvin
 Total                    3.133              7.606             51.174
 Electronic               0.000              0.000              1.377
 Translational            0.889              2.981             35.068
 Rotational               0.592              1.987             13.247
 Vibrational              1.652              2.638              1.481
 Vibration     1          0.826              1.319              0.741
 Vibration     2          0.826              1.319              0.741

 Normal termination of Gaussian 16 at Fri Aug 22 17:22:05 2025.
