 Gaussian 16, Revision C.01,
 Gaussian 16:  ES64L-G16RevC.01  3-Jul-2019

 -----------------------------------------
 # sp b3lyp/6-311g** Force nosymm scf=(qc)
 -----------------------------------------

 -------------------
 Title Card Required
 -------------------
 Symbolic Z-matrix:
 Charge =  0 Multiplicity = 2

                          Input orientation:
 ---------------------------------------------------------------------
 Center     Atomic      Atomic             Coordinates (Angstroms)
 Number     Number       Type             X           Y           Z
 ---------------------------------------------------------------------
      1          1           0        0.000000    0.000000    0.000000
      2          1           0       -1.700000    0.000000    0.000000
      3          9           0        1.300000    0.000000    0.000000
 ---------------------------------------------------------------------

 SCF Done:  E(UB3LYP) =  -100.907878023     a.u. after    9 cycles

 Alpha  occ. eigenvalues --  -24.63459  -1.10778  -0.47207  -0.37563  -0.36393
 Alpha  occ. eigenvalues --   -0.36393
 Alpha virt. eigenvalues --   -0.04250   0.21876   0.28280   0.93713   0.93713
 Alpha virt. eigenvalues --    1.01967   1.04052   1.17924   1.17924   1.37028
 Alpha virt. eigenvalues --    1.37028   1.50002   1.74598   2.16307   2.35235

  Beta  occ. eigenvalues --  -24.62971  -1.09522  -0.44669  -0.35940  -0.35940
  Beta virt. eigenvalues --   -0.18197  -0.00536   0.26222   0.31497   0.93717
  Beta virt. eigenvalues --    0.93717   1.03492   1.10816   1.29308   1.29308
  Beta virt. eigenvalues --    1.40487   1.40487   1.55333   1.79261   2.24869

 Mulliken charges and spin densities:
               1          2
     1  H    0.313794  -0.056899
     2  H    0.051562   0.908952
     3  F   -0.365356   0.147947
 Sum of Mulliken charges =   0.00000   1.00000

 Dipole moment (field-independent basis, Debye):
    X=             -2.8671    Y=             -0.0000    Z=             -0.0000  Tot=              2.8671
 Quadrupole moment (field-independent basis, Debye-Ang):
   XX=             -8.2439   YY=             -7.1134   ZZ=             -7.1134
   XY=             -0.0000   XZ=             -0.0000   YZ=             -0.0000

  Exact polarizability:      21.956      -0.000       2.363       0.000       0.000       2.363
 Approx polarizability:      28.734      -0.000       2.321      -0.000       0.000       2.321

 ******    1 imaginary frequencies (negative Signs) ******

                      1                      2                      3
                      A                      A                      A
 Frequencies --  -1616.0947               139.8720              1109.0533
 Red. masses --      1.0232                 1.0905                 1.0215
 Frc consts  --      1.5745                 0.0126                 0.7403
 IR Inten    --    123.2485                12.1244                72.8442

                      4
                      A
 Frequencies --   1109.0533
 Red. masses --      1.0215
 Frc consts  --      0.7403
 IR Inten    --     72.8442

 - Thermochemistry -
 -------------------
 Temperature   298.150 Kelvin.  Pressure   1.00000 Atm.
 Atom     1 has atomic number  1 and mass   1.00783

 Molecular mass:    21.01405 amu.
 Principal axes and moments of inertia in atomic units:
                           1         2         3
     Eigenvalues --     0.00000  35.28190  35.28190
           X            1.00000  -0.00000   0.00000
           Y            0.00000   1.00000   0.00000
           Z            0.00000   0.00000   1.00000
 This molecule is a prolate symmetric top.
 Rotational symmetry number  1.
 Rotational temperature (Kelvin)      2.45491
 Rotational constant (GHZ):          51.152042
    1 imaginary frequencies ignored.
 Zero-point vibrational energy      14103.8 (Joules/Mol)
                                    3.37090 (Kcal/Mol)
 Warning -- explicit consideration of   1 degrees of freedom as
           vibrations may cause significant error
 Vibrational temperatures:    201.24  1595.68  1595.68
          (Kelvin)

 Zero-point correction=                           0.005372 (Hartree/Particle)
 Thermal correction to Energy=                    0.008442
 Thermal correction to Enthalpy=                  0.009386
 Thermal correction to Gibbs Free Energy=        -0.014797
 Sum of electronic and zero-point Energies=           -100.902506
 Sum of electronic and thermal Energies=              -100.899436
 Sum of electronic and thermal Enthalpies=            -100.898492
 Sum of electronic and thermal Free Energies=         -100.922675

                     E (Thermal)             CV                S
                      KCal/Mol        Cal/Mol-Kelvin    Cal/Mol-Kelvin
 Total                    5.297              7.426             50.896
 Electronic               0.000              0.000              1.377
 Translational            0.889              2.981             35.068
 Rotational               0.592              1.987             11.525
 Vibrational              3.816              2.458              2.926
 Vibration     1          0.615              1.913              2.806

 Normal termination of Gaussian 16 at Fri Aug 22 16:14:50 2025.
