 Gaussian 16, Revision C.01,
 Gaussian 16:  ES64L-G16RevC.01  3-Jul-2019

 -----------------------------------------
 # sp b3lyp/6-311g** Force nosymm scf=(qc)
 -----------------------------------------

 -------------------
 Title Card Required
 -------------------
 Symbolic Z-matrix:
 Charge =  0 Multiplicity = 2

                          Input orientation:
 ---------------------------------------------------------------------
 Center     Atomic      Atomic             Coordinates (Angstroms)
 Number     Number       Type             X           Y           Z
 ---------------------------------------------------------------------
      1          1           0        0.000000    0.000000    0.000000
      2          1           0       -2.500000    0.000000    0.000000
      3          9           0        1.200000    0.000000    0.000000
 ---------------------------------------------------------------------

 SCF Done:  E(UB3LYP) =  -100.926290018     a.u. after    7 cycles

 Alpha  occ. eigenvalues --  -24.64137  -1.12116  -0.47687  -0.37350  -0.37350
 Alpha  occ. eigenvalues --   -0.35315
 Alpha virt. eigenvalues --   -0.04830   0.24498   0.28415   0.93350   0.93350
 Alpha virt. eigenvalues --    1.00912   1.20343   1.22216   1.22216   1.32454
 Alpha virt. eigenvalues --    1.34837   1.34837   1.74066   2.13281   2.29482

  Beta  occ. eigenvalues --  -24.64091  -1.11999  -0.47493  -0.37308  -0.37308
  Beta virt. eigenvalues --   -0.11519  -0.02248   0.28309   0.36433   0.93348
  Beta virt. eigenvalues --    0.93348   1.01019   1.26963   1.34731   1.34731
  Beta virt. eigenvalues --    1.43426   1.43426   1.46039   1.74379   2.28957

 Mulliken charges and spin densities:
               1          2
     1  H    0.345813  -0.000912
     2  H    0.010507   0.986743
     3  F   -0.356320   0.014169
 Sum of Mulliken charges =   0.00000   1.00000

 Dipole moment (field-independent basis, Debye):
    X=             -2.4169    Y=              0.0000    Z=             -0.0000  Tot=              2.4169
 Quadrupole moment (field-independent basis, Debye-Ang):
   XX=             -8.5358   YY=             -7.1223   ZZ=             -7.1223
   XY=              0.0000   XZ=             -0.0000   YZ=              0.0000

  Exact polarizability:      12.741       0.000       2.348      -0.000      -0.000       2.348
 Approx polarizability:      16.374      -0.000       2.306      -0.000      -0.000       2.306

 ******    1 imaginary frequencies (negative Signs) ******

                      1                      2                      3
                      A                      A                      A
 Frequencies --   -184.7524               940.1503              1180.6989
 Red. masses --      1.0457                 1.0660                 1.0287
 Frc consts  --      0.0210                 0.5552                 0.8449
 IR Inten    --      5.8574               120.1728               130.6257

                      4
                      A
 Frequencies --   1180.6989
 Red. masses --      1.0287
 Frc consts  --      0.8449
 IR Inten    --    130.6257

 - Thermochemistry -
 -------------------
 Temperature   298.150 Kelvin.  Pressure   1.00000 Atm.
 Atom     1 has atomic number  1 and mass   1.00783

 Molecular mass:    21.01405 amu.
 Principal axes and moments of inertia in atomic units:
                           1         2         3
     Eigenvalues --     0.00000  50.30871  50.30871
           X            1.00000  -0.00000   0.00000
           Y            0.00000   1.00000   0.00000
           Z            0.00000   0.00000   1.00000
 This molecule is a prolate symmetric top.
 Rotational symmetry number  1.
 Rotational temperature (Kelvin)      1.72165
 Rotational constant (GHZ):          35.873337
    1 imaginary frequencies ignored.
 Zero-point vibrational energy      19747.6 (Joules/Mol)
                                    4.71980 (Kcal/Mol)
 Vibrational temperatures:   1352.67  1698.76  1698.76
          (Kelvin)

 Zero-point correction=                           0.007521 (Hartree/Particle)
 Thermal correction to Energy=                    0.009965
 Thermal correction to Enthalpy=                  0.010909
 Thermal correction to Gibbs Free Energy=        -0.012318
 Sum of electronic and zero-point Energies=           -100.918769
 Sum of electronic and thermal Energies=              -100.916326
 Sum of electronic and thermal Enthalpies=            -100.915381
 Sum of electronic and thermal Free Energies=         -100.938608

                     E (Thermal)             CV                S
                      KCal/Mol        Cal/Mol-Kelvin    Cal/Mol-Kelvin
 Total                    6.253              5.851             48.884
 Electronic               0.000              0.000              1.377
 Translational            0.889              2.981             35.068
 Rotational               0.592              1.987             12.230
 Vibrational              4.772              0.883              0.209

 Normal termination of Gaussian 16 at Fri Aug 22 16:10:30 2025.
