 Gaussian 16, Revision C.01,
 Gaussian 16:  ES64L-G16RevC.01  3-Jul-2019

 -----------------------------------------
 # sp b3lyp/6-311g** Force nosymm scf=(qc)
 -----------------------------------------

 -------------------
 Title Card Required
 -------------------
 Symbolic Z-matrix:
 Charge =  0 Multiplicity = 2

                          Input orientation:
 ---------------------------------------------------------------------
 Center     Atomic      Atomic             Coordinates (Angstroms)
 Number     Number       Type             X           Y           Z
 ---------------------------------------------------------------------
      1          1           0        0.000000    0.000000    0.000000
      2          1           0       -3.200000    0.000000    0.000000
      3          9           0        1.150000    0.000000    0.000000
 ---------------------------------------------------------------------

 SCF Done:  E(UB3LYP) =  -100.937434793     a.u. after    6 cycles

 Alpha  occ. eigenvalues --  -24.64303  -1.12984  -0.48640  -0.37777  -0.37777
 Alpha  occ. eigenvalues --   -0.34116
 Alpha virt. eigenvalues --   -0.03990   0.23269   0.30044   0.93374   0.93374
 Alpha virt. eigenvalues --    1.00201   1.23323   1.23407   1.23407   1.28450
 Alpha virt. eigenvalues --    1.34958   1.34958   1.75897   2.14119   2.30452

  Beta  occ. eigenvalues --  -24.64296  -1.12967  -0.48619  -0.37771  -0.37771
  Beta virt. eigenvalues --   -0.08005  -0.02592   0.28436   0.38346   0.93374
  Beta virt. eigenvalues --    0.93374   1.00218   1.28162   1.34946   1.34946
  Beta virt. eigenvalues --    1.47106   1.47106   1.47578   1.75977   2.30387

 Mulliken charges and spin densities:
               1          2
     1  H    0.346679   0.000436
     2  H    0.002271   0.997347
     3  F   -0.348950   0.002217
 Sum of Mulliken charges =   0.00000   1.00000

 Dipole moment (field-independent basis, Debye):
    X=             -2.2525    Y=             -0.0000    Z=             -0.0000  Tot=              2.2525
 Quadrupole moment (field-independent basis, Debye-Ang):
   XX=             -8.6393   YY=             -7.0890   ZZ=             -7.0890
   XY=             -0.0000   XZ=             -0.0000   YZ=              0.0000

  Exact polarizability:       9.319      -0.000       2.349       0.000      -0.000       2.349
 Approx polarizability:      12.390       0.000       2.309      -0.000      -0.000       2.309

 ******    1 imaginary frequencies (negative Signs) ******

                      1                      2                      3
                      A                      A                      A
 Frequencies --    -76.6610              1201.5670              1201.5670
 Red. masses --      1.0528                 1.0334                 1.0334
 Frc consts  --      0.0036                 0.8790                 0.8790
 IR Inten    --      0.2664               148.9331               148.9331

                      4
                      A
 Frequencies --   1462.4008
 Red. masses --      1.0588
 Frc consts  --      1.3341
 IR Inten    --     79.6989

 - Thermochemistry -
 -------------------
 Temperature   298.150 Kelvin.  Pressure   1.00000 Atm.
 Atom     1 has atomic number  1 and mass   1.00783

 Molecular mass:    21.01405 amu.
 Principal axes and moments of inertia in atomic units:
                           1         2         3
     Eigenvalues --     0.00000  67.64057  67.64057
           X            1.00000  -0.00000   0.00000
           Y            0.00000   1.00000   0.00000
           Z            0.00000   0.00000   1.00000
 This molecule is a prolate symmetric top.
 Rotational symmetry number  1.
 Rotational temperature (Kelvin)      1.28050
 Rotational constant (GHZ):          26.681343
    1 imaginary frequencies ignored.
 Zero-point vibrational energy      23121.0 (Joules/Mol)
                                    5.52606 (Kcal/Mol)
 Vibrational temperatures:   1728.79  1728.79  2104.07
          (Kelvin)

 Zero-point correction=                           0.008806 (Hartree/Particle)
 Thermal correction to Energy=                    0.011206
 Thermal correction to Enthalpy=                  0.012150
 Thermal correction to Gibbs Free Energy=        -0.011302
 Sum of electronic and zero-point Energies=           -100.928628
 Sum of electronic and thermal Energies=              -100.926229
 Sum of electronic and thermal Enthalpies=            -100.925285
 Sum of electronic and thermal Free Energies=         -100.948737

                     E (Thermal)             CV                S
                      KCal/Mol        Cal/Mol-Kelvin    Cal/Mol-Kelvin
 Total                    7.032              5.461             49.360
 Electronic               0.000              0.000              1.377
 Translational            0.889              2.981             35.068
 Rotational               0.592              1.987             12.818
 Vibrational              5.551              0.493              0.096

 Normal termination of Gaussian 16 at Fri Aug 22 16:08:32 2025.
