 Gaussian 16, Revision C.01,
 Gaussian 16:  ES64L-G16RevC.01  3-Jul-2019

 -----------------------------------------
 # sp b3lyp/6-311g** Force nosymm scf=(qc)
 -----------------------------------------

 -------------------
 Title Card Required
 -------------------
 Symbolic Z-matrix:
 Charge =  0 Multiplicity = 2

                          Input orientation:
 ---------------------------------------------------------------------
 Center     Atomic      Atomic             Coordinates (Angstroms)
 Number     Number       Type             X           Y           Z
 ---------------------------------------------------------------------
      1          1           0        0.000000    0.000000    0.000000
      2          1           0       -3.100000    0.000000    0.000000
      3          9           0        2.700000    0.000000    0.000000
 ---------------------------------------------------------------------

 SCF Done:  E(UB3LYP) =  -100.764613593     a.u. after   20 cycles

 Alpha  occ. eigenvalues --  -24.72824  -1.18971  -0.51937  -0.43618  -0.43618
 Alpha  occ. eigenvalues --   -0.32917
 Alpha virt. eigenvalues --   -0.09847   0.24207   0.35019   0.90063   0.93018
 Alpha virt. eigenvalues --    0.93018   1.05688   1.24614   1.24614   1.25278
 Alpha virt. eigenvalues --    1.41620   1.41620   1.43003   2.15148   2.37127

  Beta  occ. eigenvalues --  -24.69891  -1.10593  -0.40687  -0.40687  -0.34619
  Beta virt. eigenvalues --   -0.24032  -0.07506   0.24564   0.37004   0.94441
  Beta virt. eigenvalues --    0.94441   0.97961   1.08891   1.22740   1.22740
  Beta virt. eigenvalues --    1.25755   1.44826   1.44951   1.44951   2.14707

 Mulliken charges and spin densities:
               1          2
     1  H    0.062492  -0.922621
     2  H    0.001926   0.994314
     3  F   -0.064419   0.928308
 Sum of Mulliken charges =  -0.00000   1.00000

 Dipole moment (field-independent basis, Debye):
    X=             -0.9185    Y=             -0.0000    Z=              0.0000  Tot=              0.9185
 Quadrupole moment (field-independent basis, Debye-Ang):
   XX=             -8.8228   YY=             -7.5997   ZZ=             -7.5997
   XY=             -0.0000   XZ=              0.0000   YZ=             -0.0000

  Exact polarizability:      34.448      -0.000       2.021       0.000       0.000       2.021
 Approx polarizability:      38.946      -0.000       1.921       0.000      -0.000       1.921

 ******    2 imaginary frequencies (negative Signs) ******

                      1                      2                      3
                      A                      A                      A
 Frequencies --   -535.7753              -186.4997               202.2474
 Red. masses --      1.0421                 1.0698                 1.0197
 Frc consts  --      0.1762                 0.0219                 0.0246
 IR Inten    --     60.3984                 2.5874                 3.5855

                      4
                      A
 Frequencies --    202.2474
 Red. masses --      1.0197
 Frc consts  --      0.0246
 IR Inten    --      3.5855

 - Thermochemistry -
 -------------------
 Temperature   298.150 Kelvin.  Pressure   1.00000 Atm.
 Atom     1 has atomic number  1 and mass   1.00783

 Molecular mass:    21.01405 amu.
 Principal axes and moments of inertia in atomic units:
                           1         2         3
     Eigenvalues --     0.00000 134.83657 134.83657
           X            1.00000  -0.00000   0.00000
           Y            0.00000   1.00000   0.00000
           Z            0.00000   0.00000   1.00000
 This molecule is a prolate symmetric top.
 Rotational symmetry number  1.
 Rotational temperature (Kelvin)      0.64236
 Rotational constant (GHZ):          13.384657
    2 imaginary frequencies ignored.
 Zero-point vibrational energy       2419.4 (Joules/Mol)
                                    0.57825 (Kcal/Mol)
 Warning -- explicit consideration of   2 degrees of freedom as
           vibrations may cause significant error
 Vibrational temperatures:    290.99   290.99
          (Kelvin)

 Zero-point correction=                           0.000922 (Hartree/Particle)
 Thermal correction to Energy=                    0.004396
 Thermal correction to Enthalpy=                  0.005341
 Thermal correction to Gibbs Free Energy=        -0.020725
 Sum of electronic and zero-point Energies=           -100.763692
 Sum of electronic and thermal Energies=              -100.760217
 Sum of electronic and thermal Enthalpies=            -100.759273
 Sum of electronic and thermal Free Energies=         -100.785339

                     E (Thermal)             CV                S
                      KCal/Mol        Cal/Mol-Kelvin    Cal/Mol-Kelvin
 Total                    2.759              8.641             54.860
 Electronic               0.000              0.000              1.377
 Translational            0.889              2.981             35.068
 Rotational               0.592              1.987             14.189
 Vibrational              1.278              3.673              4.225
 Vibration     1          0.639              1.837              2.113
 Vibration     2          0.639              1.837              2.113

 Normal termination of Gaussian 16 at Fri Aug 22 18:26:31 2025.
