 Gaussian 16, Revision C.01,
 Gaussian 16:  ES64L-G16RevC.01  3-Jul-2019

 -----------------------------------------
 # sp b3lyp/6-311g** Force nosymm scf=(qc)
 -----------------------------------------

 -------------------
 Title Card Required
 -------------------
 Symbolic Z-matrix:
 Charge =  0 Multiplicity = 2

                          Input orientation:
 ---------------------------------------------------------------------
 Center     Atomic      Atomic             Coordinates (Angstroms)
 Number     Number       Type             X           Y           Z
 ---------------------------------------------------------------------
      1          1           0        0.000000    0.000000    0.000000
      2          1           0       -3.500000    0.000000    0.000000
      3          9           0        2.500000    0.000000    0.000000
 ---------------------------------------------------------------------

 SCF Done:  E(UB3LYP) =  -100.767497064     a.u. after   25 cycles

 Alpha  occ. eigenvalues --  -24.71736  -1.17953  -0.50839  -0.42709  -0.42709
 Alpha  occ. eigenvalues --   -0.32902
 Alpha virt. eigenvalues --   -0.10290   0.23485   0.35231   0.89659   0.93615
 Alpha virt. eigenvalues --    0.93615   1.06264   1.24608   1.24608   1.24774
 Alpha virt. eigenvalues --    1.40562   1.40562   1.44790   2.14480   2.36523

  Beta  occ. eigenvalues --  -24.68895  -1.09866  -0.39876  -0.39876  -0.35359
  Beta virt. eigenvalues --   -0.23338  -0.06750   0.23909   0.37882   0.94978
  Beta virt. eigenvalues --    0.94978   0.95993   1.08598   1.22098   1.22098
  Beta virt. eigenvalues --    1.29700   1.45708   1.45978   1.45978   2.12858

 Mulliken charges and spin densities:
               1          2
     1  H    0.089585  -0.895738
     2  H    0.000894   0.997919
     3  F   -0.090479   0.897819
 Sum of Mulliken charges =   0.00000   1.00000

 Dipole moment (field-independent basis, Debye):
    X=             -1.1656    Y=              0.0000    Z=              0.0000  Tot=              1.1656
 Quadrupole moment (field-independent basis, Debye-Ang):
   XX=             -9.3004   YY=             -7.5712   ZZ=             -7.5712
   XY=              0.0000   XZ=              0.0000   YZ=              0.0000

  Exact polarizability:      30.951       0.000       2.026       0.000      -0.000       2.026
 Approx polarizability:      38.955       0.000       1.920       0.000       0.000       1.920

 ******    2 imaginary frequencies (negative Signs) ******

                      1                      2                      3
                      A                      A                      A
 Frequencies --   -619.3640              -120.7539               242.2277
 Red. masses --      1.0542                 1.0574                 1.0225
 Frc consts  --      0.2383                 0.0091                 0.0353
 IR Inten    --     80.2700                 0.2968                 7.6587

                      4
                      A
 Frequencies --    242.2277
 Red. masses --      1.0225
 Frc consts  --      0.0353
 IR Inten    --      7.6587

 - Thermochemistry -
 -------------------
 Temperature   298.150 Kelvin.  Pressure   1.00000 Atm.
 Atom     1 has atomic number  1 and mass   1.00783

 Molecular mass:    21.01405 amu.
 Principal axes and moments of inertia in atomic units:
                           1         2         3
     Eigenvalues --     0.00000 139.58726 139.58726
           X            1.00000  -0.00000   0.00000
           Y            0.00000   1.00000   0.00000
           Z            0.00000   0.00000   1.00000
 This molecule is a prolate symmetric top.
 Rotational symmetry number  1.
 Rotational temperature (Kelvin)      0.62050
 Rotational constant (GHZ):          12.929125
    2 imaginary frequencies ignored.
 Zero-point vibrational energy       2897.7 (Joules/Mol)
                                    0.69256 (Kcal/Mol)
 Warning -- explicit consideration of   2 degrees of freedom as
           vibrations may cause significant error
 Vibrational temperatures:    348.51   348.51
          (Kelvin)

 Zero-point correction=                           0.001104 (Hartree/Particle)
 Thermal correction to Energy=                    0.004459
 Thermal correction to Enthalpy=                  0.005403
 Thermal correction to Gibbs Free Energy=        -0.020385
 Sum of electronic and zero-point Energies=           -100.766393
 Sum of electronic and thermal Energies=              -100.763038
 Sum of electronic and thermal Enthalpies=            -100.762094
 Sum of electronic and thermal Free Energies=         -100.787882

                     E (Thermal)             CV                S
                      KCal/Mol        Cal/Mol-Kelvin    Cal/Mol-Kelvin
 Total                    2.798              8.519             54.276
 Electronic               0.000              0.000              1.377
 Translational            0.889              2.981             35.068
 Rotational               0.592              1.987             14.258
 Vibrational              1.317              3.551              3.573
 Vibration     1          0.658              1.776              1.786
 Vibration     2          0.658              1.776              1.786

 Normal termination of Gaussian 16 at Fri Aug 22 17:46:14 2025.
