 Gaussian 16, Revision C.01,
 Gaussian 16:  ES64L-G16RevC.01  3-Jul-2019

 -----------------------------------------
 # sp b3lyp/6-311g** Force nosymm scf=(qc)
 -----------------------------------------

 -------------------
 Title Card Required
 -------------------
 Symbolic Z-matrix:
 Charge =  0 Multiplicity = 2

                          Input orientation:
 ---------------------------------------------------------------------
 Center     Atomic      Atomic             Coordinates (Angstroms)
 Number     Number       Type             X           Y           Z
 ---------------------------------------------------------------------
      1          1           0        0.000000    0.000000    0.000000
      2          1           0       -2.250000    0.000000    0.000000
      3          9           0        1.050000    0.000000    0.000000
 ---------------------------------------------------------------------

 SCF Done:  E(UB3LYP) =  -100.959066679     a.u. after    6 cycles

 Alpha  occ. eigenvalues --  -24.63980  -1.14675  -0.50569  -0.38211  -0.38211
 Alpha  occ. eigenvalues --   -0.35632
 Alpha virt. eigenvalues --    0.01000   0.24741   0.32344   0.94018   0.94018
 Alpha virt. eigenvalues --    0.98993   1.17281   1.21884   1.21884   1.35783
 Alpha virt. eigenvalues --    1.35783   1.42358   1.84371   2.13218   2.34047

  Beta  occ. eigenvalues --  -24.63930  -1.14550  -0.50323  -0.38167  -0.38167
  Beta virt. eigenvalues --   -0.11583   0.03243   0.32228   0.36020   0.94022
  Beta virt. eigenvalues --    0.94022   0.99221   1.26515   1.35622   1.35622
  Beta virt. eigenvalues --    1.42476   1.42476   1.52829   1.84496   2.32328

 Mulliken charges and spin densities:
               1          2
     1  H    0.321553   0.002952
     2  H    0.012392   0.982427
     3  F   -0.333945   0.014621
 Sum of Mulliken charges =   0.00000   1.00000

 Dipole moment (field-independent basis, Debye):
    X=             -2.2437    Y=             -0.0000    Z=             -0.0000  Tot=              2.2437
 Quadrupole moment (field-independent basis, Debye-Ang):
   XX=             -8.0129   YY=             -6.9880   ZZ=             -6.9880
   XY=              0.0000   XZ=             -0.0000   YZ=              0.0000

  Exact polarizability:      10.658       0.000       2.423      -0.000      -0.000       2.423
 Approx polarizability:      12.217      -0.000       2.398      -0.000      -0.000       2.398

 ******    1 imaginary frequencies (negative Signs) ******

                      1                      2                      3
                      A                      A                      A
 Frequencies --   -118.9237              1089.7415              1089.7415
 Red. masses --      1.0519                 1.0292                 1.0292
 Frc consts  --      0.0088                 0.7201                 0.7201
 IR Inten    --      2.8357               139.8090               139.8090

                      4
                      A
 Frequencies --   2414.7758
 Red. masses --      1.0597
 Frc consts  --      3.6407
 IR Inten    --    152.4946

 - Thermochemistry -
 -------------------
 Temperature   298.150 Kelvin.  Pressure   1.00000 Atm.
 Atom     1 has atomic number  1 and mass   1.00783

 Molecular mass:    21.01405 amu.
 Principal axes and moments of inertia in atomic units:
                           1         2         3
     Eigenvalues --     0.00000  39.89496  39.89496
           X            1.00000  -0.00000   0.00000
           Y            0.00000   1.00000   0.00000
           Z            0.00000   0.00000   1.00000
 This molecule is a prolate symmetric top.
 Rotational symmetry number  1.
 Rotational temperature (Kelvin)      2.17105
 Rotational constant (GHZ):          45.237328
    1 imaginary frequencies ignored.
 Zero-point vibrational energy      27479.8 (Joules/Mol)
                                    6.56782 (Kcal/Mol)
 Vibrational temperatures:   1567.89  1567.89  3474.32
          (Kelvin)

 Zero-point correction=                           0.010466 (Hartree/Particle)
 Thermal correction to Energy=                    0.012879
 Thermal correction to Enthalpy=                  0.013823
 Thermal correction to Gibbs Free Energy=        -0.009147
 Sum of electronic and zero-point Energies=           -100.948600
 Sum of electronic and thermal Energies=              -100.946188
 Sum of electronic and thermal Enthalpies=            -100.945244
 Sum of electronic and thermal Free Energies=         -100.968214

                     E (Thermal)             CV                S
                      KCal/Mol        Cal/Mol-Kelvin    Cal/Mol-Kelvin
 Total                    8.082              5.548             48.345
 Electronic               0.000              0.000              1.377
 Translational            0.889              2.981             35.068
 Rotational               0.592              1.987             11.769
 Vibrational              6.600              0.580              0.130

 Normal termination of Gaussian 16 at Fri Aug 22 16:03:06 2025.
