 Gaussian 16, Revision C.01,
 Gaussian 16:  ES64L-G16RevC.01  3-Jul-2019

 -----------------------------------------
 # sp b3lyp/6-311g** Force nosymm scf=(qc)
 -----------------------------------------

 -------------------
 Title Card Required
 -------------------
 Symbolic Z-matrix:
 Charge =  0 Multiplicity = 2

                          Input orientation:
 ---------------------------------------------------------------------
 Center     Atomic      Atomic             Coordinates (Angstroms)
 Number     Number       Type             X           Y           Z
 ---------------------------------------------------------------------
      1          1           0        0.000000    0.000000    0.000000
      2          1           0       -2.800000    0.000000    0.000000
      3          9           0        3.500000    0.000000    0.000000
 ---------------------------------------------------------------------

 SCF Done:  E(UB3LYP) =  -100.760757402     a.u. after   32 cycles

 Alpha  occ. eigenvalues --  -24.75417  -1.21377  -0.54539  -0.45792  -0.45792
 Alpha  occ. eigenvalues --   -0.32518
 Alpha virt. eigenvalues --   -0.08600   0.25278   0.35274   0.87610   0.91461
 Alpha virt. eigenvalues --    0.91461   1.01801   1.25047   1.25047   1.26196
 Alpha virt. eigenvalues --    1.42988   1.42988   1.43326   2.15927   2.38667

  Beta  occ. eigenvalues --  -24.72301  -1.12426  -0.42670  -0.42670  -0.32907
  Beta virt. eigenvalues --   -0.25506  -0.08064   0.25064   0.36080   0.92950
  Beta virt. eigenvalues --    0.92950   0.96768   1.05830   1.24593   1.24593
  Beta virt. eigenvalues --    1.25683   1.43832   1.43832   1.44163   2.16313

 Mulliken charges and spin densities:
               1          2
     1  H    0.009986  -0.974800
     2  H    0.001102   0.987119
     3  F   -0.011087   0.987681
 Sum of Mulliken charges =   0.00000   1.00000

 Dipole moment (field-independent basis, Debye):
    X=             -0.2142    Y=              0.0000    Z=              0.0000  Tot=              0.2142
 Quadrupole moment (field-independent basis, Debye-Ang):
   XX=             -7.2520   YY=             -7.6437   ZZ=             -7.6437
   XY=              0.0000   XZ=              0.0000   YZ=             -0.0000

  Exact polarizability:      28.294       0.000       2.029       0.000      -0.000       2.029
 Approx polarizability:      21.687       0.000       1.930       0.000       0.000       1.930

 ******    2 imaginary frequencies (negative Signs) ******

                      1                      2                      3
                      A                      A                      A
 Frequencies --   -452.4081              -135.9930               159.9740
 Red. masses --      1.0090                 1.1071                 1.0155
 Frc consts  --      0.1217                 0.0121                 0.0153
 IR Inten    --      6.6710                 5.0828                 0.0777

                      4
                      A
 Frequencies --    159.9740
 Red. masses --      1.0155
 Frc consts  --      0.0153
 IR Inten    --      0.0777

 - Thermochemistry -
 -------------------
 Temperature   298.150 Kelvin.  Pressure   1.00000 Atm.
 Atom     1 has atomic number  1 and mass   1.00783

 Molecular mass:    21.01405 amu.
 Principal axes and moments of inertia in atomic units:
                           1         2         3
     Eigenvalues --     0.00000 170.35534 170.35534
           X            1.00000  -0.00000   0.00000
           Y            0.00000   1.00000   0.00000
           Z            0.00000   0.00000   1.00000
 This molecule is a prolate symmetric top.
 Rotational symmetry number  1.
 Rotational temperature (Kelvin)      0.50843
 Rotational constant (GHZ):          10.593981
    2 imaginary frequencies ignored.
 Zero-point vibrational energy       1913.7 (Joules/Mol)
                                    0.45739 (Kcal/Mol)
 Warning -- explicit consideration of   2 degrees of freedom as
           vibrations may cause significant error
 Vibrational temperatures:    230.17   230.17
          (Kelvin)

 Zero-point correction=                           0.000729 (Hartree/Particle)
 Thermal correction to Energy=                    0.004342
 Thermal correction to Enthalpy=                  0.005286
 Thermal correction to Gibbs Free Energy=        -0.021416
 Sum of electronic and zero-point Energies=           -100.760029
 Sum of electronic and thermal Energies=              -100.756416
 Sum of electronic and thermal Enthalpies=            -100.755472
 Sum of electronic and thermal Free Energies=         -100.782174

                     E (Thermal)             CV                S
                      KCal/Mol        Cal/Mol-Kelvin    Cal/Mol-Kelvin
 Total                    2.724              8.751             56.199
 Electronic               0.000              0.000              1.377
 Translational            0.889              2.981             35.068
 Rotational               0.592              1.987             14.654
 Vibrational              1.243              3.783              5.100
 Vibration     1          0.622              1.891              2.550
 Vibration     2          0.622              1.891              2.550

 Normal termination of Gaussian 16 at Fri Aug 22 22:10:15 2025.
