 Gaussian 16, Revision C.01,
 Gaussian 16:  ES64L-G16RevC.01  3-Jul-2019

 -----------------------------------------
 # sp b3lyp/6-311g** Force nosymm scf=(qc)
 -----------------------------------------

 -------------------
 Title Card Required
 -------------------
 Symbolic Z-matrix:
 Charge =  0 Multiplicity = 2

                          Input orientation:
 ---------------------------------------------------------------------
 Center     Atomic      Atomic             Coordinates (Angstroms)
 Number     Number       Type             X           Y           Z
 ---------------------------------------------------------------------
      1          1           0        0.000000    0.000000    0.000000
      2          1           0       -3.500000    0.000000    0.000000
      3          9           0        1.700000    0.000000    0.000000
 ---------------------------------------------------------------------

 SCF Done:  E(UB3LYP) =  -100.814543807     a.u. after   10 cycles

 Alpha  occ. eigenvalues --  -24.64216  -1.08831  -0.40949  -0.35985  -0.35985
 Alpha  occ. eigenvalues --   -0.34053
 Alpha virt. eigenvalues --   -0.18775   0.19820   0.27454   0.94875   0.94875
 Alpha virt. eigenvalues --    0.96500   1.07366   1.23452   1.23452   1.23493
 Alpha virt. eigenvalues --    1.27607   1.27607   1.70250   2.12905   2.16363

  Beta  occ. eigenvalues --  -24.64232  -1.08874  -0.40967  -0.36001  -0.36001
  Beta virt. eigenvalues --   -0.18845  -0.06946   0.22735   0.38006   0.94885
  Beta virt. eigenvalues --    0.94885   0.96544   1.07374   1.27735   1.27735
  Beta virt. eigenvalues --    1.45416   1.45887   1.45887   1.70347   2.15779

 Mulliken charges and spin densities:
               1          2
     1  H    0.325699   0.007590
     2  H    0.002592   0.997308
     3  F   -0.328291  -0.004899
 Sum of Mulliken charges =  -0.00000   1.00000

 Dipole moment (field-independent basis, Debye):
    X=             -2.7932    Y=              0.0000    Z=             -0.0000  Tot=              2.7932
 Quadrupole moment (field-independent basis, Debye-Ang):
   XX=            -10.6067   YY=             -7.4191   ZZ=             -7.4191
   XY=              0.0000   XZ=             -0.0000   YZ=              0.0000

  Exact polarizability:      20.635       0.000       2.103      -0.000      -0.000       2.103
 Approx polarizability:      47.314      -0.000       2.015       0.000      -0.000       2.015

 ******    2 imaginary frequencies (negative Signs) ******

                      1                      2                      3
                      A                      A                      A
 Frequencies --  -1186.7175               -93.7750               866.1074
 Red. masses --      1.0573                 1.0542                 1.0285
 Frc consts  --      0.8773                 0.0055                 0.4546
 IR Inten    --     39.8710                 0.4715               101.1036

                      4
                      A
 Frequencies --    866.1074
 Red. masses --      1.0285
 Frc consts  --      0.4546
 IR Inten    --    101.1036

 - Thermochemistry -
 -------------------
 Temperature   298.150 Kelvin.  Pressure   1.00000 Atm.
 Atom     1 has atomic number  1 and mass   1.00783

 Molecular mass:    21.01405 amu.
 Principal axes and moments of inertia in atomic units:
                           1         2         3
     Eigenvalues --     0.00000  99.50051  99.50051
           X            1.00000  -0.00000   0.00000
           Y            0.00000   1.00000   0.00000
           Z            0.00000   0.00000   1.00000
 This molecule is a prolate symmetric top.
 Rotational symmetry number  1.
 Rotational temperature (Kelvin)      0.87049
 Rotational constant (GHZ):          18.138010
    2 imaginary frequencies ignored.
 Zero-point vibrational energy      10360.9 (Joules/Mol)
                                    2.47633 (Kcal/Mol)
 Vibrational temperatures:   1246.14  1246.14
          (Kelvin)

 Zero-point correction=                           0.003946 (Hartree/Particle)
 Thermal correction to Energy=                    0.006429
 Thermal correction to Enthalpy=                  0.007374
 Thermal correction to Gibbs Free Energy=        -0.016549
 Sum of electronic and zero-point Energies=           -100.810598
 Sum of electronic and thermal Energies=              -100.808114
 Sum of electronic and thermal Enthalpies=            -100.807170
 Sum of electronic and thermal Free Energies=         -100.831093

                     E (Thermal)             CV                S
                      KCal/Mol        Cal/Mol-Kelvin    Cal/Mol-Kelvin
 Total                    4.035              6.064             50.350
 Electronic               0.000              0.000              1.377
 Translational            0.889              2.981             35.068
 Rotational               0.592              1.987             13.585
 Vibrational              2.553              1.096              0.319

 Normal termination of Gaussian 16 at Fri Aug 22 16:38:46 2025.
