 Gaussian 16, Revision C.01,
 Gaussian 16:  ES64L-G16RevC.01  3-Jul-2019

 -----------------------------------------
 # sp b3lyp/6-311g** Force nosymm scf=(qc)
 -----------------------------------------

 -------------------
 Title Card Required
 -------------------
 Symbolic Z-matrix:
 Charge =  0 Multiplicity = 2

                          Input orientation:
 ---------------------------------------------------------------------
 Center     Atomic      Atomic             Coordinates (Angstroms)
 Number     Number       Type             X           Y           Z
 ---------------------------------------------------------------------
      1          1           0        0.000000    0.000000    0.000000
      2          1           0       -3.300000    0.000000    0.000000
      3          9           0        2.450000    0.000000    0.000000
 ---------------------------------------------------------------------

 SCF Done:  E(UB3LYP) =  -100.768844908     a.u. after   16 cycles

 Alpha  occ. eigenvalues --  -24.71441  -1.17673  -0.50538  -0.42461  -0.42461
 Alpha  occ. eigenvalues --   -0.33051
 Alpha virt. eigenvalues --   -0.10717   0.23579   0.34884   0.89540   0.93769
 Alpha virt. eigenvalues --    0.93769   1.06382   1.24468   1.24468   1.24817
 Alpha virt. eigenvalues --    1.40080   1.40080   1.45283   2.14683   2.35431

  Beta  occ. eigenvalues --  -24.68627  -1.09675  -0.39658  -0.39658  -0.35569
  Beta virt. eigenvalues --   -0.23145  -0.07166   0.24103   0.37552   0.95107
  Beta virt. eigenvalues --    0.95107   0.95440   1.08613   1.21964   1.21964
  Beta virt. eigenvalues --    1.31239   1.45272   1.45495   1.45495   2.12982

 Mulliken charges and spin densities:
               1          2
     1  H    0.096303  -0.885112
     2  H    0.001583   0.996532
     3  F   -0.097886   0.888580
 Sum of Mulliken charges =  -0.00000   1.00000

 Dipole moment (field-independent basis, Debye):
    X=             -1.2426    Y=              0.0000    Z=             -0.0000  Tot=              1.2426
 Quadrupole moment (field-independent basis, Debye-Ang):
   XX=             -9.3459   YY=             -7.5688   ZZ=             -7.5688
   XY=              0.0000   XZ=             -0.0000   YZ=              0.0000

  Exact polarizability:      31.517       0.000       2.026      -0.000       0.000       2.026
 Approx polarizability:      39.704       0.000       1.920      -0.000      -0.000       1.920

 ******    2 imaginary frequencies (negative Signs) ******

                      1                      2                      3
                      A                      A                      A
 Frequencies --   -659.4344              -152.3740               260.8545
 Red. masses --      1.0523                 1.0592                 1.0219
 Frc consts  --      0.2696                 0.0145                 0.0410
 IR Inten    --     83.7790                 0.7208                 8.7221

                      4
                      A
 Frequencies --    260.8545
 Red. masses --      1.0219
 Frc consts  --      0.0410
 IR Inten    --      8.7221

 - Thermochemistry -
 -------------------
 Temperature   298.150 Kelvin.  Pressure   1.00000 Atm.
 Atom     1 has atomic number  1 and mass   1.00783

 Molecular mass:    21.01405 amu.
 Principal axes and moments of inertia in atomic units:
                           1         2         3
     Eigenvalues --     0.00000 128.98918 128.98918
           X            1.00000  -0.00000   0.00000
           Y            0.00000   1.00000   0.00000
           Z            0.00000   0.00000   1.00000
 This molecule is a prolate symmetric top.
 Rotational symmetry number  1.
 Rotational temperature (Kelvin)      0.67148
 Rotational constant (GHZ):          13.991415
    2 imaginary frequencies ignored.
 Zero-point vibrational energy       3120.5 (Joules/Mol)
                                    0.74582 (Kcal/Mol)
 Warning -- explicit consideration of   2 degrees of freedom as
           vibrations may cause significant error
 Vibrational temperatures:    375.31   375.31
          (Kelvin)

 Zero-point correction=                           0.001189 (Hartree/Particle)
 Thermal correction to Energy=                    0.004492
 Thermal correction to Enthalpy=                  0.005436
 Thermal correction to Gibbs Free Energy=        -0.020154
 Sum of electronic and zero-point Energies=           -100.767656
 Sum of electronic and thermal Energies=              -100.764353
 Sum of electronic and thermal Enthalpies=            -100.763409
 Sum of electronic and thermal Free Energies=         -100.788999

                     E (Thermal)             CV                S
                      KCal/Mol        Cal/Mol-Kelvin    Cal/Mol-Kelvin
 Total                    2.819              8.457             53.858
 Electronic               0.000              0.000              1.377
 Translational            0.889              2.981             35.068
 Rotational               0.592              1.987             14.101
 Vibrational              1.337              3.489              3.312
 Vibration     1          0.669              1.744              1.656
 Vibration     2          0.669              1.744              1.656

 Normal termination of Gaussian 16 at Fri Aug 22 17:39:34 2025.
