 Gaussian 16, Revision C.01,
 Gaussian 16:  ES64L-G16RevC.01  3-Jul-2019

 -----------------------------------------
 # sp b3lyp/6-311g** Force nosymm scf=(qc)
 -----------------------------------------

 -------------------
 Title Card Required
 -------------------
 Symbolic Z-matrix:
 Charge =  0 Multiplicity = 2

                          Input orientation:
 ---------------------------------------------------------------------
 Center     Atomic      Atomic             Coordinates (Angstroms)
 Number     Number       Type             X           Y           Z
 ---------------------------------------------------------------------
      1          1           0        0.000000    0.000000    0.000000
      2          1           0       -1.300000    0.000000    0.000000
      3          9           0        2.550000    0.000000    0.000000
 ---------------------------------------------------------------------

 SCF Done:  E(UB3LYP) =  -100.855120709     a.u. after   22 cycles

 Alpha  occ. eigenvalues --  -24.74838  -1.20853  -0.54040  -0.45332  -0.45332
 Alpha  occ. eigenvalues --   -0.36652
 Alpha virt. eigenvalues --   -0.06934   0.23060   0.33007   0.89477   0.91692
 Alpha virt. eigenvalues --    0.91692   1.07311   1.13955   1.13955   1.16878
 Alpha virt. eigenvalues --    1.48096   1.48096   1.97443   2.27516   2.52885

  Beta  occ. eigenvalues --  -24.71795  -1.12134  -0.42287  -0.42287  -0.36370
  Beta virt. eigenvalues --   -0.25687  -0.06333   0.23447   0.33505   0.93138
  Beta virt. eigenvalues --    0.93138   0.97529   1.10367   1.14325   1.14325
  Beta virt. eigenvalues --    1.18783   1.48415   1.48415   1.97896   2.28043

 Mulliken charges and spin densities:
               1          2
     1  H    0.000933  -0.066544
     2  H    0.027635   0.104226
     3  F   -0.028568   0.962318
 Sum of Mulliken charges =  -0.00000   1.00000

 Dipole moment (field-independent basis, Debye):
    X=             -0.5387    Y=             -0.0000    Z=             -0.0000  Tot=              0.5387
 Quadrupole moment (field-independent basis, Debye-Ang):
   XX=             -6.1941   YY=             -7.5580   ZZ=             -7.5580
   XY=             -0.0000   XZ=             -0.0000   YZ=             -0.0000

  Exact polarizability:      42.801       0.000       2.032       0.000      -0.000       2.032
 Approx polarizability:      56.020      -0.000       2.095      -0.000       0.000       2.095

 ******    2 imaginary frequencies (negative Signs) ******

                      1                      2                      3
                      A                      A                      A
 Frequencies --  -1206.9543              -213.1312              1383.0199
 Red. masses --      1.0093                 1.1068                 1.0118
 Frc consts  --      0.8662                 0.0296                 1.1403
 IR Inten    --    368.4848                11.2973                 0.3845

                      4
                      A
 Frequencies --   1383.0201
 Red. masses --      1.0118
 Frc consts  --      1.1403
 IR Inten    --      0.3845

 - Thermochemistry -
 -------------------
 Temperature   298.150 Kelvin.  Pressure   1.00000 Atm.
 Atom     1 has atomic number  1 and mass   1.00783

 Molecular mass:    21.01405 amu.
 Principal axes and moments of inertia in atomic units:
                           1         2         3
     Eigenvalues --     0.00000  69.67888  69.67888
           X            1.00000  -0.00000   0.00000
           Y            0.00000   1.00000   0.00000
           Z            0.00000   0.00000   1.00000
 This molecule is a prolate symmetric top.
 Rotational symmetry number  1.
 Rotational temperature (Kelvin)      1.24304
 Rotational constant (GHZ):          25.900836
    2 imaginary frequencies ignored.
 Zero-point vibrational energy      16544.6 (Joules/Mol)
                                    3.95425 (Kcal/Mol)
 Vibrational temperatures:   1989.86  1989.86
          (Kelvin)

 Zero-point correction=                           0.006302 (Hartree/Particle)
 Thermal correction to Energy=                    0.008678
 Thermal correction to Enthalpy=                  0.009622
 Thermal correction to Gibbs Free Energy=        -0.013831
 Sum of electronic and zero-point Energies=           -100.848819
 Sum of electronic and thermal Energies=              -100.846443
 Sum of electronic and thermal Enthalpies=            -100.845499
 Sum of electronic and thermal Free Energies=         -100.868952

                     E (Thermal)             CV                S
                      KCal/Mol        Cal/Mol-Kelvin    Cal/Mol-Kelvin
 Total                    5.445              5.192             49.361
 Electronic               0.000              0.000              1.377
 Translational            0.889              2.981             35.068
 Rotational               0.592              1.987             12.877
 Vibrational              3.964              0.224              0.039

 Normal termination of Gaussian 16 at Fri Aug 22 17:53:00 2025.
