 Gaussian 16, Revision C.01,
 Gaussian 16:  ES64L-G16RevC.01  3-Jul-2019

 -----------------------------------------
 # sp b3lyp/6-311g** Force nosymm scf=(qc)
 -----------------------------------------

 -------------------
 Title Card Required
 -------------------
 Symbolic Z-matrix:
 Charge =  0 Multiplicity = 2

                          Input orientation:
 ---------------------------------------------------------------------
 Center     Atomic      Atomic             Coordinates (Angstroms)
 Number     Number       Type             X           Y           Z
 ---------------------------------------------------------------------
      1          1           0        0.000000    0.000000    0.000000
      2          1           0       -2.250000    0.000000    0.000000
      3          9           0        1.450000    0.000000    0.000000
 ---------------------------------------------------------------------

 SCF Done:  E(UB3LYP) =  -100.868379605     a.u. after    9 cycles

 Alpha  occ. eigenvalues --  -24.63886  -1.09811  -0.44086  -0.36340  -0.36189
 Alpha  occ. eigenvalues --   -0.36189
 Alpha virt. eigenvalues --   -0.11605   0.23596   0.26778   0.93770   0.93770
 Alpha virt. eigenvalues --    1.03508   1.10697   1.21052   1.21052   1.28391
 Alpha virt. eigenvalues --    1.32990   1.32990   1.73662   2.10906   2.22951

  Beta  occ. eigenvalues --  -24.63576  -1.08998  -0.43016  -0.35897  -0.35897
  Beta virt. eigenvalues --   -0.16160  -0.06952   0.25971   0.34451   0.93683
  Beta virt. eigenvalues --    0.93683   1.04300   1.12943   1.31760   1.31760
  Beta virt. eigenvalues --    1.40450   1.40450   1.44376   1.73525   2.18602

 Mulliken charges and spin densities:
               1          2
     1  H    0.330785  -0.061895
     2  H    0.028011   0.965004
     3  F   -0.358796   0.096891
 Sum of Mulliken charges =   0.00000   1.00000

 Dipole moment (field-independent basis, Debye):
    X=             -2.8724    Y=              0.0000    Z=              0.0000  Tot=              2.8724
 Quadrupole moment (field-independent basis, Debye-Ang):
   XX=             -9.0120   YY=             -7.2854   ZZ=             -7.2854
   XY=              0.0000   XZ=              0.0000   YZ=             -0.0000

  Exact polarizability:      22.533       0.000       2.237       0.000       0.000       2.237
 Approx polarizability:      33.341       0.000       2.172       0.000       0.000       2.172

 ******    2 imaginary frequencies (negative Signs) ******

                      1                      2                      3
                      A                      A                      A
 Frequencies --  -1398.0552              -292.4942              1025.5034
 Red. masses --      1.0424                 1.0695                 1.0240
 Frc consts  --      1.2004                 0.0539                 0.6345
 IR Inten    --    145.5023                 1.3647                92.1034

                      4
                      A
 Frequencies --   1025.5034
 Red. masses --      1.0240
 Frc consts  --      0.6345
 IR Inten    --     92.1034

 - Thermochemistry -
 -------------------
 Temperature   298.150 Kelvin.  Pressure   1.00000 Atm.
 Atom     1 has atomic number  1 and mass   1.00783

 Molecular mass:    21.01405 amu.
 Principal axes and moments of inertia in atomic units:
                           1         2         3
     Eigenvalues --     0.00000  52.25938  52.25938
           X            1.00000  -0.00000   0.00000
           Y            0.00000   1.00000   0.00000
           Z            0.00000   0.00000   1.00000
 This molecule is a prolate symmetric top.
 Rotational symmetry number  1.
 Rotational temperature (Kelvin)      1.65739
 Rotational constant (GHZ):          34.534305
    2 imaginary frequencies ignored.
 Zero-point vibrational energy      12267.7 (Joules/Mol)
                                    2.93206 (Kcal/Mol)
 Vibrational temperatures:   1475.47  1475.47
          (Kelvin)

 Zero-point correction=                           0.004673 (Hartree/Particle)
 Thermal correction to Energy=                    0.007100
 Thermal correction to Enthalpy=                  0.008044
 Thermal correction to Gibbs Free Energy=        -0.015199
 Sum of electronic and zero-point Energies=           -100.863707
 Sum of electronic and thermal Energies=              -100.861280
 Sum of electronic and thermal Enthalpies=            -100.860336
 Sum of electronic and thermal Free Energies=         -100.883579

                     E (Thermal)             CV                S
                      KCal/Mol        Cal/Mol-Kelvin    Cal/Mol-Kelvin
 Total                    4.455              5.668             48.920
 Electronic               0.000              0.000              1.377
 Translational            0.889              2.981             35.068
 Rotational               0.592              1.987             12.305
 Vibrational              2.974              0.700              0.169

 Normal termination of Gaussian 16 at Fri Aug 22 16:23:00 2025.
