 Gaussian 16, Revision C.01,
 Gaussian 16:  ES64L-G16RevC.01  3-Jul-2019

 -----------------------------------------
 # sp b3lyp/6-311g** Force nosymm scf=(qc)
 -----------------------------------------

 -------------------
 Title Card Required
 -------------------
 Symbolic Z-matrix:
 Charge =  0 Multiplicity = 2

                          Input orientation:
 ---------------------------------------------------------------------
 Center     Atomic      Atomic             Coordinates (Angstroms)
 Number     Number       Type             X           Y           Z
 ---------------------------------------------------------------------
      1          1           0        0.000000    0.000000    0.000000
      2          1           0       -0.800000    0.000000    0.000000
      3          9           0        0.700000    0.000000    0.000000
 ---------------------------------------------------------------------

 SCF Done:  E(UB3LYP) =  -100.792046627     a.u. after    6 cycles

 Alpha  occ. eigenvalues --  -24.66361  -1.33563  -0.66973  -0.44816  -0.44816
 Alpha  occ. eigenvalues --   -0.31953
 Alpha virt. eigenvalues --    0.16792   0.18556   0.76849   0.86798   0.86798
 Alpha virt. eigenvalues --    0.93222   1.09338   1.09338   1.44445   1.70831
 Alpha virt. eigenvalues --    1.79960   1.79960   2.19067   2.51676   3.76089

  Beta  occ. eigenvalues --  -24.65645  -1.31426  -0.63234  -0.44211  -0.44211
  Beta virt. eigenvalues --   -0.12503   0.17469   0.23861   0.81415   0.88616
  Beta virt. eigenvalues --    0.88616   0.95413   1.15263   1.15263   1.46205
  Beta virt. eigenvalues --    1.77283   1.85638   1.85638   2.26983   2.60477

 Mulliken charges and spin densities:
               1          2
     1  H    0.264074  -0.028134
     2  H   -0.061880   0.911709
     3  F   -0.202195   0.116424
 Sum of Mulliken charges =   0.00000   1.00000

 Dipole moment (field-independent basis, Debye):
    X=             -0.9685    Y=             -0.0000    Z=              0.0000  Tot=              0.9685
 Quadrupole moment (field-independent basis, Debye-Ang):
   XX=             -7.4780   YY=             -6.4573   ZZ=             -6.4573
   XY=              0.0000   XZ=              0.0000   YZ=             -0.0000

  Exact polarizability:       8.511       0.000       2.524      -0.000       0.000       2.524
 Approx polarizability:       8.561       0.000       2.600      -0.000       0.000       2.600

 ******    2 imaginary frequencies (negative Signs) ******

                      1                      2                      3
                      A                      A                      A
 Frequencies --  -3942.9539             -3942.9539              3094.1060
 Red. masses --      1.0196                 1.0196                 1.0607
 Frc consts  --      9.3399                 9.3399                 5.9829
 IR Inten    --    115.5039               115.5039               165.1265

                      4
                      A
 Frequencies --   9115.6406
 Red. masses --      1.0509
 Frc consts  --     51.4501
 IR Inten    --     48.2604

 - Thermochemistry -
 -------------------
 Temperature   298.150 Kelvin.  Pressure   1.00000 Atm.
 Atom     1 has atomic number  1 and mass   1.00783

 Molecular mass:    21.01405 amu.
 Principal axes and moments of inertia in atomic units:
                           1         2         3
     Eigenvalues --     0.00000   9.02587   9.02587
           X            1.00000  -0.00000   0.00000
           Y            0.00000   1.00000   0.00000
           Z            0.00000   0.00000   1.00000
 This molecule is a prolate symmetric top.
 Rotational symmetry number  1.
 Rotational temperature (Kelvin)      9.59619
 Rotational constant (GHZ):         199.952139
    2 imaginary frequencies ignored.
 Zero-point vibrational energy      73030.5 (Joules/Mol)
                                   17.45471 (Kcal/Mol)
 Vibrational temperatures:   4451.73 13115.37
          (Kelvin)

 Zero-point correction=                           0.027816 (Hartree/Particle)
 Thermal correction to Energy=                    0.030176
 Thermal correction to Enthalpy=                  0.031121
 Thermal correction to Gibbs Free Energy=         0.009615
 Sum of electronic and zero-point Energies=           -100.764231
 Sum of electronic and thermal Energies=              -100.761870
 Sum of electronic and thermal Enthalpies=            -100.760926
 Sum of electronic and thermal Free Energies=         -100.782431

                     E (Thermal)             CV                S
                      KCal/Mol        Cal/Mol-Kelvin    Cal/Mol-Kelvin
 Total                   18.936              4.968             45.261
 Electronic               0.000              0.000              1.377
 Translational            0.889              2.981             35.068
 Rotational               0.592              1.987              8.816
 Vibrational             17.455              0.000              0.000

 Normal termination of Gaussian 16 at Fri Aug 22 15:45:35 2025.
