 Gaussian 16, Revision C.01,
 Gaussian 16:  ES64L-G16RevC.01  3-Jul-2019

 -----------------------------------------
 # sp b3lyp/6-311g** Force nosymm scf=(qc)
 -----------------------------------------

 -------------------
 Title Card Required
 -------------------
 Symbolic Z-matrix:
 Charge =  0 Multiplicity = 2

                          Input orientation:
 ---------------------------------------------------------------------
 Center     Atomic      Atomic             Coordinates (Angstroms)
 Number     Number       Type             X           Y           Z
 ---------------------------------------------------------------------
      1          1           0        0.000000    0.000000    0.000000
      2          1           0       -1.650000    0.000000    0.000000
      3          9           0        3.650000    0.000000    0.000000
 ---------------------------------------------------------------------

 SCF Done:  E(UB3LYP) =  -100.800133110     a.u. after  217 cycles

 Alpha  occ. eigenvalues --  -24.76278  -1.22168  -0.55371  -0.46552  -0.46527
 Alpha  occ. eigenvalues --   -0.33150
 Alpha virt. eigenvalues --   -0.10411   0.25598   0.30732   0.86007   0.90884
 Alpha virt. eigenvalues --    0.91679   1.01069   1.06966   1.23212   1.23213
 Alpha virt. eigenvalues --    1.38806   1.38809   1.71098   2.18134   2.42795

  Beta  occ. eigenvalues --  -24.73124  -1.13096  -0.43394  -0.43363  -0.33140
  Beta virt. eigenvalues --   -0.26019  -0.10444   0.25575   0.30799   0.92385
  Beta virt. eigenvalues --    0.93134   0.95474   1.05178   1.06961   1.23205
  Beta virt. eigenvalues --    1.23208   1.38797   1.38799   1.71129   2.18323

 Mulliken charges and spin densities:
               1          2
     1  H    0.000697  -0.540597
     2  H   -0.002378   0.540564
     3  F    0.001681   1.000033
 Sum of Mulliken charges =   0.00000   1.00000

 Dipole moment (field-independent basis, Debye):
    X=              0.0366    Y=              0.0000    Z=              0.0000  Tot=              0.0366
 Quadrupole moment (field-independent basis, Debye-Ang):
   XX=             -6.5038   YY=             -7.7710   ZZ=             -6.9069
   XY=              0.0000   XZ=              0.0001   YZ=              0.0122

  Exact polarizability:      23.811      -0.000       2.022       0.000       0.007       2.485
 Approx polarizability:      39.682       0.000       1.992       0.000       0.008       2.574

 ******    2 imaginary frequencies (negative Signs) ******

                      1                      2                      3
                      A                      A                      A
 Frequencies --  -1987.8877               -55.3808               980.3828
 Red. masses --      1.0078                 1.1085                 1.0112
 Frc consts  --      2.3465                 0.0020                 0.5726
 IR Inten    --      0.0280                 0.1051                 0.0020

                      4
                      A
 Frequencies --    981.5721
 Red. masses --      1.0112
 Frc consts  --      0.5740
 IR Inten    --      0.0008

 - Thermochemistry -
 -------------------
 Temperature   298.150 Kelvin.  Pressure   1.00000 Atm.
 Atom     1 has atomic number  1 and mass   1.00783

 Molecular mass:    21.01405 amu.
 Principal axes and moments of inertia in atomic units:
                           1         2         3
     Eigenvalues --     0.00000 135.21770 135.21770
           X            1.00000  -0.00000   0.00000
           Y            0.00000   1.00000   0.00000
           Z            0.00000   0.00000   1.00000
 This molecule is a prolate symmetric top.
 Rotational symmetry number  1.
 Rotational temperature (Kelvin)      0.64055
 Rotational constant (GHZ):          13.346931
    2 imaginary frequencies ignored.
 Zero-point vibrational energy      11735.1 (Joules/Mol)
                                    2.80476 (Kcal/Mol)
 Vibrational temperatures:   1410.55  1412.26
          (Kelvin)

 Zero-point correction=                           0.004470 (Hartree/Particle)
 Thermal correction to Energy=                    0.006909
 Thermal correction to Enthalpy=                  0.007854
 Thermal correction to Gibbs Free Energy=        -0.016303
 Sum of electronic and zero-point Energies=           -100.795663
 Sum of electronic and thermal Energies=              -100.793224
 Sum of electronic and thermal Enthalpies=            -100.792280
 Sum of electronic and thermal Free Energies=         -100.816436

                     E (Thermal)             CV                S
                      KCal/Mol        Cal/Mol-Kelvin    Cal/Mol-Kelvin
 Total                    4.336              5.765             50.842
 Electronic               0.000              0.000              1.377
 Translational            0.889              2.981             35.068
 Rotational               0.592              1.987             14.195
 Vibrational              2.855              0.797              0.202

 Normal termination of Gaussian 16 at Fri Aug 22 23:32:25 2025.
