 Gaussian 16, Revision C.01,
 Gaussian 16:  ES64L-G16RevC.01  3-Jul-2019

 -----------------------------------------
 # sp b3lyp/6-311g** Force nosymm scf=(qc)
 -----------------------------------------

 -------------------
 Title Card Required
 -------------------
 Symbolic Z-matrix:
 Charge =  0 Multiplicity = 2

                          Input orientation:
 ---------------------------------------------------------------------
 Center     Atomic      Atomic             Coordinates (Angstroms)
 Number     Number       Type             X           Y           Z
 ---------------------------------------------------------------------
      1          1           0        0.000000    0.000000    0.000000
      2          1           0       -1.900000    0.000000    0.000000
      3          9           0        1.750000    0.000000    0.000000
 ---------------------------------------------------------------------

 SCF Done:  E(UB3LYP) =  -100.824820683     a.u. after   13 cycles

 Alpha  occ. eigenvalues --  -24.65983  -1.12272  -0.45337  -0.37840  -0.37840
 Alpha  occ. eigenvalues --   -0.37532
 Alpha virt. eigenvalues --   -0.12822   0.23138   0.29338   0.91246   0.94885
 Alpha virt. eigenvalues --    0.94885   1.04484   1.20100   1.20100   1.31329
 Alpha virt. eigenvalues --    1.34144   1.34144   1.71172   2.11875   2.30818

  Beta  occ. eigenvalues --  -24.64113  -1.07139  -0.39015  -0.36019  -0.36019
  Beta virt. eigenvalues --   -0.20591  -0.10266   0.25570   0.30990   0.93731
  Beta virt. eigenvalues --    0.94963   0.94963   1.07951   1.25305   1.25305
  Beta virt. eigenvalues --    1.35640   1.35640   1.41332   1.70228   2.13456

 Mulliken charges and spin densities:
               1          2
     1  H    0.207973  -0.460959
     2  H    0.055381   0.874379
     3  F   -0.263353   0.586580
 Sum of Mulliken charges =   0.00000   1.00000

 Dipole moment (field-independent basis, Debye):
    X=             -2.7627    Y=              0.0000    Z=              0.0000  Tot=              2.7627
 Quadrupole moment (field-independent basis, Debye-Ang):
   XX=             -8.7179   YY=             -7.4474   ZZ=             -7.4474
   XY=              0.0000   XZ=              0.0000   YZ=             -0.0000

  Exact polarizability:      43.275       0.000       2.135       0.000      -0.000       2.135
 Approx polarizability:      56.420       0.000       2.047       0.000      -0.000       2.047

 ******    2 imaginary frequencies (negative Signs) ******

                      1                      2                      3
                      A                      A                      A
 Frequencies --  -1965.4160              -605.7763               804.5493
 Red. masses --      1.0278                 1.0853                 1.0190
 Frc consts  --      2.3392                 0.2346                 0.3886
 IR Inten    --    148.9556                11.9970                26.6323

                      4
                      A
 Frequencies --    804.5493
 Red. masses --      1.0190
 Frc consts  --      0.3886
 IR Inten    --     26.6323

 - Thermochemistry -
 -------------------
 Temperature   298.150 Kelvin.  Pressure   1.00000 Atm.
 Atom     1 has atomic number  1 and mass   1.00783

 Molecular mass:    21.01405 amu.
 Principal axes and moments of inertia in atomic units:
                           1         2         3
     Eigenvalues --     0.00000  53.93654  53.93654
           X            1.00000  -0.00000   0.00000
           Y            0.00000   1.00000   0.00000
           Z            0.00000   0.00000   1.00000
 This molecule is a prolate symmetric top.
 Rotational symmetry number  1.
 Rotational temperature (Kelvin)      1.60585
 Rotational constant (GHZ):          33.460457
    2 imaginary frequencies ignored.
 Zero-point vibrational energy       9624.5 (Joules/Mol)
                                    2.30032 (Kcal/Mol)
 Vibrational temperatures:   1157.57  1157.57
          (Kelvin)

 Zero-point correction=                           0.003666 (Hartree/Particle)
 Thermal correction to Energy=                    0.006180
 Thermal correction to Enthalpy=                  0.007125
 Thermal correction to Gibbs Free Energy=        -0.016262
 Sum of electronic and zero-point Energies=           -100.821155
 Sum of electronic and thermal Energies=              -100.818640
 Sum of electronic and thermal Enthalpies=            -100.817696
 Sum of electronic and thermal Free Energies=         -100.841083

                     E (Thermal)             CV                S
                      KCal/Mol        Cal/Mol-Kelvin    Cal/Mol-Kelvin
 Total                    3.878              6.255             49.221
 Electronic               0.000              0.000              1.377
 Translational            0.889              2.981             35.068
 Rotational               0.592              1.987             12.368
 Vibrational              2.397              1.287              0.407

 Normal termination of Gaussian 16 at Fri Aug 22 16:40:22 2025.
