 Gaussian 16, Revision C.01,
 Gaussian 16:  ES64L-G16RevC.01  3-Jul-2019

 -----------------------------------------
 # sp b3lyp/6-311g** Force nosymm scf=(qc)
 -----------------------------------------

 -------------------
 Title Card Required
 -------------------
 Symbolic Z-matrix:
 Charge =  0 Multiplicity = 2

                          Input orientation:
 ---------------------------------------------------------------------
 Center     Atomic      Atomic             Coordinates (Angstroms)
 Number     Number       Type             X           Y           Z
 ---------------------------------------------------------------------
      1          1           0        0.000000    0.000000    0.000000
      2          1           0       -2.400000    0.000000    0.000000
      3          9           0        2.400000    0.000000    0.000000
 ---------------------------------------------------------------------

 SCF Done:  E(UB3LYP) =  -100.774647506     a.u. after   17 cycles

 Alpha  occ. eigenvalues --  -24.71115  -1.17356  -0.50204  -0.42175  -0.42175
 Alpha  occ. eigenvalues --   -0.34174
 Alpha virt. eigenvalues --   -0.12493   0.24745   0.32756   0.89778   0.93956
 Alpha virt. eigenvalues --    0.93956   1.06667   1.23525   1.23525   1.26988
 Alpha virt. eigenvalues --    1.36874   1.36874   1.44554   2.13977   2.32205

  Beta  occ. eigenvalues --  -24.68333  -1.09453  -0.39405  -0.39405  -0.35677
  Beta virt. eigenvalues --   -0.22989  -0.10095   0.25983   0.34198   0.95267
  Beta virt. eigenvalues --    0.95267   0.95860   1.09295   1.22172   1.22172
  Beta virt. eigenvalues --    1.33415   1.40674   1.40674   1.43123   2.13599

 Mulliken charges and spin densities:
               1          2
     1  H    0.088997  -0.839351
     2  H    0.015378   0.960832
     3  F   -0.104375   0.878518
 Sum of Mulliken charges =  -0.00000   1.00000

 Dipole moment (field-independent basis, Debye):
    X=             -1.4460    Y=              0.0000    Z=              0.0000  Tot=              1.4460
 Quadrupole moment (field-independent basis, Debye-Ang):
   XX=             -8.8724   YY=             -7.6059   ZZ=             -7.6059
   XY=              0.0000   XZ=              0.0000   YZ=              0.0000

  Exact polarizability:      45.568      -0.000       2.018       0.000      -0.000       2.018
 Approx polarizability:      49.465       0.000       1.920       0.000       0.000       1.920

 ******    2 imaginary frequencies (negative Signs) ******

                      1                      2                      3
                      A                      A                      A
 Frequencies --   -926.8158              -381.5321               372.3572
 Red. masses --      1.0198                 1.0944                 1.0179
 Frc consts  --      0.5161                 0.0939                 0.0832
 IR Inten    --     56.4735                30.9982                 6.2385

                      4
                      A
 Frequencies --    372.3572
 Red. masses --      1.0179
 Frc consts  --      0.0832
 IR Inten    --      6.2385

 - Thermochemistry -
 -------------------
 Temperature   298.150 Kelvin.  Pressure   1.00000 Atm.
 Atom     1 has atomic number  1 and mass   1.00783

 Molecular mass:    21.01405 amu.
 Principal axes and moments of inertia in atomic units:
                           1         2         3
     Eigenvalues --     0.00000  94.70350  94.70350
           X            1.00000  -0.00000   0.00000
           Y            0.00000   1.00000   0.00000
           Z            0.00000   0.00000   1.00000
 This molecule is a prolate symmetric top.
 Rotational symmetry number  1.
 Rotational temperature (Kelvin)      0.91458
 Rotational constant (GHZ):          19.056752
    2 imaginary frequencies ignored.
 Zero-point vibrational energy       4454.4 (Joules/Mol)
                                    1.06462 (Kcal/Mol)
 Warning -- explicit consideration of   2 degrees of freedom as
           vibrations may cause significant error
 Vibrational temperatures:    535.74   535.74
          (Kelvin)

 Zero-point correction=                           0.001697 (Hartree/Particle)
 Thermal correction to Energy=                    0.004732
 Thermal correction to Enthalpy=                  0.005676
 Thermal correction to Gibbs Free Energy=        -0.019066
 Sum of electronic and zero-point Energies=           -100.772951
 Sum of electronic and thermal Energies=              -100.769916
 Sum of electronic and thermal Enthalpies=            -100.768972
 Sum of electronic and thermal Free Energies=         -100.793713

                     E (Thermal)             CV                S
                      KCal/Mol        Cal/Mol-Kelvin    Cal/Mol-Kelvin
 Total                    2.969              8.026             52.072
 Electronic               0.000              0.000              1.377
 Translational            0.889              2.981             35.068
 Rotational               0.592              1.987             13.487
 Vibrational              1.488              3.058              2.140
 Vibration     1          0.744              1.529              1.070
 Vibration     2          0.744              1.529              1.070

 Normal termination of Gaussian 16 at Fri Aug 22 17:32:32 2025.
