 Gaussian 16, Revision C.01,
 Gaussian 16:  ES64L-G16RevC.01  3-Jul-2019

 -----------------------------------------
 # sp b3lyp/6-311g** Force nosymm scf=(qc)
 -----------------------------------------

 -------------------
 Title Card Required
 -------------------
 Symbolic Z-matrix:
 Charge =  0 Multiplicity = 2

                          Input orientation:
 ---------------------------------------------------------------------
 Center     Atomic      Atomic             Coordinates (Angstroms)
 Number     Number       Type             X           Y           Z
 ---------------------------------------------------------------------
      1          1           0        0.000000    0.000000    0.000000
      2          1           0       -2.950000    0.000000    0.000000
      3          9           0        0.800000    0.000000    0.000000
 ---------------------------------------------------------------------

 SCF Done:  E(UB3LYP) =  -100.950418136     a.u. after    6 cycles

 Alpha  occ. eigenvalues --  -24.63654  -1.23017  -0.56176  -0.40627  -0.40627
 Alpha  occ. eigenvalues --   -0.34027
 Alpha virt. eigenvalues --    0.05485   0.25371   0.45750   0.94226   0.94226
 Alpha virt. eigenvalues --    0.97007   1.22132   1.23504   1.23504   1.33698
 Alpha virt. eigenvalues --    1.39843   1.39843   2.02971   2.14743   2.53097

  Beta  occ. eigenvalues --  -24.63650  -1.23007  -0.56165  -0.40625  -0.40625
  Beta virt. eigenvalues --   -0.06771   0.06602   0.38932   0.45968   0.94227
  Beta virt. eigenvalues --    0.94227   0.96998   1.30417   1.39842   1.39842
  Beta virt. eigenvalues --    1.49953   1.49953   1.51018   2.03054   2.43901

 Mulliken charges and spin densities:
               1          2
     1  H    0.273228   0.001584
     2  H    0.002292   0.996845
     3  F   -0.275520   0.001571
 Sum of Mulliken charges =   0.00000   1.00000

 Dipole moment (field-independent basis, Debye):
    X=             -1.7662    Y=              0.0000    Z=             -0.0000  Tot=              1.7662
 Quadrupole moment (field-independent basis, Debye-Ang):
   XX=             -7.5094   YY=             -6.7678   ZZ=             -6.7678
   XY=              0.0000   XZ=             -0.0000   YZ=              0.0000

  Exact polarizability:       5.422      -0.000       2.454       0.000       0.000       2.454
 Approx polarizability:       5.884       0.000       2.437       0.000       0.000       2.437

 ******    3 imaginary frequencies (negative Signs) ******

                      1                      2                      3
                      A                      A                      A
 Frequencies --  -1970.6644             -1970.6644               -43.9217
 Red. masses --      1.0377                 1.0377                 1.0532
 Frc consts  --      2.3745                 2.3745                 0.0012
 IR Inten    --    190.4836               190.4836                 0.1477

                      4
                      A
 Frequencies --   6348.9944
 Red. masses --      1.0583
 Frc consts  --     25.1350
 IR Inten    --    113.7345

 - Thermochemistry -
 -------------------
 Temperature   298.150 Kelvin.  Pressure   1.00000 Atm.
 Atom     1 has atomic number  1 and mass   1.00783

 Molecular mass:    21.01405 amu.
 Principal axes and moments of inertia in atomic units:
                           1         2         3
     Eigenvalues --     0.00000  49.34103  49.34103
           X            1.00000  -0.00000   0.00000
           Y            0.00000   1.00000   0.00000
           Z            0.00000   0.00000   1.00000
 This molecule is a prolate symmetric top.
 Rotational symmetry number  1.
 Rotational temperature (Kelvin)      1.75541
 Rotational constant (GHZ):          36.576887
    3 imaginary frequencies ignored.
 Zero-point vibrational energy      37975.4 (Joules/Mol)
                                    9.07634 (Kcal/Mol)
 Vibrational temperatures:   9134.79
          (Kelvin)

 Zero-point correction=                           0.014464 (Hartree/Particle)
 Thermal correction to Energy=                    0.016825
 Thermal correction to Enthalpy=                  0.017769
 Thermal correction to Gibbs Free Energy=        -0.005340
 Sum of electronic and zero-point Energies=           -100.935954
 Sum of electronic and thermal Energies=              -100.933594
 Sum of electronic and thermal Enthalpies=            -100.932649
 Sum of electronic and thermal Free Energies=         -100.955758

                     E (Thermal)             CV                S
                      KCal/Mol        Cal/Mol-Kelvin    Cal/Mol-Kelvin
 Total                   10.558              4.968             48.637
 Electronic               0.000              0.000              1.377
 Translational            0.889              2.981             35.068
 Rotational               0.592              1.987             12.191
 Vibrational              9.076              0.000              0.000

 Normal termination of Gaussian 16 at Fri Aug 22 15:51:43 2025.
