 Gaussian 16, Revision C.01,
 Gaussian 16:  ES64L-G16RevC.01  3-Jul-2019

 -----------------------------------------
 # sp b3lyp/6-311g** Force nosymm scf=(qc)
 -----------------------------------------

 -------------------
 Title Card Required
 -------------------
 Symbolic Z-matrix:
 Charge =  0 Multiplicity = 2

                          Input orientation:
 ---------------------------------------------------------------------
 Center     Atomic      Atomic             Coordinates (Angstroms)
 Number     Number       Type             X           Y           Z
 ---------------------------------------------------------------------
      1          1           0        0.000000    0.000000    0.000000
      2          1           0       -3.300000    0.000000    0.000000
      3          9           0        1.050000    0.000000    0.000000
 ---------------------------------------------------------------------

 SCF Done:  E(UB3LYP) =  -100.958314323     a.u. after    6 cycles

 Alpha  occ. eigenvalues --  -24.64236  -1.14867  -0.50604  -0.38425  -0.38425
 Alpha  occ. eigenvalues --   -0.33924
 Alpha virt. eigenvalues --   -0.00832   0.23899   0.32640   0.93818   0.93818
 Alpha virt. eigenvalues --    0.99069   1.23450   1.23597   1.23597   1.29773
 Alpha virt. eigenvalues --    1.35539   1.35539   1.84710   2.14215   2.33092

  Beta  occ. eigenvalues --  -24.64233  -1.14857  -0.50593  -0.38422  -0.38422
  Beta virt. eigenvalues --   -0.06808   0.00116   0.31571   0.38928   0.93819
  Beta virt. eigenvalues --    0.93819   0.99074   1.29436   1.35535   1.35535
  Beta virt. eigenvalues --    1.48967   1.48967   1.49242   1.84754   2.32996

 Mulliken charges and spin densities:
               1          2
     1  H    0.330351   0.000682
     2  H    0.001596   0.998096
     3  F   -0.331947   0.001222
 Sum of Mulliken charges =   0.00000   1.00000

 Dipole moment (field-independent basis, Debye):
    X=             -2.1148    Y=              0.0000    Z=              0.0000  Tot=              2.1148
 Quadrupole moment (field-independent basis, Debye-Ang):
   XX=             -8.3458   YY=             -7.0060   ZZ=             -7.0060
   XY=              0.0000   XZ=              0.0000   YZ=              0.0000

  Exact polarizability:       7.623      -0.000       2.385       0.000      -0.000       2.385
 Approx polarizability:       9.530       0.000       2.354       0.000      -0.000       2.354

 ******    1 imaginary frequencies (negative Signs) ******

                      1                      2                      3
                      A                      A                      A
 Frequencies --    -62.5781              1118.3796              1118.3796
 Red. masses --      1.0531                 1.0353                 1.0353
 Frc consts  --      0.0024                 0.7630                 0.7630
 IR Inten    --      0.1212               161.2245               161.2245

                      4
                      A
 Frequencies --   2451.1503
 Red. masses --      1.0584
 Frc consts  --      3.7467
 IR Inten    --     87.4180

 - Thermochemistry -
 -------------------
 Temperature   298.150 Kelvin.  Pressure   1.00000 Atm.
 Atom     1 has atomic number  1 and mass   1.00783

 Molecular mass:    21.01405 amu.
 Principal axes and moments of inertia in atomic units:
                           1         2         3
     Eigenvalues --     0.00000  67.03693  67.03693
           X            1.00000  -0.00000   0.00000
           Y            0.00000   1.00000   0.00000
           Z            0.00000   0.00000   1.00000
 This molecule is a prolate symmetric top.
 Rotational symmetry number  1.
 Rotational temperature (Kelvin)      1.29203
 Rotational constant (GHZ):          26.921598
    1 imaginary frequencies ignored.
 Zero-point vibrational energy      28039.9 (Joules/Mol)
                                    6.70170 (Kcal/Mol)
 Vibrational temperatures:   1609.10  1609.10  3526.66
          (Kelvin)

 Zero-point correction=                           0.010680 (Hartree/Particle)
 Thermal correction to Energy=                    0.013087
 Thermal correction to Enthalpy=                  0.014031
 Thermal correction to Gibbs Free Energy=        -0.009422
 Sum of electronic and zero-point Energies=           -100.947634
 Sum of electronic and thermal Energies=              -100.945228
 Sum of electronic and thermal Enthalpies=            -100.944283
 Sum of electronic and thermal Free Energies=         -100.967737

                     E (Thermal)             CV                S
                      KCal/Mol        Cal/Mol-Kelvin    Cal/Mol-Kelvin
 Total                    8.212              5.499             49.362
 Electronic               0.000              0.000              1.377
 Translational            0.889              2.981             35.068
 Rotational               0.592              1.987             12.800
 Vibrational              6.731              0.531              0.116

 Normal termination of Gaussian 16 at Fri Aug 22 16:03:48 2025.
