 Gaussian 16, Revision C.01,
 Gaussian 16:  ES64L-G16RevC.01  3-Jul-2019

 -----------------------------------------
 # sp b3lyp/6-311g** Force nosymm scf=(qc)
 -----------------------------------------

 -------------------
 Title Card Required
 -------------------
 Symbolic Z-matrix:
 Charge =  0 Multiplicity = 2

                          Input orientation:
 ---------------------------------------------------------------------
 Center     Atomic      Atomic             Coordinates (Angstroms)
 Number     Number       Type             X           Y           Z
 ---------------------------------------------------------------------
      1          1           0        0.000000    0.000000    0.000000
      2          1           0       -4.000000    0.000000    0.000000
      3          9           0        1.700000    0.000000    0.000000
 ---------------------------------------------------------------------

 SCF Done:  E(UB3LYP) =  -100.814431845     a.u. after    9 cycles

 Alpha  occ. eigenvalues --  -24.64269  -1.08887  -0.40988  -0.36031  -0.36031
 Alpha  occ. eigenvalues --   -0.33624
 Alpha virt. eigenvalues --   -0.18817   0.20136   0.26570   0.94843   0.94843
 Alpha virt. eigenvalues --    0.96395   1.07262   1.23841   1.23881   1.23881
 Alpha virt. eigenvalues --    1.27610   1.27610   1.70065   2.12106   2.16842

  Beta  occ. eigenvalues --  -24.64275  -1.08902  -0.40997  -0.36037  -0.36037
  Beta virt. eigenvalues --   -0.18841  -0.06220   0.22484   0.38112   0.94846
  Beta virt. eigenvalues --    0.94846   0.96405   1.07261   1.27652   1.27652
  Beta virt. eigenvalues --    1.46356   1.46637   1.46637   1.70103   2.15263

 Mulliken charges and spin densities:
               1          2
     1  H    0.327196   0.002377
     2  H    0.000682   0.999284
     3  F   -0.327878  -0.001662
 Sum of Mulliken charges =  -0.00000   1.00000

 Dipole moment (field-independent basis, Debye):
    X=             -2.7587    Y=             -0.0000    Z=              0.0000  Tot=              2.7587
 Quadrupole moment (field-independent basis, Debye-Ang):
   XX=            -10.7223   YY=             -7.4177   ZZ=             -7.4177
   XY=              0.0000   XZ=              0.0000   YZ=              0.0000

  Exact polarizability:      19.000      -0.000       2.103       0.000      -0.000       2.103
 Approx polarizability:      45.846      -0.000       2.014       0.000      -0.000       2.014

 ******    2 imaginary frequencies (negative Signs) ******

                      1                      2                      3
                      A                      A                      A
 Frequencies --  -1180.4634               -49.9493               873.1568
 Red. masses --      1.0581                 1.0535                 1.0307
 Frc consts  --      0.8687                 0.0015                 0.4630
 IR Inten    --     29.3557                 0.0574               104.2682

                      4
                      A
 Frequencies --    873.1568
 Red. masses --      1.0307
 Frc consts  --      0.4630
 IR Inten    --    104.2682

 - Thermochemistry -
 -------------------
 Temperature   298.150 Kelvin.  Pressure   1.00000 Atm.
 Atom     1 has atomic number  1 and mass   1.00783

 Molecular mass:    21.01405 amu.
 Principal axes and moments of inertia in atomic units:
                           1         2         3
     Eigenvalues --     0.00000 117.88097 117.88097
           X            1.00000  -0.00000   0.00000
           Y            0.00000   1.00000   0.00000
           Z            0.00000   0.00000   1.00000
 This molecule is a prolate symmetric top.
 Rotational symmetry number  1.
 Rotational temperature (Kelvin)      0.73476
 Rotational constant (GHZ):          15.309861
    2 imaginary frequencies ignored.
 Zero-point vibrational energy      10445.3 (Joules/Mol)
                                    2.49648 (Kcal/Mol)
 Vibrational temperatures:   1256.28  1256.28
          (Kelvin)

 Zero-point correction=                           0.003978 (Hartree/Particle)
 Thermal correction to Energy=                    0.006458
 Thermal correction to Enthalpy=                  0.007403
 Thermal correction to Gibbs Free Energy=        -0.016676
 Sum of electronic and zero-point Energies=           -100.810453
 Sum of electronic and thermal Energies=              -100.807974
 Sum of electronic and thermal Enthalpies=            -100.807029
 Sum of electronic and thermal Free Energies=         -100.831108

                     E (Thermal)             CV                S
                      KCal/Mol        Cal/Mol-Kelvin    Cal/Mol-Kelvin
 Total                    4.053              6.043             50.678
 Electronic               0.000              0.000              1.377
 Translational            0.889              2.981             35.068
 Rotational               0.592              1.987             13.922
 Vibrational              2.571              1.075              0.311

 Normal termination of Gaussian 16 at Fri Aug 22 16:39:07 2025.
