 Gaussian 16, Revision C.01,
 Gaussian 16:  ES64L-G16RevC.01  3-Jul-2019

 -----------------------------------------
 # sp b3lyp/6-311g** Force nosymm scf=(qc)
 -----------------------------------------

 -------------------
 Title Card Required
 -------------------
 Symbolic Z-matrix:
 Charge =  0 Multiplicity = 2

                          Input orientation:
 ---------------------------------------------------------------------
 Center     Atomic      Atomic             Coordinates (Angstroms)
 Number     Number       Type             X           Y           Z
 ---------------------------------------------------------------------
      1          1           0        0.000000    0.000000    0.000000
      2          1           0       -2.600000    0.000000    0.000000
      3          9           0        2.150000    0.000000    0.000000
 ---------------------------------------------------------------------

 SCF Done:  E(UB3LYP) =  -100.781487691     a.u. after   21 cycles

 Alpha  occ. eigenvalues --  -24.69344  -1.15655  -0.48386  -0.40692  -0.40692
 Alpha  occ. eigenvalues --   -0.34301
 Alpha virt. eigenvalues --   -0.13145   0.24106   0.32051   0.88914   0.94671
 Alpha virt. eigenvalues --    0.94671   1.06371   1.23317   1.23317   1.25773
 Alpha virt. eigenvalues --    1.36253   1.36253   1.53251   2.14345   2.30507

  Beta  occ. eigenvalues --  -24.66773  -1.08414  -0.38146  -0.38146  -0.36922
  Beta virt. eigenvalues --   -0.21720  -0.09444   0.25036   0.35102   0.92184
  Beta virt. eigenvalues --    0.95676   0.95676   1.08744   1.21794   1.21794
  Beta virt. eigenvalues --    1.42070   1.42070   1.42091   1.46157   2.13227

 Mulliken charges and spin densities:
               1          2
     1  H    0.141909  -0.786710
     2  H    0.012518   0.977175
     3  F   -0.154427   0.809535
 Sum of Mulliken charges =   0.00000   1.00000

 Dipole moment (field-independent basis, Debye):
    X=             -1.8147    Y=             -0.0000    Z=              0.0000  Tot=              1.8147
 Quadrupole moment (field-independent basis, Debye-Ang):
   XX=             -9.3868   YY=             -7.5493   ZZ=             -7.5493
   XY=              0.0000   XZ=             -0.0000   YZ=              0.0000

  Exact polarizability:      37.481       0.000       2.039      -0.000       0.000       2.039
 Approx polarizability:      44.962       0.000       1.932      -0.000      -0.000       1.932

 ******    2 imaginary frequencies (negative Signs) ******

                      1                      2                      3
                      A                      A                      A
 Frequencies --  -1006.2234              -350.3497               418.1609
 Red. masses --      1.0412                 1.0708                 1.0204
 Frc consts  --      0.6211                 0.0774                 0.1051
 IR Inten    --     89.1273                12.8258                17.0753

                      4
                      A
 Frequencies --    418.1609
 Red. masses --      1.0204
 Frc consts  --      0.1051
 IR Inten    --     17.0753

 - Thermochemistry -
 -------------------
 Temperature   298.150 Kelvin.  Pressure   1.00000 Atm.
 Atom     1 has atomic number  1 and mass   1.00783

 Molecular mass:    21.01405 amu.
 Principal axes and moments of inertia in atomic units:
                           1         2         3
     Eigenvalues --     0.00000  89.62123  89.62123
           X            1.00000  -0.00000   0.00000
           Y            0.00000   1.00000   0.00000
           Z            0.00000   0.00000   1.00000
 This molecule is a prolate symmetric top.
 Rotational symmetry number  1.
 Rotational temperature (Kelvin)      0.96644
 Rotational constant (GHZ):          20.137429
    2 imaginary frequencies ignored.
 Zero-point vibrational energy       5002.3 (Joules/Mol)
                                    1.19558 (Kcal/Mol)
 Warning -- explicit consideration of   2 degrees of freedom as
           vibrations may cause significant error
 Vibrational temperatures:    601.64   601.64
          (Kelvin)

 Zero-point correction=                           0.001905 (Hartree/Particle)
 Thermal correction to Energy=                    0.004850
 Thermal correction to Enthalpy=                  0.005794
 Thermal correction to Gibbs Free Energy=        -0.018732
 Sum of electronic and zero-point Energies=           -100.779582
 Sum of electronic and thermal Energies=              -100.776638
 Sum of electronic and thermal Enthalpies=            -100.775694
 Sum of electronic and thermal Free Energies=         -100.800220

                     E (Thermal)             CV                S
                      KCal/Mol        Cal/Mol-Kelvin    Cal/Mol-Kelvin
 Total                    3.043              7.830             51.619
 Electronic               0.000              0.000              1.377
 Translational            0.889              2.981             35.068
 Rotational               0.592              1.987             13.377
 Vibrational              1.562              2.862              1.796
 Vibration     1          0.781              1.431              0.898
 Vibration     2          0.781              1.431              0.898

 Normal termination of Gaussian 16 at Fri Aug 22 17:08:13 2025.
