 Gaussian 16, Revision C.01,
 Gaussian 16:  ES64L-G16RevC.01  3-Jul-2019

 -----------------------------------------
 # sp b3lyp/6-311g** Force nosymm scf=(qc)
 -----------------------------------------

 -------------------
 Title Card Required
 -------------------
 Symbolic Z-matrix:
 Charge =  0 Multiplicity = 2

                          Input orientation:
 ---------------------------------------------------------------------
 Center     Atomic      Atomic             Coordinates (Angstroms)
 Number     Number       Type             X           Y           Z
 ---------------------------------------------------------------------
      1          1           0        0.000000    0.000000    0.000000
      2          1           0       -3.700000    0.000000    0.000000
      3          9           0        3.100000    0.000000    0.000000
 ---------------------------------------------------------------------

 SCF Done:  E(UB3LYP) =  -100.760332587     a.u. after   21 cycles

 Alpha  occ. eigenvalues --  -24.74416  -1.20452  -0.53537  -0.44952  -0.44952
 Alpha  occ. eigenvalues --   -0.32452
 Alpha virt. eigenvalues --   -0.07621   0.23974   0.36370   0.89015   0.92076
 Alpha virt. eigenvalues --    0.92076   1.03346   1.25048   1.25048   1.25120
 Alpha virt. eigenvalues --    1.44628   1.44628   1.44913   2.14625   2.40847

  Beta  occ. eigenvalues --  -24.71366  -1.11705  -0.41898  -0.41898  -0.33494
  Beta virt. eigenvalues --   -0.24960  -0.06241   0.23822   0.38066   0.93545
  Beta virt. eigenvalues --    0.93545   0.97825   1.07146   1.23852   1.23852
  Beta virt. eigenvalues --    1.24067   1.46216   1.46424   1.46424   2.14843

 Mulliken charges and spin densities:
               1          2
     1  H    0.030132  -0.965480
     2  H    0.000227   0.998733
     3  F   -0.030359   0.966747
 Sum of Mulliken charges =  -0.00000   1.00000

 Dipole moment (field-independent basis, Debye):
    X=             -0.4875    Y=             -0.0000    Z=             -0.0000  Tot=              0.4875
 Quadrupole moment (field-independent basis, Debye-Ang):
   XX=             -8.1255   YY=             -7.6109   ZZ=             -7.6109
   XY=             -0.0000   XZ=             -0.0000   YZ=             -0.0000

  Exact polarizability:      30.539      -0.000       2.028      -0.000      -0.000       2.028
 Approx polarizability:      29.657      -0.000       1.928      -0.000       0.000       1.928

 ******    2 imaginary frequencies (negative Signs) ******

                      1                      2                      3
                      A                      A                      A
 Frequencies --   -333.7175               -95.1421               114.4770
 Red. masses --      1.0487                 1.0629                 1.0202
 Frc consts  --      0.0688                 0.0057                 0.0079
 IR Inten    --     32.7136                 0.3316                 0.8552

                      4
                      A
 Frequencies --    114.4770
 Red. masses --      1.0202
 Frc consts  --      0.0079
 IR Inten    --      0.8552

 - Thermochemistry -
 -------------------
 Temperature   298.150 Kelvin.  Pressure   1.00000 Atm.
 Atom     1 has atomic number  1 and mass   1.00783

 Molecular mass:    21.01405 amu.
 Principal axes and moments of inertia in atomic units:
                           1         2         3
     Eigenvalues --     0.00000 184.08742 184.08742
           X            1.00000  -0.00000   0.00000
           Y            0.00000   1.00000   0.00000
           Z            0.00000   0.00000   1.00000
 This molecule is a prolate symmetric top.
 Rotational symmetry number  1.
 Rotational temperature (Kelvin)      0.47050
 Rotational constant (GHZ):           9.803718
    2 imaginary frequencies ignored.
 Zero-point vibrational energy       1369.4 (Joules/Mol)
                                    0.32731 (Kcal/Mol)
 Warning -- explicit consideration of   2 degrees of freedom as
           vibrations may cause significant error
 Vibrational temperatures:    164.71   164.71
          (Kelvin)

 Zero-point correction=                           0.000522 (Hartree/Particle)
 Thermal correction to Energy=                    0.004297
 Thermal correction to Enthalpy=                  0.005241
 Thermal correction to Gibbs Free Energy=        -0.022144
 Sum of electronic and zero-point Energies=           -100.759811
 Sum of electronic and thermal Energies=              -100.756036
 Sum of electronic and thermal Enthalpies=            -100.755092
 Sum of electronic and thermal Free Energies=         -100.782477

                     E (Thermal)             CV                S
                      KCal/Mol        Cal/Mol-Kelvin    Cal/Mol-Kelvin
 Total                    2.696              8.843             57.636
 Electronic               0.000              0.000              1.377
 Translational            0.889              2.981             35.068
 Rotational               0.592              1.987             14.808
 Vibrational              1.215              3.875              6.383
 Vibration     1          0.607              1.937              3.192
 Vibration     2          0.607              1.937              3.192

 Normal termination of Gaussian 16 at Fri Aug 22 19:56:32 2025.
