 Gaussian 16, Revision C.01,
 Gaussian 16:  ES64L-G16RevC.01  3-Jul-2019

 -----------------------------------------
 # sp b3lyp/6-311g** Force nosymm scf=(qc)
 -----------------------------------------

 -------------------
 Title Card Required
 -------------------
 Symbolic Z-matrix:
 Charge =  0 Multiplicity = 2

                          Input orientation:
 ---------------------------------------------------------------------
 Center     Atomic      Atomic             Coordinates (Angstroms)
 Number     Number       Type             X           Y           Z
 ---------------------------------------------------------------------
      1          1           0        0.000000    0.000000    0.000000
      2          1           0       -2.300000    0.000000    0.000000
      3          9           0        1.950000    0.000000    0.000000
 ---------------------------------------------------------------------

 SCF Done:  E(UB3LYP) =  -100.796577076     a.u. after   12 cycles

 Alpha  occ. eigenvalues --  -24.67646  -1.13958  -0.46639  -0.39243  -0.39243
 Alpha  occ. eigenvalues --   -0.35568
 Alpha virt. eigenvalues --   -0.13973   0.24034   0.30460   0.90166   0.95043
 Alpha virt. eigenvalues --    0.95043   1.06055   1.22169   1.22169   1.26758
 Alpha virt. eigenvalues --    1.34349   1.34349   1.62252   2.12309   2.28275

  Beta  occ. eigenvalues --  -24.65361  -1.07590  -0.37904  -0.36995  -0.36995
  Beta virt. eigenvalues --   -0.20625  -0.10651   0.25266   0.33621   0.92255
  Beta virt. eigenvalues --    0.95579   0.95579   1.08761   1.22928   1.22928
  Beta virt. eigenvalues --    1.39331   1.39331   1.42371   1.56625   2.12724

 Mulliken charges and spin densities:
               1          2
     1  H    0.178370  -0.667794
     2  H    0.027896   0.949560
     3  F   -0.206266   0.718234
 Sum of Mulliken charges =   0.00000   1.00000

 Dipole moment (field-independent basis, Debye):
    X=             -2.2921    Y=              0.0000    Z=              0.0000  Tot=              2.2921
 Quadrupole moment (field-independent basis, Debye-Ang):
   XX=             -9.1997   YY=             -7.5197   ZZ=             -7.5197
   XY=              0.0000   XZ=              0.0000   YZ=              0.0000

  Exact polarizability:      41.174      -0.000       2.068      -0.000       0.000       2.068
 Approx polarizability:      49.267      -0.000       1.964      -0.000      -0.000       1.964

 ******    2 imaginary frequencies (negative Signs) ******

                      1                      2                      3
                      A                      A                      A
 Frequencies --  -1364.9220              -479.6847               571.4136
 Red. masses --      1.0367                 1.0756                 1.0201
 Frc consts  --      1.1379                 0.1458                 0.1962
 IR Inten    --     89.1093                23.2521                24.3556

                      4
                      A
 Frequencies --    571.4136
 Red. masses --      1.0201
 Frc consts  --      0.1962
 IR Inten    --     24.3556

 - Thermochemistry -
 -------------------
 Temperature   298.150 Kelvin.  Pressure   1.00000 Atm.
 Atom     1 has atomic number  1 and mass   1.00783

 Molecular mass:    21.01405 amu.
 Principal axes and moments of inertia in atomic units:
                           1         2         3
     Eigenvalues --     0.00000  72.05731  72.05731
           X            1.00000  -0.00000   0.00000
           Y            0.00000   1.00000   0.00000
           Z            0.00000   0.00000   1.00000
 This molecule is a prolate symmetric top.
 Rotational symmetry number  1.
 Rotational temperature (Kelvin)      1.20201
 Rotational constant (GHZ):          25.045914
    2 imaginary frequencies ignored.
 Zero-point vibrational energy       6835.6 (Joules/Mol)
                                    1.63375 (Kcal/Mol)
 Warning -- explicit consideration of   2 degrees of freedom as
           vibrations may cause significant error
 Vibrational temperatures:    822.14   822.14
          (Kelvin)

 Zero-point correction=                           0.002604 (Hartree/Particle)
 Thermal correction to Energy=                    0.005317
 Thermal correction to Enthalpy=                  0.006261
 Thermal correction to Gibbs Free Energy=        -0.017682
 Sum of electronic and zero-point Energies=           -100.793974
 Sum of electronic and thermal Energies=              -100.791260
 Sum of electronic and thermal Enthalpies=            -100.790316
 Sum of electronic and thermal Free Energies=         -100.814259

                     E (Thermal)             CV                S
                      KCal/Mol        Cal/Mol-Kelvin    Cal/Mol-Kelvin
 Total                    3.336              7.154             50.392
 Electronic               0.000              0.000              1.377
 Translational            0.889              2.981             35.068
 Rotational               0.592              1.987             12.944
 Vibrational              1.855              2.186              1.003
 Vibration     1          0.928              1.093              0.502
 Vibration     2          0.928              1.093              0.502

 Normal termination of Gaussian 16 at Fri Aug 22 16:53:34 2025.
