 Gaussian 16, Revision C.01,
 Gaussian 16:  ES64L-G16RevC.01  3-Jul-2019

 -----------------------------------------
 # sp b3lyp/6-311g** Force nosymm scf=(qc)
 -----------------------------------------

 -------------------
 Title Card Required
 -------------------
 Symbolic Z-matrix:
 Charge =  0 Multiplicity = 2

                          Input orientation:
 ---------------------------------------------------------------------
 Center     Atomic      Atomic             Coordinates (Angstroms)
 Number     Number       Type             X           Y           Z
 ---------------------------------------------------------------------
      1          1           0        0.000000    0.000000    0.000000
      2          1           0       -1.050000    0.000000    0.000000
      3          9           0        3.050000    0.000000    0.000000
 ---------------------------------------------------------------------

 SCF Done:  E(UB3LYP) =  -100.899034638     a.u. after  114 cycles

 Alpha  occ. eigenvalues --  -24.76632  -1.22453  -0.55645  -0.46888  -0.46795
 Alpha  occ. eigenvalues --   -0.38027
 Alpha virt. eigenvalues --   -0.00528   0.21926   0.37682   0.85809   0.90682
 Alpha virt. eigenvalues --    0.93482   1.04003   1.10046   1.10052   1.33828
 Alpha virt. eigenvalues --    1.62957   1.62964   2.21397   2.35969   2.56724

  Beta  occ. eigenvalues --  -24.73471  -1.13368  -0.43733  -0.43626  -0.38009
  Beta virt. eigenvalues --   -0.26271  -0.00506   0.21948   0.37762   0.92181
  Beta virt. eigenvalues --    0.95179   0.95267   1.07847   1.10046   1.10052
  Beta virt. eigenvalues --    1.33836   1.62956   1.62963   2.21410   2.35975

 Mulliken charges and spin densities:
               1          2
     1  H   -0.002288  -0.000588
     2  H   -0.005434  -0.000413
     3  F    0.007723   1.001001
 Sum of Mulliken charges =  -0.00000   1.00000

 Dipole moment (field-independent basis, Debye):
    X=              0.0945    Y=             -0.0000    Z=              0.0000  Tot=              0.0945
 Quadrupole moment (field-independent basis, Debye-Ang):
   XX=             -6.1484   YY=             -7.1441   ZZ=             -6.6698
   XY=              0.0000   XZ=             -0.0000   YZ=             -0.3609

  Exact polarizability:      13.484      -0.000       2.174      -0.000      -0.192       2.427
 Approx polarizability:      18.080       0.000       2.247      -0.000      -0.242       2.566

                      1                      2                      3
                      A                      A                      A
 Frequencies --     45.6135              1411.6034              1542.4407
 Red. masses --      1.1085                 1.0078                 1.0100
 Frc consts  --      0.0014                 1.1832                 1.4157
 IR Inten    --      0.3926                 0.6727                 0.0001

                      4
                      A
 Frequencies --   1543.5177
 Red. masses --      1.0100
 Frc consts  --      1.4177
 IR Inten    --      0.0001

 - Thermochemistry -
 -------------------
 Temperature   298.150 Kelvin.  Pressure   1.00000 Atm.
 Atom     1 has atomic number  1 and mass   1.00783

 Molecular mass:    21.01405 amu.
 Principal axes and moments of inertia in atomic units:
                           1         2         3
     Eigenvalues --     0.00000  85.15501  85.15501
           X            1.00000  -0.00000   0.00000
           Y            0.00000   1.00000   0.00000
           Z            0.00000   0.00000   1.00000
 This molecule is a prolate symmetric top.
 Rotational symmetry number  1.
 Rotational temperature (Kelvin)      1.01713
 Rotational constant (GHZ):          21.193599
 Zero-point vibrational energy      27174.2 (Joules/Mol)
                                    6.49480 (Kcal/Mol)
 Warning -- explicit consideration of   1 degrees of freedom as
           vibrations may cause significant error
 Vibrational temperatures:     65.63  2030.98  2219.23  2220.78
          (Kelvin)

 Zero-point correction=                           0.010350 (Hartree/Particle)
 Thermal correction to Energy=                    0.013570
 Thermal correction to Enthalpy=                  0.014514
 Thermal correction to Gibbs Free Energy=        -0.011503
 Sum of electronic and zero-point Energies=           -100.888685
 Sum of electronic and thermal Energies=              -100.885465
 Sum of electronic and thermal Enthalpies=            -100.884520
 Sum of electronic and thermal Free Energies=         -100.910537

                     E (Thermal)             CV                S
                      KCal/Mol        Cal/Mol-Kelvin    Cal/Mol-Kelvin
 Total                    8.515              7.178             54.757
 Electronic               0.000              0.000              1.377
 Translational            0.889              2.981             35.068
 Rotational               0.592              1.987             13.276
 Vibrational              7.034              2.210              5.036
 Vibration     1          0.595              1.979              4.999

 Normal termination of Gaussian 16 at Fri Aug 22 19:39:23 2025.
