 Gaussian 16, Revision C.01,
 Gaussian 16:  ES64L-G16RevC.01  3-Jul-2019

 -----------------------------------------
 # sp b3lyp/6-311g** Force nosymm scf=(qc)
 -----------------------------------------

 -------------------
 Title Card Required
 -------------------
 Symbolic Z-matrix:
 Charge =  0 Multiplicity = 2

                          Input orientation:
 ---------------------------------------------------------------------
 Center     Atomic      Atomic             Coordinates (Angstroms)
 Number     Number       Type             X           Y           Z
 ---------------------------------------------------------------------
      1          1           0        0.000000    0.000000    0.000000
      2          1           0       -2.300000    0.000000    0.000000
      3          9           0        3.200000    0.000000    0.000000
 ---------------------------------------------------------------------

 SCF Done:  E(UB3LYP) =  -100.766628364     a.u. after   29 cycles

 Alpha  occ. eigenvalues --  -24.74841  -1.20842  -0.53960  -0.45307  -0.45307
 Alpha  occ. eigenvalues --   -0.33067
 Alpha virt. eigenvalues --   -0.10646   0.25660   0.33223   0.88755   0.91816
 Alpha virt. eigenvalues --    0.91816   1.02858   1.24696   1.24696   1.25163
 Alpha virt. eigenvalues --    1.39284   1.39284   1.43258   2.14504   2.35698

  Beta  occ. eigenvalues --  -24.71765  -1.12014  -0.42226  -0.42226  -0.33436
  Beta virt. eigenvalues --   -0.25220  -0.09922   0.25671   0.34129   0.93292
  Beta virt. eigenvalues --    0.93292   0.97720   1.06825   1.24229   1.24229
  Beta virt. eigenvalues --    1.24623   1.40426   1.40426   1.44335   2.15518

 Mulliken charges and spin densities:
               1          2
     1  H    0.015965  -0.920818
     2  H    0.006300   0.945819
     3  F   -0.022265   0.974999
 Sum of Mulliken charges =  -0.00000   1.00000

 Dipole moment (field-independent basis, Debye):
    X=             -0.4347    Y=             -0.0000    Z=             -0.0000  Tot=              0.4347
 Quadrupole moment (field-independent basis, Debye-Ang):
   XX=             -7.3967   YY=             -7.6797   ZZ=             -7.6797
   XY=             -0.0000   XZ=             -0.0000   YZ=              0.0000

  Exact polarizability:      46.415      -0.000       2.013      -0.000      -0.000       2.013
 Approx polarizability:      37.877      -0.000       1.925      -0.000       0.000       1.925

 ******    2 imaginary frequencies (negative Signs) ******

                      1                      2                      3
                      A                      A                      A
 Frequencies --   -898.6885              -194.9578               340.7002
 Red. masses --      1.0081                 1.1082                 1.0144
 Frc consts  --      0.4797                 0.0248                 0.0694
 IR Inten    --     15.3938                16.1673                 0.1579

                      4
                      A
 Frequencies --    340.7002
 Red. masses --      1.0144
 Frc consts  --      0.0694
 IR Inten    --      0.1579

 - Thermochemistry -
 -------------------
 Temperature   298.150 Kelvin.  Pressure   1.00000 Atm.
 Atom     1 has atomic number  1 and mass   1.00783

 Molecular mass:    21.01405 amu.
 Principal axes and moments of inertia in atomic units:
                           1         2         3
     Eigenvalues --     0.00000 132.65924 132.65924
           X            1.00000  -0.00000   0.00000
           Y            0.00000   1.00000   0.00000
           Z            0.00000   0.00000   1.00000
 This molecule is a prolate symmetric top.
 Rotational symmetry number  1.
 Rotational temperature (Kelvin)      0.65291
 Rotational constant (GHZ):          13.604339
    2 imaginary frequencies ignored.
 Zero-point vibrational energy       4075.7 (Joules/Mol)
                                    0.97411 (Kcal/Mol)
 Warning -- explicit consideration of   2 degrees of freedom as
           vibrations may cause significant error
 Vibrational temperatures:    490.19   490.19
          (Kelvin)

 Zero-point correction=                           0.001552 (Hartree/Particle)
 Thermal correction to Energy=                    0.004656
 Thermal correction to Enthalpy=                  0.005600
 Thermal correction to Gibbs Free Energy=        -0.019591
 Sum of electronic and zero-point Energies=           -100.765076
 Sum of electronic and thermal Energies=              -100.761972
 Sum of electronic and thermal Enthalpies=            -100.761028
 Sum of electronic and thermal Free Energies=         -100.786219

                     E (Thermal)             CV                S
                      KCal/Mol        Cal/Mol-Kelvin    Cal/Mol-Kelvin
 Total                    2.922              8.156             53.020
 Electronic               0.000              0.000              1.377
 Translational            0.889              2.981             35.068
 Rotational               0.592              1.987             14.157
 Vibrational              1.441              3.188              2.418
 Vibration     1          0.720              1.594              1.209
 Vibration     2          0.720              1.594              1.209

 Normal termination of Gaussian 16 at Fri Aug 22 20:23:30 2025.
