 Gaussian 16, Revision C.01,
 Gaussian 16:  ES64L-G16RevC.01  3-Jul-2019

 -----------------------------------------
 # sp b3lyp/6-311g** Force nosymm scf=(qc)
 -----------------------------------------

 -------------------
 Title Card Required
 -------------------
 Symbolic Z-matrix:
 Charge =  0 Multiplicity = 2

                          Input orientation:
 ---------------------------------------------------------------------
 Center     Atomic      Atomic             Coordinates (Angstroms)
 Number     Number       Type             X           Y           Z
 ---------------------------------------------------------------------
      1          1           0        0.000000    0.000000    0.000000
      2          1           0       -3.100000    0.000000    0.000000
      3          9           0        1.500000    0.000000    0.000000
 ---------------------------------------------------------------------

 SCF Done:  E(UB3LYP) =  -100.854915849     a.u. after    8 cycles

 Alpha  occ. eigenvalues --  -24.64300  -1.09692  -0.43254  -0.36388  -0.36388
 Alpha  occ. eigenvalues --   -0.34486
 Alpha virt. eigenvalues --   -0.14296   0.20970   0.27667   0.93577   0.93577
 Alpha virt. eigenvalues --    1.03497   1.09854   1.23029   1.23029   1.23400
 Alpha virt. eigenvalues --    1.31350   1.31350   1.73508   2.13693   2.18975

  Beta  occ. eigenvalues --  -24.64218  -1.09474  -0.43048  -0.36310  -0.36310
  Beta virt. eigenvalues --   -0.15002  -0.07213   0.23857   0.37517   0.93544
  Beta virt. eigenvalues --    0.93544   1.03711   1.09901   1.30964   1.30964
  Beta virt. eigenvalues --    1.44800   1.45202   1.45202   1.73424   2.18414

 Mulliken charges and spin densities:
               1          2
     1  H    0.346115  -0.020772
     2  H    0.005028   0.994575
     3  F   -0.351143   0.026197
 Sum of Mulliken charges =  -0.00000   1.00000

 Dipole moment (field-independent basis, Debye):
    X=             -2.6627    Y=             -0.0000    Z=              0.0000  Tot=              2.6627
 Quadrupole moment (field-independent basis, Debye-Ang):
   XX=             -9.7428   YY=             -7.3234   ZZ=             -7.3234
   XY=             -0.0000   XZ=              0.0000   YZ=             -0.0000

  Exact polarizability:      17.228       0.000       2.190      -0.000       0.000       2.190
 Approx polarizability:      30.528       0.000       2.116       0.000       0.000       2.116

 ******    2 imaginary frequencies (negative Signs) ******

                      1                      2                      3
                      A                      A                      A
 Frequencies --  -1181.9885              -130.2353              1008.1834
 Red. masses --      1.0558                 1.0558                 1.0286
 Frc consts  --      0.8691                 0.0106                 0.6160
 IR Inten    --     59.5196                 0.8007               112.8807

                      4
                      A
 Frequencies --   1008.1834
 Red. masses --      1.0286
 Frc consts  --      0.6160
 IR Inten    --    112.8807

 - Thermochemistry -
 -------------------
 Temperature   298.150 Kelvin.  Pressure   1.00000 Atm.
 Atom     1 has atomic number  1 and mass   1.00783

 Molecular mass:    21.01405 amu.
 Principal axes and moments of inertia in atomic units:
                           1         2         3
     Eigenvalues --     0.00000  77.83009  77.83009
           X            1.00000  -0.00000   0.00000
           Y            0.00000   1.00000   0.00000
           Z            0.00000   0.00000   1.00000
 This molecule is a prolate symmetric top.
 Rotational symmetry number  1.
 Rotational temperature (Kelvin)      1.11286
 Rotational constant (GHZ):          23.188220
    2 imaginary frequencies ignored.
 Zero-point vibrational energy      12060.6 (Joules/Mol)
                                    2.88254 (Kcal/Mol)
 Vibrational temperatures:   1450.55  1450.55
          (Kelvin)

 Zero-point correction=                           0.004594 (Hartree/Particle)
 Thermal correction to Energy=                    0.007025
 Thermal correction to Enthalpy=                  0.007970
 Thermal correction to Gibbs Free Energy=        -0.015656
 Sum of electronic and zero-point Energies=           -100.850322
 Sum of electronic and thermal Energies=              -100.847890
 Sum of electronic and thermal Enthalpies=            -100.846946
 Sum of electronic and thermal Free Energies=         -100.870571

                     E (Thermal)             CV                S
                      KCal/Mol        Cal/Mol-Kelvin    Cal/Mol-Kelvin
 Total                    4.409              5.705             49.723
 Electronic               0.000              0.000              1.377
 Translational            0.889              2.981             35.068
 Rotational               0.592              1.987             13.097
 Vibrational              2.927              0.737              0.181

 Normal termination of Gaussian 16 at Fri Aug 22 16:26:21 2025.
