 Gaussian 16, Revision C.01,
 Gaussian 16:  ES64L-G16RevC.01  3-Jul-2019

 -----------------------------------------
 # sp b3lyp/6-311g** Force nosymm scf=(qc)
 -----------------------------------------

 -------------------
 Title Card Required
 -------------------
 Symbolic Z-matrix:
 Charge =  0 Multiplicity = 2

                          Input orientation:
 ---------------------------------------------------------------------
 Center     Atomic      Atomic             Coordinates (Angstroms)
 Number     Number       Type             X           Y           Z
 ---------------------------------------------------------------------
      1          1           0        0.000000    0.000000    0.000000
      2          1           0       -2.450000    0.000000    0.000000
      3          9           0        1.400000    0.000000    0.000000
 ---------------------------------------------------------------------

 SCF Done:  E(UB3LYP) =  -100.878663963     a.u. after    8 cycles

 Alpha  occ. eigenvalues --  -24.64040  -1.10105  -0.44562  -0.36442  -0.36442
 Alpha  occ. eigenvalues --   -0.35710
 Alpha virt. eigenvalues --   -0.10920   0.23522   0.26780   0.93415   0.93415
 Alpha virt. eigenvalues --    1.03286   1.15100   1.21772   1.21772   1.26080
 Alpha virt. eigenvalues --    1.33128   1.33128   1.73082   2.12664   2.22580

  Beta  occ. eigenvalues --  -24.63902  -1.09746  -0.44070  -0.36312  -0.36312
  Beta virt. eigenvalues --   -0.14440  -0.06457   0.25969   0.35623   0.93381
  Beta virt. eigenvalues --    0.93381   1.03620   1.16677   1.32647   1.32647
  Beta virt. eigenvalues --    1.42303   1.42303   1.43962   1.73253   2.21361

 Mulliken charges and spin densities:
               1          2
     1  H    0.343504  -0.022507
     2  H    0.017331   0.979421
     3  F   -0.360835   0.043086
 Sum of Mulliken charges =   0.00000   1.00000

 Dipole moment (field-independent basis, Debye):
    X=             -2.7169    Y=             -0.0000    Z=             -0.0000  Tot=              2.7169
 Quadrupole moment (field-independent basis, Debye-Ang):
   XX=             -9.0534   YY=             -7.2613   ZZ=             -7.2613
   XY=              0.0000   XZ=             -0.0000   YZ=             -0.0000

  Exact polarizability:      18.720      -0.000       2.253      -0.000       0.000       2.253
 Approx polarizability:      27.649       0.000       2.191       0.000       0.000       2.191

 ******    2 imaginary frequencies (negative Signs) ******

                      1                      2                      3
                      A                      A                      A
 Frequencies --  -1143.3807              -225.3293              1068.0103
 Red. masses --      1.0473                 1.0644                 1.0259
 Frc consts  --      0.8067                 0.0318                 0.6895
 IR Inten    --    139.8728                 1.4827               106.9422

                      4
                      A
 Frequencies --   1068.0103
 Red. masses --      1.0259
 Frc consts  --      0.6895
 IR Inten    --    106.9422

 - Thermochemistry -
 -------------------
 Temperature   298.150 Kelvin.  Pressure   1.00000 Atm.
 Atom     1 has atomic number  1 and mass   1.00783

 Molecular mass:    21.01405 amu.
 Principal axes and moments of inertia in atomic units:
                           1         2         3
     Eigenvalues --     0.00000  55.64288  55.64288
           X            1.00000  -0.00000   0.00000
           Y            0.00000   1.00000   0.00000
           Z            0.00000   0.00000   1.00000
 This molecule is a prolate symmetric top.
 Rotational symmetry number  1.
 Rotational temperature (Kelvin)      1.55660
 Rotational constant (GHZ):          32.434358
    2 imaginary frequencies ignored.
 Zero-point vibrational energy      12776.2 (Joules/Mol)
                                    3.05359 (Kcal/Mol)
 Vibrational temperatures:   1536.63  1536.63
          (Kelvin)

 Zero-point correction=                           0.004866 (Hartree/Particle)
 Thermal correction to Energy=                    0.007283
 Thermal correction to Enthalpy=                  0.008227
 Thermal correction to Gibbs Free Energy=        -0.015062
 Sum of electronic and zero-point Energies=           -100.873798
 Sum of electronic and thermal Energies=              -100.871381
 Sum of electronic and thermal Enthalpies=            -100.870437
 Sum of electronic and thermal Free Energies=         -100.893726

                     E (Thermal)             CV                S
                      KCal/Mol        Cal/Mol-Kelvin    Cal/Mol-Kelvin
 Total                    4.570              5.585             49.018
 Electronic               0.000              0.000              1.377
 Translational            0.889              2.981             35.068
 Rotational               0.592              1.987             12.430
 Vibrational              3.089              0.617              0.142

 Normal termination of Gaussian 16 at Fri Aug 22 16:20:30 2025.
