 Gaussian 16, Revision C.01,
 Gaussian 16:  ES64L-G16RevC.01  3-Jul-2019

 -----------------------------------------
 # sp b3lyp/6-311g** Force nosymm scf=(qc)
 -----------------------------------------

 -------------------
 Title Card Required
 -------------------
 Symbolic Z-matrix:
 Charge =  0 Multiplicity = 2

                          Input orientation:
 ---------------------------------------------------------------------
 Center     Atomic      Atomic             Coordinates (Angstroms)
 Number     Number       Type             X           Y           Z
 ---------------------------------------------------------------------
      1          1           0        0.000000    0.000000    0.000000
      2          1           0       -0.850000    0.000000    0.000000
      3          9           0        3.450000    0.000000    0.000000
 ---------------------------------------------------------------------

 SCF Done:  E(UB3LYP) =  -100.927989116     a.u. after  464 cycles

 Alpha  occ. eigenvalues --  -24.76379  -1.22235  -0.55435  -0.46634  -0.46588
 Alpha  occ. eigenvalues --   -0.41226
 Alpha virt. eigenvalues --    0.03752   0.20450   0.43116   0.85977   0.90852
 Alpha virt. eigenvalues --    0.92805   1.02024   1.08271   1.08274   1.49089
 Alpha virt. eigenvalues --    1.75611   1.75615   2.12102   2.37949   2.87648

  Beta  occ. eigenvalues --  -24.73221  -1.13156  -0.43481  -0.43422  -0.41212
  Beta virt. eigenvalues --   -0.26072   0.03766   0.20461   0.43171   0.92352
  Beta virt. eigenvalues --    0.94343   0.95440   1.06061   1.08271   1.08274
  Beta virt. eigenvalues --    1.49097   1.75611   1.75615   2.12117   2.37951

 Mulliken charges and spin densities:
               1          2
     1  H   -0.001429  -0.000438
     2  H   -0.002743  -0.000049
     3  F    0.004172   1.000487
 Sum of Mulliken charges =   0.00000   1.00000

 Dipole moment (field-independent basis, Debye):
    X=              0.0517    Y=             -0.0000    Z=             -0.0000  Tot=              0.0517
 Quadrupole moment (field-independent basis, Debye-Ang):
   XX=             -6.2112   YY=             -6.2247   ZZ=             -7.0886
   XY=             -0.0000   XZ=             -0.0000   YZ=             -0.0101

  Exact polarizability:       9.758      -0.000       2.470       0.000      -0.005       2.006
 Approx polarizability:      11.768      -0.000       2.656       0.000      -0.007       2.074

                      1                      2                      3
                      A                      A                      A
 Frequencies --      9.1100              1326.3111              1327.1357
 Red. masses --      1.1085                 1.0090                 1.0090
 Frc consts  --      0.0001                 1.0458                 1.0471
 IR Inten    --      0.1583                 0.0004                 0.0002

                      4
                      A
 Frequencies --   3135.9410
 Red. masses --      1.0078
 Frc consts  --      5.8394
 IR Inten    --      0.1208

 - Thermochemistry -
 -------------------
 Temperature   298.150 Kelvin.  Pressure   1.00000 Atm.
 Atom     1 has atomic number  1 and mass   1.00783

 Molecular mass:    21.01405 amu.
 Principal axes and moments of inertia in atomic units:
                           1         2         3
     Eigenvalues --     0.00000  99.01566  99.01566
           X            1.00000  -0.00000   0.00000
           Y            0.00000   1.00000   0.00000
           Z            0.00000   0.00000   1.00000
 This molecule is a prolate symmetric top.
 Rotational symmetry number  1.
 Rotational temperature (Kelvin)      0.87475
 Rotational constant (GHZ):          18.226825
 Zero-point vibrational energy      34682.7 (Joules/Mol)
                                    8.28937 (Kcal/Mol)
 Warning -- explicit consideration of   1 degrees of freedom as
           vibrations may cause significant error
 Vibrational temperatures:     13.11  1908.27  1909.45  4511.92
          (Kelvin)

 Zero-point correction=                           0.013210 (Hartree/Particle)
 Thermal correction to Energy=                    0.016514
 Thermal correction to Enthalpy=                  0.017458
 Thermal correction to Gibbs Free Energy=        -0.010226
 Sum of electronic and zero-point Energies=           -100.914779
 Sum of electronic and thermal Energies=              -100.911475
 Sum of electronic and thermal Enthalpies=            -100.910531
 Sum of electronic and thermal Free Energies=         -100.938215

                     E (Thermal)             CV                S
                      KCal/Mol        Cal/Mol-Kelvin    Cal/Mol-Kelvin
 Total                   10.363              7.226             58.266
 Electronic               0.000              0.000              1.377
 Translational            0.889              2.981             35.068
 Rotational               0.592              1.987             13.575
 Vibrational              8.882              2.258              8.245
 Vibration     1          0.593              1.987              8.196

 Normal termination of Gaussian 16 at Fri Aug 22 21:25:14 2025.
