 Gaussian 16, Revision C.01,
 Gaussian 16:  ES64L-G16RevC.01  3-Jul-2019

 -----------------------------------------
 # sp b3lyp/6-311g** Force nosymm scf=(qc)
 -----------------------------------------

 -------------------
 Title Card Required
 -------------------
 Symbolic Z-matrix:
 Charge =  0 Multiplicity = 2

                          Input orientation:
 ---------------------------------------------------------------------
 Center     Atomic      Atomic             Coordinates (Angstroms)
 Number     Number       Type             X           Y           Z
 ---------------------------------------------------------------------
      1          1           0        0.000000    0.000000    0.000000
      2          1           0       -2.400000    0.000000    0.000000
      3          9           0        0.600000    0.000000    0.000000
 ---------------------------------------------------------------------

 SCF Done:  E(UB3LYP) =  -100.688000709     a.u. after    6 cycles

 Alpha  occ. eigenvalues --  -24.62691  -1.34681  -0.61022  -0.42934  -0.42934
 Alpha  occ. eigenvalues --   -0.34451
 Alpha virt. eigenvalues --    0.09199   0.25497   0.57399   0.92171   0.92171
 Alpha virt. eigenvalues --    0.93280   1.17193   1.23101   1.23101   1.48552
 Alpha virt. eigenvalues --    1.50301   1.50301   1.94580   2.15760   3.36668

  Beta  occ. eigenvalues --  -24.62682  -1.34653  -0.60994  -0.42929  -0.42929
  Beta virt. eigenvalues --   -0.08292   0.10584   0.38127   0.56985   0.92161
  Beta virt. eigenvalues --    0.92161   0.93415   1.29399   1.45351   1.45351
  Beta virt. eigenvalues --    1.50291   1.50291   1.59917   1.95453   2.44462

 Mulliken charges and spin densities:
               1          2
     1  H    0.230595   0.004371
     2  H    0.005247   0.992804
     3  F   -0.235842   0.002825
 Sum of Mulliken charges =   0.00000   1.00000

 Dipole moment (field-independent basis, Debye):
    X=             -1.4896    Y=              0.0000    Z=             -0.0000  Tot=              1.4896
 Quadrupole moment (field-independent basis, Debye-Ang):
   XX=             -6.7943   YY=             -6.5427   ZZ=             -6.5427
   XY=              0.0000   XZ=             -0.0000   YZ=             -0.0000

  Exact polarizability:       5.015       0.000       2.465      -0.000       0.000       2.465
 Approx polarizability:       5.004       0.000       2.451       0.000       0.000       2.451

 ******    2 imaginary frequencies (negative Signs) ******

                      1                      2                      3
                      A                      A                      A
 Frequencies --  -5833.5326             -5833.5326               162.9800
 Red. masses --      1.0389                 1.0389                 1.0533
 Frc consts  --     20.8304                20.8304                 0.0165
 IR Inten    --    221.4863               221.4863                 0.1554

                      4
                      A
 Frequencies --  13070.5724
 Red. masses --      1.0583
 Frc consts  --    106.5248
 IR Inten    --    110.1700

 - Thermochemistry -
 -------------------
 Temperature   298.150 Kelvin.  Pressure   1.00000 Atm.
 Atom     1 has atomic number  1 and mass   1.00783

 Molecular mass:    21.01405 amu.
 Principal axes and moments of inertia in atomic units:
                           1         2         3
     Eigenvalues --     0.00000  31.44973  31.44973
           X            1.00000  -0.00000   0.00000
           Y            0.00000   1.00000   0.00000
           Z            0.00000   0.00000   1.00000
 This molecule is a prolate symmetric top.
 Rotational symmetry number  1.
 Rotational temperature (Kelvin)      2.75404
 Rotational constant (GHZ):          57.384943
    2 imaginary frequencies ignored.
 Zero-point vibrational energy      79154.2 (Joules/Mol)
                                   18.91831 (Kcal/Mol)
 Warning -- explicit consideration of   1 degrees of freedom as
           vibrations may cause significant error
 Vibrational temperatures:    234.49 18805.64
          (Kelvin)

 Zero-point correction=                           0.030148 (Hartree/Particle)
 Thermal correction to Energy=                    0.033130
 Thermal correction to Enthalpy=                  0.034074
 Thermal correction to Gibbs Free Energy=         0.010195
 Sum of electronic and zero-point Energies=           -100.657852
 Sum of electronic and thermal Energies=              -100.654871
 Sum of electronic and thermal Enthalpies=            -100.653927
 Sum of electronic and thermal Free Energies=         -100.677805

                     E (Thermal)             CV                S
                      KCal/Mol        Cal/Mol-Kelvin    Cal/Mol-Kelvin
 Total                   20.789              6.856             50.257
 Electronic               0.000              0.000              1.377
 Translational            0.889              2.981             35.068
 Rotational               0.592              1.987             11.296
 Vibrational             19.308              1.888              2.515
 Vibration     1          0.623              1.888              2.515

 Normal termination of Gaussian 16 at Fri Aug 22 15:41:58 2025.
