 Gaussian 16, Revision C.01,
 Gaussian 16:  ES64L-G16RevC.01  3-Jul-2019

 -----------------------------------------
 # sp b3lyp/6-311g** Force nosymm scf=(qc)
 -----------------------------------------

 -------------------
 Title Card Required
 -------------------
 Symbolic Z-matrix:
 Charge =  0 Multiplicity = 2

                          Input orientation:
 ---------------------------------------------------------------------
 Center     Atomic      Atomic             Coordinates (Angstroms)
 Number     Number       Type             X           Y           Z
 ---------------------------------------------------------------------
      1          1           0        0.000000    0.000000    0.000000
      2          1           0       -3.400000    0.000000    0.000000
      3          9           0        0.900000    0.000000    0.000000
 ---------------------------------------------------------------------

 SCF Done:  E(UB3LYP) =  -100.971483946     a.u. after    5 cycles

 Alpha  occ. eigenvalues --  -24.63994  -1.19045  -0.53859  -0.39654  -0.39654
 Alpha  occ. eigenvalues --   -0.33694
 Alpha virt. eigenvalues --    0.03176   0.24549   0.39545   0.94335   0.94335
 Alpha virt. eigenvalues --    0.97752   1.23571   1.23822   1.23822   1.30004
 Alpha virt. eigenvalues --    1.37266   1.37266   2.00745   2.14416   2.37250

  Beta  occ. eigenvalues --  -24.63993  -1.19041  -0.53854  -0.39652  -0.39652
  Beta virt. eigenvalues --   -0.05785   0.03839   0.38275   0.40218   0.94335
  Beta virt. eigenvalues --    0.94335   0.97746   1.29538   1.37266   1.37266
  Beta virt. eigenvalues --    1.50357   1.50674   1.50674   2.00791   2.37206

 Mulliken charges and spin densities:
               1          2
     1  H    0.295278   0.000724
     2  H    0.001086   0.998666
     3  F   -0.296364   0.000610
 Sum of Mulliken charges =   0.00000   1.00000

 Dipole moment (field-independent basis, Debye):
    X=             -1.8973    Y=              0.0000    Z=              0.0000  Tot=              1.8973
 Quadrupole moment (field-independent basis, Debye-Ang):
   XX=             -7.8940   YY=             -6.8688   ZZ=             -6.8688
   XY=              0.0000   XZ=              0.0000   YZ=             -0.0000

  Exact polarizability:       5.703       0.000       2.427      -0.000      -0.000       2.427
 Approx polarizability:       6.610       0.000       2.406       0.000      -0.000       2.406

 ******    3 imaginary frequencies (negative Signs) ******

                      1                      2                      3
                      A                      A                      A
 Frequencies --   -624.9459              -624.9459               -50.3024
 Red. masses --      1.0381                 1.0381                 1.0532
 Frc consts  --      0.2389                 0.2389                 0.0016
 IR Inten    --    180.7085               180.7085                 0.0563

                      4
                      A
 Frequencies --   4431.7758
 Red. masses --      1.0583
 Frc consts  --     12.2469
 IR Inten    --    101.1352

 - Thermochemistry -
 -------------------
 Temperature   298.150 Kelvin.  Pressure   1.00000 Atm.
 Atom     1 has atomic number  1 and mass   1.00783

 Molecular mass:    21.01405 amu.
 Principal axes and moments of inertia in atomic units:
                           1         2         3
     Eigenvalues --     0.00000  64.79357  64.79357
           X            1.00000  -0.00000   0.00000
           Y            0.00000   1.00000   0.00000
           Z            0.00000   0.00000   1.00000
 This molecule is a prolate symmetric top.
 Rotational symmetry number  1.
 Rotational temperature (Kelvin)      1.33677
 Rotational constant (GHZ):          27.853707
    3 imaginary frequencies ignored.
 Zero-point vibrational energy      26507.9 (Joules/Mol)
                                    6.33554 (Kcal/Mol)
 Vibrational temperatures:   6376.34
          (Kelvin)

 Zero-point correction=                           0.010096 (Hartree/Particle)
 Thermal correction to Energy=                    0.012457
 Thermal correction to Enthalpy=                  0.013401
 Thermal correction to Gibbs Free Energy=        -0.009965
 Sum of electronic and zero-point Energies=           -100.961388
 Sum of electronic and thermal Energies=              -100.959027
 Sum of electronic and thermal Enthalpies=            -100.958083
 Sum of electronic and thermal Free Energies=         -100.981449

                     E (Thermal)             CV                S
                      KCal/Mol        Cal/Mol-Kelvin    Cal/Mol-Kelvin
 Total                    7.817              4.968             49.178
 Electronic               0.000              0.000              1.377
 Translational            0.889              2.981             35.068
 Rotational               0.592              1.987             12.733
 Vibrational              6.336              0.000              0.000

 Normal termination of Gaussian 16 at Fri Aug 22 15:56:43 2025.
