 Gaussian 16, Revision C.01,
 Gaussian 16:  ES64L-G16RevC.01  3-Jul-2019

 -----------------------------------------
 # sp b3lyp/6-311g** Force nosymm scf=(qc)
 -----------------------------------------

 -------------------
 Title Card Required
 -------------------
 Symbolic Z-matrix:
 Charge =  0 Multiplicity = 2

                          Input orientation:
 ---------------------------------------------------------------------
 Center     Atomic      Atomic             Coordinates (Angstroms)
 Number     Number       Type             X           Y           Z
 ---------------------------------------------------------------------
      1          1           0        0.000000    0.000000    0.000000
      2          1           0       -2.150000    0.000000    0.000000
      3          9           0        2.500000    0.000000    0.000000
 ---------------------------------------------------------------------

 SCF Done:  E(UB3LYP) =  -100.777096818     a.u. after   18 cycles

 Alpha  occ. eigenvalues --  -24.71795  -1.17996  -0.50896  -0.42742  -0.42742
 Alpha  occ. eigenvalues --   -0.34490
 Alpha virt. eigenvalues --   -0.12629   0.24926   0.32404   0.90093   0.93611
 Alpha virt. eigenvalues --    0.93611   1.06320   1.23376   1.23376   1.24587
 Alpha virt. eigenvalues --    1.35882   1.35882   1.44977   2.12061   2.33421

  Beta  occ. eigenvalues --  -24.68949  -1.09893  -0.39904  -0.39904  -0.35208
  Beta virt. eigenvalues --   -0.23483  -0.11086   0.26427   0.32925   0.94978
  Beta virt. eigenvalues --    0.94978   0.97092   1.09327   1.22710   1.22710
  Beta virt. eigenvalues --    1.27462   1.38417   1.38417   1.45545   2.12564

 Mulliken charges and spin densities:
               1          2
     1  H    0.064162  -0.816836
     2  H    0.022869   0.917400
     3  F   -0.087032   0.899436
 Sum of Mulliken charges =  -0.00000   1.00000

 Dipole moment (field-independent basis, Debye):
    X=             -1.3429    Y=             -0.0000    Z=              0.0000  Tot=              1.3429
 Quadrupole moment (field-independent basis, Debye-Ang):
   XX=             -8.4011   YY=             -7.6440   ZZ=             -7.6440
   XY=              0.0000   XZ=             -0.0000   YZ=              0.0000

  Exact polarizability:      54.687       0.000       2.010      -0.000       0.000       2.010
 Approx polarizability:      56.785       0.000       1.922      -0.000      -0.000       1.922

 ******    2 imaginary frequencies (negative Signs) ******

                      1                      2                      3
                      A                      A                      A
 Frequencies --  -1164.7748              -387.7989               462.4711
 Red. masses --      1.0106                 1.1052                 1.0162
 Frc consts  --      0.8078                 0.0979                 0.1281
 IR Inten    --     51.6855                45.9305                 2.6703

                      4
                      A
 Frequencies --    462.4711
 Red. masses --      1.0162
 Frc consts  --      0.1281
 IR Inten    --      2.6703

 - Thermochemistry -
 -------------------
 Temperature   298.150 Kelvin.  Pressure   1.00000 Atm.
 Atom     1 has atomic number  1 and mass   1.00783

 Molecular mass:    21.01405 amu.
 Principal axes and moments of inertia in atomic units:
                           1         2         3
     Eigenvalues --     0.00000  91.48927  91.48927
           X            1.00000  -0.00000   0.00000
           Y            0.00000   1.00000   0.00000
           Z            0.00000   0.00000   1.00000
 This molecule is a prolate symmetric top.
 Rotational symmetry number  1.
 Rotational temperature (Kelvin)      0.94671
 Rotational constant (GHZ):          19.726261
    2 imaginary frequencies ignored.
 Zero-point vibrational energy       5532.4 (Joules/Mol)
                                    1.32227 (Kcal/Mol)
 Warning -- explicit consideration of   2 degrees of freedom as
           vibrations may cause significant error
 Vibrational temperatures:    665.39   665.39
          (Kelvin)

 Zero-point correction=                           0.002107 (Hartree/Particle)
 Thermal correction to Energy=                    0.004974
 Thermal correction to Enthalpy=                  0.005919
 Thermal correction to Gibbs Free Energy=        -0.018494
 Sum of electronic and zero-point Energies=           -100.774990
 Sum of electronic and thermal Energies=              -100.772122
 Sum of electronic and thermal Enthalpies=            -100.771178
 Sum of electronic and thermal Free Energies=         -100.795591

                     E (Thermal)             CV                S
                      KCal/Mol        Cal/Mol-Kelvin    Cal/Mol-Kelvin
 Total                    3.121              7.635             51.382
 Electronic               0.000              0.000              1.377
 Translational            0.889              2.981             35.068
 Rotational               0.592              1.987             13.418
 Vibrational              1.640              2.667              1.518
 Vibration     1          0.820              1.333              0.759
 Vibration     2          0.820              1.333              0.759

 Normal termination of Gaussian 16 at Fri Aug 22 17:44:56 2025.
