 Gaussian 16, Revision C.01,
 Gaussian 16:  ES64L-G16RevC.01  3-Jul-2019

 -----------------------------------------
 # sp b3lyp/6-311g** Force nosymm scf=(qc)
 -----------------------------------------

 -------------------
 Title Card Required
 -------------------
 Symbolic Z-matrix:
 Charge =  0 Multiplicity = 2

                          Input orientation:
 ---------------------------------------------------------------------
 Center     Atomic      Atomic             Coordinates (Angstroms)
 Number     Number       Type             X           Y           Z
 ---------------------------------------------------------------------
      1          1           0        0.000000    0.000000    0.000000
      2          1           0       -2.450000    0.000000    0.000000
      3          9           0        0.600000    0.000000    0.000000
 ---------------------------------------------------------------------

 SCF Done:  E(UB3LYP) =  -100.688018779     a.u. after    6 cycles

 Alpha  occ. eigenvalues --  -24.62694  -1.34684  -0.61020  -0.42937  -0.42937
 Alpha  occ. eigenvalues --   -0.34379
 Alpha virt. eigenvalues --    0.09021   0.25559   0.57669   0.92168   0.92168
 Alpha virt. eigenvalues --    0.93251   1.17568   1.23172   1.23172   1.47405
 Alpha virt. eigenvalues --    1.50299   1.50299   1.94666   2.15415   3.36646

  Beta  occ. eigenvalues --  -24.62686  -1.34659  -0.60996  -0.42933  -0.42933
  Beta virt. eigenvalues --   -0.08116   0.10379   0.38273   0.57250   0.92158
  Beta virt. eigenvalues --    0.92158   0.93375   1.29821   1.45722   1.45722
  Beta virt. eigenvalues --    1.50290   1.50290   1.59039   1.95213   2.44335

 Mulliken charges and spin densities:
               1          2
     1  H    0.231437   0.003903
     2  H    0.004845   0.993387
     3  F   -0.236282   0.002710
 Sum of Mulliken charges =   0.00000   1.00000

 Dipole moment (field-independent basis, Debye):
    X=             -1.4866    Y=             -0.0000    Z=             -0.0000  Tot=              1.4866
 Quadrupole moment (field-independent basis, Debye-Ang):
   XX=             -6.8033   YY=             -6.5442   ZZ=             -6.5442
   XY=             -0.0000   XZ=             -0.0000   YZ=             -0.0000

  Exact polarizability:       4.919       0.000       2.463      -0.000      -0.000       2.463
 Approx polarizability:       4.926       0.000       2.448       0.000      -0.000       2.448

 ******    2 imaginary frequencies (negative Signs) ******

                      1                      2                      3
                      A                      A                      A
 Frequencies --  -5837.0747             -5837.0747               143.9598
 Red. masses --      1.0392                 1.0392                 1.0533
 Frc consts  --     20.8616                20.8616                 0.0129
 IR Inten    --    223.1544               223.1544                 0.1577

                      4
                      A
 Frequencies --  13070.6001
 Red. masses --      1.0583
 Frc consts  --    106.5254
 IR Inten    --    109.2775

 - Thermochemistry -
 -------------------
 Temperature   298.150 Kelvin.  Pressure   1.00000 Atm.
 Atom     1 has atomic number  1 and mass   1.00783

 Molecular mass:    21.01405 amu.
 Principal axes and moments of inertia in atomic units:
                           1         2         3
     Eigenvalues --     0.00000  32.47586  32.47586
           X            1.00000  -0.00000   0.00000
           Y            0.00000   1.00000   0.00000
           Z            0.00000   0.00000   1.00000
 This molecule is a prolate symmetric top.
 Rotational symmetry number  1.
 Rotational temperature (Kelvin)      2.66702
 Rotational constant (GHZ):          55.571768
    2 imaginary frequencies ignored.
 Zero-point vibrational energy      79040.6 (Joules/Mol)
                                   18.89116 (Kcal/Mol)
 Warning -- explicit consideration of   1 degrees of freedom as
           vibrations may cause significant error
 Vibrational temperatures:    207.13 18805.68
          (Kelvin)

 Zero-point correction=                           0.030105 (Hartree/Particle)
 Thermal correction to Energy=                    0.033119
 Thermal correction to Enthalpy=                  0.034064
 Thermal correction to Gibbs Free Energy=         0.010043
 Sum of electronic and zero-point Energies=           -100.657914
 Sum of electronic and thermal Energies=              -100.654899
 Sum of electronic and thermal Enthalpies=            -100.653955
 Sum of electronic and thermal Free Energies=         -100.677976

                     E (Thermal)             CV                S
                      KCal/Mol        Cal/Mol-Kelvin    Cal/Mol-Kelvin
 Total                   20.783              6.877             50.556
 Electronic               0.000              0.000              1.377
 Translational            0.889              2.981             35.068
 Rotational               0.592              1.987             11.360
 Vibrational             19.301              1.909              2.751
 Vibration     1          0.616              1.909              2.751

 Normal termination of Gaussian 16 at Fri Aug 22 15:42:00 2025.
