 Gaussian 16, Revision C.01,
 Gaussian 16:  ES64L-G16RevC.01  3-Jul-2019

 -----------------------------------------
 # sp b3lyp/6-311g** Force nosymm scf=(qc)
 -----------------------------------------

 -------------------
 Title Card Required
 -------------------
 Symbolic Z-matrix:
 Charge =  0 Multiplicity = 2

                          Input orientation:
 ---------------------------------------------------------------------
 Center     Atomic      Atomic             Coordinates (Angstroms)
 Number     Number       Type             X           Y           Z
 ---------------------------------------------------------------------
      1          1           0        0.000000    0.000000    0.000000
      2          1           0       -2.950000    0.000000    0.000000
      3          9           0        3.150000    0.000000    0.000000
 ---------------------------------------------------------------------

 SCF Done:  E(UB3LYP) =  -100.761228141     a.u. after   21 cycles

 Alpha  occ. eigenvalues --  -24.74602  -1.20623  -0.53722  -0.45107  -0.45107
 Alpha  occ. eigenvalues --   -0.32637
 Alpha virt. eigenvalues --   -0.08792   0.24856   0.35151   0.88901   0.91963
 Alpha virt. eigenvalues --    0.91963   1.03122   1.24907   1.24907   1.25779
 Alpha virt. eigenvalues --    1.42776   1.42776   1.43046   2.15629   2.39117

  Beta  occ. eigenvalues --  -24.71540  -1.11838  -0.42040  -0.42040  -0.33433
  Beta virt. eigenvalues --   -0.25069  -0.07723   0.24745   0.36547   0.93436
  Beta virt. eigenvalues --    0.93436   0.97791   1.07007   1.23973   1.23973
  Beta virt. eigenvalues --    1.24809   1.44476   1.44476   1.44510   2.16192

 Mulliken charges and spin densities:
               1          2
     1  H    0.025279  -0.962068
     2  H    0.001438   0.991530
     3  F   -0.026717   0.970538
 Sum of Mulliken charges =  -0.00000   1.00000

 Dipole moment (field-independent basis, Debye):
    X=             -0.4526    Y=             -0.0000    Z=              0.0000  Tot=              0.4526
 Quadrupole moment (field-independent basis, Debye-Ang):
   XX=             -7.8883   YY=             -7.6296   ZZ=             -7.6296
   XY=             -0.0000   XZ=              0.0000   YZ=              0.0000

  Exact polarizability:      34.116      -0.000       2.024       0.000       0.000       2.024
 Approx polarizability:      30.750      -0.000       1.927       0.000      -0.000       1.927

 ******    2 imaginary frequencies (negative Signs) ******

                      1                      2                      3
                      A                      A                      A
 Frequencies --   -423.5743              -176.4308               154.1864
 Red. masses --      1.0175                 1.0970                 1.0172
 Frc consts  --      0.1076                 0.0201                 0.0142
 IR Inten    --     23.0607                 7.1521                 0.5551

                      4
                      A
 Frequencies --    154.1864
 Red. masses --      1.0172
 Frc consts  --      0.0142
 IR Inten    --      0.5551

 - Thermochemistry -
 -------------------
 Temperature   298.150 Kelvin.  Pressure   1.00000 Atm.
 Atom     1 has atomic number  1 and mass   1.00783

 Molecular mass:    21.01405 amu.
 Principal axes and moments of inertia in atomic units:
                           1         2         3
     Eigenvalues --     0.00000 154.86159 154.86159
           X            1.00000  -0.00000   0.00000
           Y            0.00000   1.00000   0.00000
           Z            0.00000   0.00000   1.00000
 This molecule is a prolate symmetric top.
 Rotational symmetry number  1.
 Rotational temperature (Kelvin)      0.55930
 Rotational constant (GHZ):          11.653898
    2 imaginary frequencies ignored.
 Zero-point vibrational energy       1844.5 (Joules/Mol)
                                    0.44084 (Kcal/Mol)
 Warning -- explicit consideration of   2 degrees of freedom as
           vibrations may cause significant error
 Vibrational temperatures:    221.84   221.84
          (Kelvin)

 Zero-point correction=                           0.000703 (Hartree/Particle)
 Thermal correction to Energy=                    0.004335
 Thermal correction to Enthalpy=                  0.005279
 Thermal correction to Gibbs Free Energy=        -0.021399
 Sum of electronic and zero-point Energies=           -100.760526
 Sum of electronic and thermal Energies=              -100.756893
 Sum of electronic and thermal Enthalpies=            -100.755949
 Sum of electronic and thermal Free Energies=         -100.782627

                     E (Thermal)             CV                S
                      KCal/Mol        Cal/Mol-Kelvin    Cal/Mol-Kelvin
 Total                    2.720              8.764             56.149
 Electronic               0.000              0.000              1.377
 Translational            0.889              2.981             35.068
 Rotational               0.592              1.987             14.464
 Vibrational              1.239              3.796              5.240
 Vibration     1          0.620              1.898              2.620
 Vibration     2          0.620              1.898              2.620

 Normal termination of Gaussian 16 at Fri Aug 22 20:11:08 2025.
