 Gaussian 16, Revision C.01,
 Gaussian 16:  ES64L-G16RevC.01  3-Jul-2019

 -----------------------------------------
 # sp b3lyp/6-311g** Force nosymm scf=(qc)
 -----------------------------------------

 -------------------
 Title Card Required
 -------------------
 Symbolic Z-matrix:
 Charge =  0 Multiplicity = 2

                          Input orientation:
 ---------------------------------------------------------------------
 Center     Atomic      Atomic             Coordinates (Angstroms)
 Number     Number       Type             X           Y           Z
 ---------------------------------------------------------------------
      1          1           0        0.000000    0.000000    0.000000
      2          1           0       -3.300000    0.000000    0.000000
      3          9           0        1.400000    0.000000    0.000000
 ---------------------------------------------------------------------

 SCF Done:  E(UB3LYP) =  -100.877402337     a.u. after    7 cycles

 Alpha  occ. eigenvalues --  -24.64345  -1.10264  -0.44550  -0.36688  -0.36688
 Alpha  occ. eigenvalues --   -0.34166
 Alpha virt. eigenvalues --   -0.11816   0.21027   0.27998   0.93137   0.93137
 Alpha virt. eigenvalues --    1.03168   1.15455   1.23351   1.23351   1.23500
 Alpha virt. eigenvalues --    1.32655   1.32655   1.71751   2.13743   2.21277

  Beta  occ. eigenvalues --  -24.64326  -1.10215  -0.44499  -0.36670  -0.36670
  Beta virt. eigenvalues --   -0.12429  -0.06540   0.24243   0.38054   0.93132
  Beta virt. eigenvalues --    0.93132   1.03220   1.15530   1.32587   1.32587
  Beta virt. eigenvalues --    1.45547   1.46028   1.46028   1.71779   2.21064

 Mulliken charges and spin densities:
               1          2
     1  H    0.355121  -0.003043
     2  H    0.002656   0.997124
     3  F   -0.357778   0.005919
 Sum of Mulliken charges =   0.00000   1.00000

 Dipole moment (field-independent basis, Debye):
    X=             -2.5344    Y=              0.0000    Z=              0.0000  Tot=              2.5344
 Quadrupole moment (field-independent basis, Debye-Ang):
   XX=             -9.4830   YY=             -7.2645   ZZ=             -7.2645
   XY=              0.0000   XZ=              0.0000   YZ=              0.0000

  Exact polarizability:      13.894       0.000       2.235      -0.000      -0.000       2.235
 Approx polarizability:      23.065       0.000       2.169       0.000      -0.000       2.169

 ******    2 imaginary frequencies (negative Signs) ******

                      1                      2                      3
                      A                      A                      A
 Frequencies --  -1022.3219               -91.2472              1088.3517
 Red. masses --      1.0569                 1.0547                 1.0307
 Frc consts  --      0.6508                 0.0052                 0.7193
 IR Inten    --     57.2822                 0.2714               124.5543

                      4
                      A
 Frequencies --   1088.3517
 Red. masses --      1.0307
 Frc consts  --      0.7193
 IR Inten    --    124.5543

 - Thermochemistry -
 -------------------
 Temperature   298.150 Kelvin.  Pressure   1.00000 Atm.
 Atom     1 has atomic number  1 and mass   1.00783

 Molecular mass:    21.01405 amu.
 Principal axes and moments of inertia in atomic units:
                           1         2         3
     Eigenvalues --     0.00000  80.13345  80.13345
           X            1.00000  -0.00000   0.00000
           Y            0.00000   1.00000   0.00000
           Z            0.00000   0.00000   1.00000
 This molecule is a prolate symmetric top.
 Rotational symmetry number  1.
 Rotational temperature (Kelvin)      1.08087
 Rotational constant (GHZ):          22.521695
    2 imaginary frequencies ignored.
 Zero-point vibrational energy      13019.6 (Joules/Mol)
                                    3.11175 (Kcal/Mol)
 Vibrational temperatures:   1565.90  1565.90
          (Kelvin)

 Zero-point correction=                           0.004959 (Hartree/Particle)
 Thermal correction to Energy=                    0.007372
 Thermal correction to Enthalpy=                  0.008316
 Thermal correction to Gibbs Free Energy=        -0.015313
 Sum of electronic and zero-point Energies=           -100.872443
 Sum of electronic and thermal Energies=              -100.870031
 Sum of electronic and thermal Enthalpies=            -100.869087
 Sum of electronic and thermal Free Energies=         -100.892715

                     E (Thermal)             CV                S
                      KCal/Mol        Cal/Mol-Kelvin    Cal/Mol-Kelvin
 Total                    4.626              5.548             49.731
 Electronic               0.000              0.000              1.377
 Translational            0.889              2.981             35.068
 Rotational               0.592              1.987             13.155
 Vibrational              3.145              0.580              0.131

 Normal termination of Gaussian 16 at Fri Aug 22 16:21:04 2025.
