 Gaussian 16, Revision C.01,
 Gaussian 16:  ES64L-G16RevC.01  3-Jul-2019

 -----------------------------------------
 # sp b3lyp/6-311g** Force nosymm scf=(qc)
 -----------------------------------------

 -------------------
 Title Card Required
 -------------------
 Symbolic Z-matrix:
 Charge =  0 Multiplicity = 2

                          Input orientation:
 ---------------------------------------------------------------------
 Center     Atomic      Atomic             Coordinates (Angstroms)
 Number     Number       Type             X           Y           Z
 ---------------------------------------------------------------------
      1          1           0        0.000000    0.000000    0.000000
      2          1           0       -2.150000    0.000000    0.000000
      3          9           0        1.600000    0.000000    0.000000
 ---------------------------------------------------------------------

 SCF Done:  E(UB3LYP) =  -100.839650262     a.u. after   12 cycles

 Alpha  occ. eigenvalues --  -24.64533  -1.10514  -0.43828  -0.36843  -0.36572
 Alpha  occ. eigenvalues --   -0.36572
 Alpha virt. eigenvalues --   -0.13292   0.23441   0.27758   0.94562   0.94562
 Alpha virt. eigenvalues --    0.99673   1.06373   1.20683   1.20683   1.28439
 Alpha virt. eigenvalues --    1.33277   1.33277   1.74245   2.10397   2.24720

  Beta  occ. eigenvalues --  -24.63422  -1.07528  -0.40671  -0.35506  -0.35506
  Beta virt. eigenvalues --   -0.18546  -0.09202   0.25264   0.33079   0.94302
  Beta virt. eigenvalues --    0.94302   1.01693   1.08099   1.28164   1.28164
  Beta virt. eigenvalues --    1.38359   1.38359   1.43162   1.72596   2.13886

 Mulliken charges and spin densities:
               1          2
     1  H    0.286532  -0.291961
     2  H    0.039103   0.942806
     3  F   -0.325635   0.349155
 Sum of Mulliken charges =   0.00000   1.00000

 Dipole moment (field-independent basis, Debye):
    X=             -2.9493    Y=              0.0000    Z=              0.0000  Tot=              2.9493
 Quadrupole moment (field-independent basis, Debye-Ang):
   XX=             -9.0884   YY=             -7.3751   ZZ=             -7.3751
   XY=              0.0000   XZ=              0.0000   YZ=             -0.0000

  Exact polarizability:      32.612       0.000       2.174       0.000       0.000       2.174
 Approx polarizability:      44.711      -0.000       2.092      -0.000       0.000       2.092

 ******    2 imaginary frequencies (negative Signs) ******

                      1                      2                      3
                      A                      A                      A
 Frequencies --  -1970.3377              -440.2508               886.8273
 Red. masses --      1.0426                 1.0692                 1.0219
 Frc consts  --      2.3849                 0.1221                 0.4735
 IR Inten    --     17.2723                 8.1912                62.4550

                      4
                      A
 Frequencies --    886.8273
 Red. masses --      1.0219
 Frc consts  --      0.4735
 IR Inten    --     62.4550

 - Thermochemistry -
 -------------------
 Temperature   298.150 Kelvin.  Pressure   1.00000 Atm.
 Atom     1 has atomic number  1 and mass   1.00783

 Molecular mass:    21.01405 amu.
 Principal axes and moments of inertia in atomic units:
                           1         2         3
     Eigenvalues --     0.00000  54.88408  54.88408
           X            1.00000  -0.00000   0.00000
           Y            0.00000   1.00000   0.00000
           Z            0.00000   0.00000   1.00000
 This molecule is a prolate symmetric top.
 Rotational symmetry number  1.
 Rotational temperature (Kelvin)      1.57812
 Rotational constant (GHZ):          32.882783
    2 imaginary frequencies ignored.
 Zero-point vibrational energy      10608.8 (Joules/Mol)
                                    2.53557 (Kcal/Mol)
 Vibrational temperatures:   1275.95  1275.95
          (Kelvin)

 Zero-point correction=                           0.004041 (Hartree/Particle)
 Thermal correction to Energy=                    0.006515
 Thermal correction to Enthalpy=                  0.007459
 Thermal correction to Gibbs Free Energy=        -0.015890
 Sum of electronic and zero-point Energies=           -100.835610
 Sum of electronic and thermal Energies=              -100.833136
 Sum of electronic and thermal Enthalpies=            -100.832191
 Sum of electronic and thermal Free Energies=         -100.855541

                     E (Thermal)             CV                S
                      KCal/Mol        Cal/Mol-Kelvin    Cal/Mol-Kelvin
 Total                    4.088              6.005             49.143
 Electronic               0.000              0.000              1.377
 Translational            0.889              2.981             35.068
 Rotational               0.592              1.987             12.403
 Vibrational              2.607              1.037              0.294

 Normal termination of Gaussian 16 at Fri Aug 22 16:31:18 2025.
