 Gaussian 16, Revision C.01,
 Gaussian 16:  ES64L-G16RevC.01  3-Jul-2019

 -----------------------------------------
 # sp b3lyp/6-311g** Force nosymm scf=(qc)
 -----------------------------------------

 -------------------
 Title Card Required
 -------------------
 Symbolic Z-matrix:
 Charge =  0 Multiplicity = 2

                          Input orientation:
 ---------------------------------------------------------------------
 Center     Atomic      Atomic             Coordinates (Angstroms)
 Number     Number       Type             X           Y           Z
 ---------------------------------------------------------------------
      1          1           0        0.000000    0.000000    0.000000
      2          1           0       -1.000000    0.000000    0.000000
      3          9           0        3.550000    0.000000    0.000000
 ---------------------------------------------------------------------

 SCF Done:  E(UB3LYP) =  -100.906590996     a.u. after    7 cycles

 Alpha  occ. eigenvalues --  -24.76169  -1.22074  -0.55293  -0.46438  -0.46438
 Alpha  occ. eigenvalues --   -0.39116
 Alpha virt. eigenvalues --    0.00097   0.21213   0.38311   0.87649   0.90956
 Alpha virt. eigenvalues --    0.90956   1.01568   1.08986   1.08986   1.37395
 Alpha virt. eigenvalues --    1.65631   1.65631   2.21803   2.35955   2.58711

  Beta  occ. eigenvalues --  -24.73019  -1.13014  -0.43279  -0.43279  -0.39110
  Beta virt. eigenvalues --   -0.26028   0.00134   0.21245   0.38471   0.92454
  Beta virt. eigenvalues --    0.92454   0.96870   1.05702   1.08995   1.08995
  Beta virt. eigenvalues --    1.37416   1.65638   1.65638   2.21835   2.35970

 Mulliken charges and spin densities:
               1          2
     1  H   -0.005056  -0.000869
     2  H    0.004543   0.002110
     3  F    0.000513   0.998758
 Sum of Mulliken charges =   0.00000   1.00000

 Dipole moment (field-independent basis, Debye):
    X=             -0.0150    Y=              0.0000    Z=             -0.0000  Tot=              0.0150
 Quadrupole moment (field-independent basis, Debye-Ang):
   XX=             -5.4982   YY=             -7.2710   ZZ=             -7.2710
   XY=              0.0000   XZ=             -0.0000   YZ=             -0.0000

  Exact polarizability:      13.074      -0.000       2.057       0.000      -0.000       2.057
 Approx polarizability:      16.885      -0.000       2.108       0.000      -0.000       2.108

 ******    1 imaginary frequencies (negative Signs) ******

                      1                      2                      3
                      A                      A                      A
 Frequencies --    -23.3673              1539.1927              1539.1927
 Red. masses --      1.1085                 1.0093                 1.0093
 Frc consts  --      0.0004                 1.4089                 1.4089
 IR Inten    --      0.0224                 0.0261                 0.0261

                      4
                      A
 Frequencies --   1792.7504
 Red. masses --      1.0078
 Frc consts  --      1.9084
 IR Inten    --      0.4718

 - Thermochemistry -
 -------------------
 Temperature   298.150 Kelvin.  Pressure   1.00000 Atm.
 Atom     1 has atomic number  1 and mass   1.00783

 Molecular mass:    21.01405 amu.
 Principal axes and moments of inertia in atomic units:
                           1         2         3
     Eigenvalues --     0.00000 108.54024 108.54024
           X            1.00000  -0.00000   0.00000
           Y            0.00000   1.00000   0.00000
           Z            0.00000   0.00000   1.00000
 This molecule is a prolate symmetric top.
 Rotational symmetry number  1.
 Rotational temperature (Kelvin)      0.79799
 Rotational constant (GHZ):          16.627393
    1 imaginary frequencies ignored.
 Zero-point vibrational energy      29135.9 (Joules/Mol)
                                    6.96364 (Kcal/Mol)
 Vibrational temperatures:   2214.56  2214.56  2579.37
          (Kelvin)

 Zero-point correction=                           0.011097 (Hartree/Particle)
 Thermal correction to Energy=                    0.013467
 Thermal correction to Enthalpy=                  0.014412
 Thermal correction to Gibbs Free Energy=        -0.009453
 Sum of electronic and zero-point Energies=           -100.895494
 Sum of electronic and thermal Energies=              -100.893123
 Sum of electronic and thermal Enthalpies=            -100.892179
 Sum of electronic and thermal Free Energies=         -100.916044

                     E (Thermal)             CV                S
                      KCal/Mol        Cal/Mol-Kelvin    Cal/Mol-Kelvin
 Total                    8.451              5.125             50.227
 Electronic               0.000              0.000              1.377
 Translational            0.889              2.981             35.068
 Rotational               0.592              1.987             13.758
 Vibrational              6.970              0.157              0.023

 Normal termination of Gaussian 16 at Fri Aug 22 22:20:32 2025.
