 Gaussian 16, Revision C.01,
 Gaussian 16:  ES64L-G16RevC.01  3-Jul-2019

 -----------------------------------------
 # sp b3lyp/6-311g** Force nosymm scf=(qc)
 -----------------------------------------

 -------------------
 Title Card Required
 -------------------
 Symbolic Z-matrix:
 Charge =  0 Multiplicity = 2

                          Input orientation:
 ---------------------------------------------------------------------
 Center     Atomic      Atomic             Coordinates (Angstroms)
 Number     Number       Type             X           Y           Z
 ---------------------------------------------------------------------
      1          1           0        0.000000    0.000000    0.000000
      2          1           0       -1.150000    0.000000    0.000000
      3          9           0        3.900000    0.000000    0.000000
 ---------------------------------------------------------------------

 SCF Done:  E(UB3LYP) =  -100.880594971     a.u. after   50 cycles

 Alpha  occ. eigenvalues --  -24.76221  -1.22119  -0.55322  -0.46498  -0.46478
 Alpha  occ. eigenvalues --   -0.36914
 Alpha virt. eigenvalues --   -0.03004   0.22488   0.35240   0.86048   0.90925
 Alpha virt. eigenvalues --    0.91442   1.00938   1.11784   1.11786   1.25805
 Alpha virt. eigenvalues --    1.57082   1.57084   2.11755   2.32894   2.54770

  Beta  occ. eigenvalues --  -24.73065  -1.13045  -0.43335  -0.43315  -0.36913
  Beta virt. eigenvalues --   -0.25972  -0.03002   0.22491   0.35253   0.92425
  Beta virt. eigenvalues --    0.92935   0.95514   1.05085   1.11784   1.11785
  Beta virt. eigenvalues --    1.25808   1.57082   1.57084   2.11757   2.32895

 Mulliken charges and spin densities:
               1          2
     1  H    0.000893  -0.000079
     2  H   -0.001988  -0.000042
     3  F    0.001095   1.000120
 Sum of Mulliken charges =   0.00000   1.00000

 Dipole moment (field-independent basis, Debye):
    X=              0.0229    Y=             -0.0000    Z=              0.0000  Tot=              0.0229
 Quadrupole moment (field-independent basis, Debye-Ang):
   XX=             -6.3364   YY=             -6.5867   ZZ=             -7.4313
   XY=             -0.0000   XZ=              0.0000   YZ=             -0.0926

  Exact polarizability:      14.775      -0.000       2.541      -0.000      -0.050       2.083
 Approx polarizability:      21.580      -0.000       2.686       0.000      -0.062       2.116

 ******    1 imaginary frequencies (negative Signs) ******

                      1                      2                      3
                      A                      A                      A
 Frequencies --    -54.7222               583.3119              1503.5902
 Red. masses --      1.1085                 1.0078                 1.0095
 Frc consts  --      0.0020                 0.2020                 1.3446
 IR Inten    --      0.0458                 0.0566                 0.0024

                      4
                      A
 Frequencies --   1505.1985
 Red. masses --      1.0095
 Frc consts  --      1.3475
 IR Inten    --      0.0010

 - Thermochemistry -
 -------------------
 Temperature   298.150 Kelvin.  Pressure   1.00000 Atm.
 Atom     1 has atomic number  1 and mass   1.00783

 Molecular mass:    21.01405 amu.
 Principal axes and moments of inertia in atomic units:
                           1         2         3
     Eigenvalues --     0.00000 132.69839 132.69839
           X            1.00000  -0.00000   0.00000
           Y            0.00000   1.00000   0.00000
           Z            0.00000   0.00000   1.00000
 This molecule is a prolate symmetric top.
 Rotational symmetry number  1.
 Rotational temperature (Kelvin)      0.65271
 Rotational constant (GHZ):          13.600325
    1 imaginary frequencies ignored.
 Zero-point vibrational energy      21485.5 (Joules/Mol)
                                    5.13517 (Kcal/Mol)
 Warning -- explicit consideration of   1 degrees of freedom as
           vibrations may cause significant error
 Vibrational temperatures:    839.26  2163.33  2165.64
          (Kelvin)

 Zero-point correction=                           0.008183 (Hartree/Particle)
 Thermal correction to Energy=                    0.010723
 Thermal correction to Enthalpy=                  0.011667
 Thermal correction to Gibbs Free Energy=        -0.012615
 Sum of electronic and zero-point Energies=           -100.872412
 Sum of electronic and thermal Energies=              -100.869872
 Sum of electronic and thermal Enthalpies=            -100.868928
 Sum of electronic and thermal Free Energies=         -100.893210

                     E (Thermal)             CV                S
                      KCal/Mol        Cal/Mol-Kelvin    Cal/Mol-Kelvin
 Total                    6.729              6.183             51.105
 Electronic               0.000              0.000              1.377
 Translational            0.889              2.981             35.068
 Rotational               0.592              1.987             14.157
 Vibrational              5.248              1.215              0.502
 Vibration     1          0.940              1.067              0.479

 Normal termination of Gaussian 16 at Sat Aug 23 01:15:32 2025.
