 Gaussian 16, Revision C.01,
 Gaussian 16:  ES64L-G16RevC.01  3-Jul-2019

 -----------------------------------------
 # sp b3lyp/6-311g** Force nosymm scf=(qc)
 -----------------------------------------

 -------------------
 Title Card Required
 -------------------
 Symbolic Z-matrix:
 Charge =  0 Multiplicity = 2

                          Input orientation:
 ---------------------------------------------------------------------
 Center     Atomic      Atomic             Coordinates (Angstroms)
 Number     Number       Type             X           Y           Z
 ---------------------------------------------------------------------
      1          1           0        0.000000    0.000000    0.000000
      2          1           0       -2.900000    0.000000    0.000000
      3          9           0        3.850000    0.000000    0.000000
 ---------------------------------------------------------------------

 SCF Done:  E(UB3LYP) =  -100.759919848     a.u. after   40 cycles

 Alpha  occ. eigenvalues --  -24.75807  -1.21740  -0.54932  -0.46122  -0.46122
 Alpha  occ. eigenvalues --   -0.32385
 Alpha virt. eigenvalues --   -0.08001   0.25212   0.36097   0.86766   0.91215
 Alpha virt. eigenvalues --    0.91215   1.01198   1.25163   1.25163   1.26063
 Alpha virt. eigenvalues --    1.43922   1.43922   1.44043   2.15920   2.39159

  Beta  occ. eigenvalues --  -24.72667  -1.12710  -0.42974  -0.42974  -0.32597
  Beta virt. eigenvalues --   -0.25700  -0.07734   0.25036   0.36470   0.92713
  Beta virt. eigenvalues --    0.92713   0.96103   1.05309   1.24929   1.24929
  Beta virt. eigenvalues --    1.25806   1.44326   1.44326   1.44446   2.16005

 Mulliken charges and spin densities:
               1          2
     1  H    0.003418  -0.985738
     2  H    0.000424   0.990042
     3  F   -0.003842   0.995696
 Sum of Mulliken charges =   0.00000   1.00000

 Dipole moment (field-independent basis, Debye):
    X=             -0.0822    Y=              0.0000    Z=             -0.0000  Tot=              0.0822
 Quadrupole moment (field-independent basis, Debye-Ang):
   XX=             -6.9080   YY=             -7.6405   ZZ=             -7.6405
   XY=              0.0000   XZ=             -0.0000   YZ=             -0.0000

  Exact polarizability:      17.307       0.000       2.027      -0.000      -0.000       2.027
 Approx polarizability:      12.831       0.000       1.933      -0.000       0.000       1.933

 ******    2 imaginary frequencies (negative Signs) ******

                      1                      2                      3
                      A                      A                      A
 Frequencies --   -383.8768               -87.4818               136.7492
 Red. masses --      1.0081                 1.1081                 1.0149
 Frc consts  --      0.0875                 0.0050                 0.0112
 IR Inten    --      1.3438                 1.2455                 0.0100

                      4
                      A
 Frequencies --    136.7492
 Red. masses --      1.0149
 Frc consts  --      0.0112
 IR Inten    --      0.0100

 - Thermochemistry -
 -------------------
 Temperature   298.150 Kelvin.  Pressure   1.00000 Atm.
 Atom     1 has atomic number  1 and mass   1.00783

 Molecular mass:    21.01405 amu.
 Principal axes and moments of inertia in atomic units:
                           1         2         3
     Eigenvalues --     0.00000 197.93202 197.93202
           X            1.00000  -0.00000   0.00000
           Y            0.00000   1.00000   0.00000
           Z            0.00000   0.00000   1.00000
 This molecule is a prolate symmetric top.
 Rotational symmetry number  1.
 Rotational temperature (Kelvin)      0.43759
 Rotational constant (GHZ):           9.117985
    2 imaginary frequencies ignored.
 Zero-point vibrational energy       1635.9 (Joules/Mol)
                                    0.39099 (Kcal/Mol)
 Warning -- explicit consideration of   2 degrees of freedom as
           vibrations may cause significant error
 Vibrational temperatures:    196.75   196.75
          (Kelvin)

 Zero-point correction=                           0.000623 (Hartree/Particle)
 Thermal correction to Energy=                    0.004317
 Thermal correction to Enthalpy=                  0.005261
 Thermal correction to Gibbs Free Energy=        -0.021867
 Sum of electronic and zero-point Energies=           -100.759297
 Sum of electronic and thermal Energies=              -100.755603
 Sum of electronic and thermal Enthalpies=            -100.754659
 Sum of electronic and thermal Free Energies=         -100.781786

                     E (Thermal)             CV                S
                      KCal/Mol        Cal/Mol-Kelvin    Cal/Mol-Kelvin
 Total                    2.709              8.801             57.095
 Electronic               0.000              0.000              1.377
 Translational            0.889              2.981             35.068
 Rotational               0.592              1.987             14.952
 Vibrational              1.228              3.833              5.698
 Vibration     1          0.614              1.917              2.849
 Vibration     2          0.614              1.917              2.849

 Normal termination of Gaussian 16 at Sat Aug 23 01:09:55 2025.
