 Gaussian 16, Revision C.01,
 Gaussian 16:  ES64L-G16RevC.01  3-Jul-2019

 -----------------------------------------
 # sp b3lyp/6-311g** Force nosymm scf=(qc)
 -----------------------------------------

 -------------------
 Title Card Required
 -------------------
 Symbolic Z-matrix:
 Charge =  0 Multiplicity = 2

                          Input orientation:
 ---------------------------------------------------------------------
 Center     Atomic      Atomic             Coordinates (Angstroms)
 Number     Number       Type             X           Y           Z
 ---------------------------------------------------------------------
      1          1           0        0.000000    0.000000    0.000000
      2          1           0       -3.000000    0.000000    0.000000
      3          9           0        1.350000    0.000000    0.000000
 ---------------------------------------------------------------------

 SCF Done:  E(UB3LYP) =  -100.889412955     a.u. after    7 cycles

 Alpha  occ. eigenvalues --  -24.64300  -1.10614  -0.45262  -0.36817  -0.36817
 Alpha  occ. eigenvalues --   -0.34540
 Alpha virt. eigenvalues --   -0.10238   0.22061   0.27864   0.93087   0.93087
 Alpha virt. eigenvalues --    1.02680   1.18907   1.22984   1.22984   1.23613
 Alpha virt. eigenvalues --    1.33347   1.33347   1.71416   2.13858   2.23290

  Beta  occ. eigenvalues --  -24.64273  -1.10543  -0.45176  -0.36791  -0.36791
  Beta virt. eigenvalues --   -0.11759  -0.06256   0.25263   0.37494   0.93081
  Beta virt. eigenvalues --    0.93081   1.02754   1.19167   1.33261   1.33261
  Beta virt. eigenvalues --    1.44920   1.45279   1.45279   1.71537   2.23176

 Mulliken charges and spin densities:
               1          2
     1  H    0.355022  -0.003233
     2  H    0.004877   0.994539
     3  F   -0.359900   0.008694
 Sum of Mulliken charges =   0.00000   1.00000

 Dipole moment (field-independent basis, Debye):
    X=             -2.5154    Y=              0.0000    Z=             -0.0000  Tot=              2.5154
 Quadrupole moment (field-independent basis, Debye-Ang):
   XX=             -9.2129   YY=             -7.2335   ZZ=             -7.2335
   XY=              0.0000   XZ=             -0.0000   YZ=              0.0000

  Exact polarizability:      13.888      -0.000       2.262       0.000       0.000       2.262
 Approx polarizability:      21.271      -0.000       2.203       0.000      -0.000       2.203

 ******    2 imaginary frequencies (negative Signs) ******

                      1                      2                      3
                      A                      A                      A
 Frequencies --   -897.3854              -120.0273              1117.9829
 Red. masses --      1.0547                 1.0569                 1.0298
 Frc consts  --      0.5004                 0.0090                 0.7583
 IR Inten    --     74.7612                 0.4464               125.6220

                      4
                      A
 Frequencies --   1117.9829
 Red. masses --      1.0298
 Frc consts  --      0.7583
 IR Inten    --    125.6220

 - Thermochemistry -
 -------------------
 Temperature   298.150 Kelvin.  Pressure   1.00000 Atm.
 Atom     1 has atomic number  1 and mass   1.00783

 Molecular mass:    21.01405 amu.
 Principal axes and moments of inertia in atomic units:
                           1         2         3
     Eigenvalues --     0.00000  69.05343  69.05343
           X            1.00000  -0.00000   0.00000
           Y            0.00000   1.00000   0.00000
           Z            0.00000   0.00000   1.00000
 This molecule is a prolate symmetric top.
 Rotational symmetry number  1.
 Rotational temperature (Kelvin)      1.25430
 Rotational constant (GHZ):          26.135430
    2 imaginary frequencies ignored.
 Zero-point vibrational energy      13374.0 (Joules/Mol)
                                    3.19647 (Kcal/Mol)
 Vibrational temperatures:   1608.53  1608.53
          (Kelvin)

 Zero-point correction=                           0.005094 (Hartree/Particle)
 Thermal correction to Energy=                    0.007501
 Thermal correction to Enthalpy=                  0.008445
 Thermal correction to Gibbs Free Energy=        -0.015036
 Sum of electronic and zero-point Energies=           -100.884319
 Sum of electronic and thermal Energies=              -100.881912
 Sum of electronic and thermal Enthalpies=            -100.880968
 Sum of electronic and thermal Free Energies=         -100.904449

                     E (Thermal)             CV                S
                      KCal/Mol        Cal/Mol-Kelvin    Cal/Mol-Kelvin
 Total                    4.707              5.498             49.421
 Electronic               0.000              0.000              1.377
 Translational            0.889              2.981             35.068
 Rotational               0.592              1.987             12.859
 Vibrational              3.226              0.530              0.116

 Normal termination of Gaussian 16 at Fri Aug 22 16:18:17 2025.
