 Gaussian 16, Revision C.01,
 Gaussian 16:  ES64L-G16RevC.01  3-Jul-2019

 -----------------------------------------
 # sp b3lyp/6-311g** Force nosymm scf=(qc)
 -----------------------------------------

 -------------------
 Title Card Required
 -------------------
 Symbolic Z-matrix:
 Charge =  0 Multiplicity = 2

                          Input orientation:
 ---------------------------------------------------------------------
 Center     Atomic      Atomic             Coordinates (Angstroms)
 Number     Number       Type             X           Y           Z
 ---------------------------------------------------------------------
      1          1           0        0.000000    0.000000    0.000000
      2          1           0       -3.200000    0.000000    0.000000
      3          9           0        3.400000    0.000000    0.000000
 ---------------------------------------------------------------------

 SCF Done:  E(UB3LYP) =  -100.759743339     a.u. after   27 cycles

 Alpha  occ. eigenvalues --  -24.75209  -1.21185  -0.54331  -0.45617  -0.45617
 Alpha  occ. eigenvalues --   -0.32429
 Alpha virt. eigenvalues --   -0.07727   0.24601   0.36284   0.87941   0.91590
 Alpha virt. eigenvalues --    0.91590   1.02104   1.25090   1.25090   1.25505
 Alpha virt. eigenvalues --    1.44243   1.44322   1.44322   2.15418   2.40208

  Beta  occ. eigenvalues --  -24.72107  -1.12274  -0.42509  -0.42509  -0.32982
  Beta virt. eigenvalues --   -0.25393  -0.07057   0.24382   0.37337   0.93076
  Beta virt. eigenvalues --    0.93076   0.97015   1.06080   1.24449   1.24449
  Beta virt. eigenvalues --    1.24834   1.45195   1.45395   1.45395   2.15750

 Mulliken charges and spin densities:
               1          2
     1  H    0.014421  -0.979119
     2  H    0.000482   0.995529
     3  F   -0.014903   0.983590
 Sum of Mulliken charges =  -0.00000   1.00000

 Dipole moment (field-independent basis, Debye):
    X=             -0.2679    Y=             -0.0000    Z=             -0.0000  Tot=              0.2679
 Quadrupole moment (field-independent basis, Debye-Ang):
   XX=             -7.5087   YY=             -7.6266   ZZ=             -7.6266
   XY=             -0.0000   XZ=             -0.0000   YZ=             -0.0000

  Exact polarizability:      27.401      -0.000       2.030      -0.000      -0.000       2.030
 Approx polarizability:      22.387      -0.000       1.931      -0.000       0.000       1.931

 ******    2 imaginary frequencies (negative Signs) ******

                      1                      2                      3
                      A                      A                      A
 Frequencies --   -311.4654              -131.1319               105.7810
 Red. masses --      1.0185                 1.0959                 1.0172
 Frc consts  --      0.0582                 0.0111                 0.0067
 IR Inten    --     12.6872                 3.2975                 0.1816

                      4
                      A
 Frequencies --    105.7810
 Red. masses --      1.0172
 Frc consts  --      0.0067
 IR Inten    --      0.1816

 - Thermochemistry -
 -------------------
 Temperature   298.150 Kelvin.  Pressure   1.00000 Atm.
 Atom     1 has atomic number  1 and mass   1.00783

 Molecular mass:    21.01405 amu.
 Principal axes and moments of inertia in atomic units:
                           1         2         3
     Eigenvalues --     0.00000 181.11666 181.11666
           X            1.00000  -0.00000   0.00000
           Y            0.00000   1.00000   0.00000
           Z            0.00000   0.00000   1.00000
 This molecule is a prolate symmetric top.
 Rotational symmetry number  1.
 Rotational temperature (Kelvin)      0.47822
 Rotational constant (GHZ):           9.964523
    2 imaginary frequencies ignored.
 Zero-point vibrational energy       1265.4 (Joules/Mol)
                                    0.30244 (Kcal/Mol)
 Warning -- explicit consideration of   2 degrees of freedom as
           vibrations may cause significant error
 Vibrational temperatures:    152.20   152.20
          (Kelvin)

 Zero-point correction=                           0.000482 (Hartree/Particle)
 Thermal correction to Energy=                    0.004290
 Thermal correction to Enthalpy=                  0.005234
 Thermal correction to Gibbs Free Energy=        -0.022281
 Sum of electronic and zero-point Energies=           -100.759261
 Sum of electronic and thermal Energies=              -100.755454
 Sum of electronic and thermal Enthalpies=            -100.754509
 Sum of electronic and thermal Free Energies=         -100.782025

                     E (Thermal)             CV                S
                      KCal/Mol        Cal/Mol-Kelvin    Cal/Mol-Kelvin
 Total                    2.692              8.857             57.911
 Electronic               0.000              0.000              1.377
 Translational            0.889              2.981             35.068
 Rotational               0.592              1.987             14.775
 Vibrational              1.211              3.889              6.690
 Vibration     1          0.605              1.945              3.345
 Vibration     2          0.605              1.945              3.345

 Normal termination of Gaussian 16 at Fri Aug 22 21:18:17 2025.
