 Gaussian 16, Revision C.01,
 Gaussian 16:  ES64L-G16RevC.01  3-Jul-2019

 -----------------------------------------
 # sp b3lyp/6-311g** Force nosymm scf=(qc)
 -----------------------------------------

 -------------------
 Title Card Required
 -------------------
 Symbolic Z-matrix:
 Charge =  0 Multiplicity = 2

                          Input orientation:
 ---------------------------------------------------------------------
 Center     Atomic      Atomic             Coordinates (Angstroms)
 Number     Number       Type             X           Y           Z
 ---------------------------------------------------------------------
      1          1           0        0.000000    0.000000    0.000000
      2          1           0       -3.700000    0.000000    0.000000
      3          9           0        2.950000    0.000000    0.000000
 ---------------------------------------------------------------------

 SCF Done:  E(UB3LYP) =  -100.761297877     a.u. after   21 cycles

 Alpha  occ. eigenvalues --  -24.73893  -1.19968  -0.53012  -0.44514  -0.44514
 Alpha  occ. eigenvalues --   -0.32525
 Alpha virt. eigenvalues --   -0.08130   0.23872   0.36136   0.89512   0.92390
 Alpha virt. eigenvalues --    0.92390   1.04169   1.24976   1.24976   1.25048
 Alpha virt. eigenvalues --    1.43958   1.43958   1.44419   2.14549   2.40152

  Beta  occ. eigenvalues --  -24.70879  -1.11334  -0.41498  -0.41498  -0.33855
  Beta virt. eigenvalues --   -0.24664  -0.06276   0.23832   0.38055   0.93847
  Beta virt. eigenvalues --    0.93847   0.98109   1.07826   1.23465   1.23465
  Beta virt. eigenvalues --    1.24047   1.46190   1.46407   1.46407   2.14556

 Mulliken charges and spin densities:
               1          2
     1  H    0.040816  -0.953629
     2  H    0.000289   0.998741
     3  F   -0.041105   0.954887
 Sum of Mulliken charges =  -0.00000   1.00000

 Dipole moment (field-independent basis, Debye):
    X=             -0.6276    Y=             -0.0000    Z=              0.0000  Tot=              0.6276
 Quadrupole moment (field-independent basis, Debye-Ang):
   XX=             -8.4306   YY=             -7.6046   ZZ=             -7.6046
   XY=             -0.0000   XZ=              0.0000   YZ=             -0.0000

  Exact polarizability:      31.532      -0.000       2.026       0.000       0.000       2.026
 Approx polarizability:      33.128      -0.000       1.926       0.000      -0.000       1.926

 ******    2 imaginary frequencies (negative Signs) ******

                      1                      2                      3
                      A                      A                      A
 Frequencies --   -388.7921               -96.1375               137.2725
 Red. masses --      1.0514                 1.0602                 1.0209
 Frc consts  --      0.0936                 0.0058                 0.0113
 IR Inten    --     43.1012                 0.2456                 1.5862

                      4
                      A
 Frequencies --    137.2725
 Red. masses --      1.0209
 Frc consts  --      0.0113
 IR Inten    --      1.5862

 - Thermochemistry -
 -------------------
 Temperature   298.150 Kelvin.  Pressure   1.00000 Atm.
 Atom     1 has atomic number  1 and mass   1.00783

 Molecular mass:    21.01405 amu.
 Principal axes and moments of inertia in atomic units:
                           1         2         3
     Eigenvalues --     0.00000 174.57007 174.57007
           X            1.00000  -0.00000   0.00000
           Y            0.00000   1.00000   0.00000
           Z            0.00000   0.00000   1.00000
 This molecule is a prolate symmetric top.
 Rotational symmetry number  1.
 Rotational temperature (Kelvin)      0.49616
 Rotational constant (GHZ):          10.338205
    2 imaginary frequencies ignored.
 Zero-point vibrational energy       1642.1 (Joules/Mol)
                                    0.39248 (Kcal/Mol)
 Warning -- explicit consideration of   2 degrees of freedom as
           vibrations may cause significant error
 Vibrational temperatures:    197.50   197.50
          (Kelvin)

 Zero-point correction=                           0.000625 (Hartree/Particle)
 Thermal correction to Energy=                    0.004317
 Thermal correction to Enthalpy=                  0.005262
 Thermal correction to Gibbs Free Energy=        -0.021741
 Sum of electronic and zero-point Energies=           -100.760672
 Sum of electronic and thermal Energies=              -100.756980
 Sum of electronic and thermal Enthalpies=            -100.756036
 Sum of electronic and thermal Free Energies=         -100.783038

                     E (Thermal)             CV                S
                      KCal/Mol        Cal/Mol-Kelvin    Cal/Mol-Kelvin
 Total                    2.709              8.800             56.831
 Electronic               0.000              0.000              1.377
 Translational            0.889              2.981             35.068
 Rotational               0.592              1.987             14.702
 Vibrational              1.228              3.832              5.683
 Vibration     1          0.614              1.916              2.842
 Vibration     2          0.614              1.916              2.842

 Normal termination of Gaussian 16 at Fri Aug 22 19:19:11 2025.
