 Gaussian 16, Revision C.01,
 Gaussian 16:  ES64L-G16RevC.01  3-Jul-2019

 -----------------------------------------
 # sp b3lyp/6-311g** Force nosymm scf=(qc)
 -----------------------------------------

 -------------------
 Title Card Required
 -------------------
 Symbolic Z-matrix:
 Charge =  0 Multiplicity = 2

                          Input orientation:
 ---------------------------------------------------------------------
 Center     Atomic      Atomic             Coordinates (Angstroms)
 Number     Number       Type             X           Y           Z
 ---------------------------------------------------------------------
      1          1           0        0.000000    0.000000    0.000000
      2          1           0       -0.750000    0.000000    0.000000
      3          9           0        2.300000    0.000000    0.000000
 ---------------------------------------------------------------------

 SCF Done:  E(UB3LYP) =  -100.934037402     a.u. after    6 cycles

 Alpha  occ. eigenvalues --  -24.75761  -1.21705  -0.55129  -0.46097  -0.46097
 Alpha  occ. eigenvalues --   -0.44072
 Alpha virt. eigenvalues --    0.06427   0.20133   0.46832   0.89877   0.90965
 Alpha virt. eigenvalues --    0.90965   1.07598   1.07598   1.13522   1.55813
 Alpha virt. eigenvalues --    1.81434   1.81434   1.96545   2.39265   3.27003

  Beta  occ. eigenvalues --  -24.72658  -1.12806  -0.44103  -0.42992  -0.42992
  Beta virt. eigenvalues --   -0.26072   0.07008   0.20526   0.47071   0.92418
  Beta virt. eigenvalues --    0.92418   0.98184   1.07858   1.07858   1.17650
  Beta virt. eigenvalues --    1.56316   1.81575   1.81575   1.96764   2.39562

 Mulliken charges and spin densities:
               1          2
     1  H   -0.012171  -0.013116
     2  H    0.022118   0.033717
     3  F   -0.009947   0.979399
 Sum of Mulliken charges =   0.00000   1.00000

 Dipole moment (field-independent basis, Debye):
    X=             -0.1931    Y=             -0.0000    Z=              0.0000  Tot=              0.1931
 Quadrupole moment (field-independent basis, Debye-Ang):
   XX=             -5.7062   YY=             -6.9386   ZZ=             -6.9386
   XY=             -0.0000   XZ=             -0.0000   YZ=             -0.0000

  Exact polarizability:      14.316      -0.000       2.007       0.000       0.000       2.007
 Approx polarizability:      15.361      -0.000       2.088       0.000       0.000       2.088

 ******    1 imaginary frequencies (negative Signs) ******

                      1                      2                      3
                      A                      A                      A
 Frequencies --   -142.7887               414.4330               414.4330
 Red. masses --      1.1085                 1.0098                 1.0098
 Frc consts  --      0.0133                 0.1022                 0.1022
 IR Inten    --      7.5022                 0.6220                 0.6220

                      4
                      A
 Frequencies --   4304.8826
 Red. masses --      1.0078
 Frc consts  --     11.0042
 IR Inten    --     75.0241

 - Thermochemistry -
 -------------------
 Temperature   298.150 Kelvin.  Pressure   1.00000 Atm.
 Atom     1 has atomic number  1 and mass   1.00783

 Molecular mass:    21.01405 amu.
 Principal axes and moments of inertia in atomic units:
                           1         2         3
     Eigenvalues --     0.00000  47.57809  47.57809
           X            1.00000  -0.00000   0.00000
           Y            0.00000   1.00000   0.00000
           Z            0.00000   0.00000   1.00000
 This molecule is a prolate symmetric top.
 Rotational symmetry number  1.
 Rotational temperature (Kelvin)      1.82046
 Rotational constant (GHZ):          37.932191
    1 imaginary frequencies ignored.
 Zero-point vibrational energy      30706.6 (Joules/Mol)
                                    7.33906 (Kcal/Mol)
 Warning -- explicit consideration of   2 degrees of freedom as
           vibrations may cause significant error
 Vibrational temperatures:    596.28   596.28  6193.77
          (Kelvin)

 Zero-point correction=                           0.011696 (Hartree/Particle)
 Thermal correction to Energy=                    0.014647
 Thermal correction to Enthalpy=                  0.015591
 Thermal correction to Gibbs Free Energy=        -0.008349
 Sum of electronic and zero-point Energies=           -100.922342
 Sum of electronic and thermal Energies=              -100.919390
 Sum of electronic and thermal Enthalpies=            -100.918446
 Sum of electronic and thermal Free Energies=         -100.942386

                     E (Thermal)             CV                S
                      KCal/Mol        Cal/Mol-Kelvin    Cal/Mol-Kelvin
 Total                    9.191              7.846             50.387
 Electronic               0.000              0.000              1.377
 Translational            0.889              2.981             35.068
 Rotational               0.592              1.987             12.119
 Vibrational              7.710              2.878              1.822
 Vibration     1          0.778              1.439              0.911
 Vibration     2          0.778              1.439              0.911

 Normal termination of Gaussian 16 at Fri Aug 22 17:20:41 2025.
