 Gaussian 16, Revision C.01,
 Gaussian 16:  ES64L-G16RevC.01  3-Jul-2019

 -----------------------------------------
 # sp b3lyp/6-311g** Force nosymm scf=(qc)
 -----------------------------------------

 -------------------
 Title Card Required
 -------------------
 Symbolic Z-matrix:
 Charge =  0 Multiplicity = 2

                          Input orientation:
 ---------------------------------------------------------------------
 Center     Atomic      Atomic             Coordinates (Angstroms)
 Number     Number       Type             X           Y           Z
 ---------------------------------------------------------------------
      1          1           0        0.000000    0.000000    0.000000
      2          1           0       -3.850000    0.000000    0.000000
      3          9           0        2.150000    0.000000    0.000000
 ---------------------------------------------------------------------

 SCF Done:  E(UB3LYP) =  -100.778657820     a.u. after   19 cycles

 Alpha  occ. eigenvalues --  -24.69403  -1.15721  -0.48447  -0.40756  -0.40756
 Alpha  occ. eigenvalues --   -0.33072
 Alpha virt. eigenvalues --   -0.12639   0.22801   0.32922   0.88228   0.94610
 Alpha virt. eigenvalues --    0.94610   1.05816   1.24432   1.24432   1.24442
 Alpha virt. eigenvalues --    1.37022   1.37022   1.53696   2.13823   2.31836

  Beta  occ. eigenvalues --  -24.66830  -1.08474  -0.38208  -0.38208  -0.37049
  Beta virt. eigenvalues --   -0.21677  -0.06350   0.22939   0.38073   0.90701
  Beta virt. eigenvalues --    0.95605   0.95605   1.08120   1.21520   1.21520
  Beta virt. eigenvalues --    1.44535   1.46385   1.46477   1.46477   2.11384

 Mulliken charges and spin densities:
               1          2
     1  H    0.154983  -0.809263
     2  H    0.000558   0.999074
     3  F   -0.155541   0.810189
 Sum of Mulliken charges =  -0.00000   1.00000

 Dipole moment (field-independent basis, Debye):
    X=             -1.6796    Y=              0.0000    Z=             -0.0000  Tot=              1.6796
 Quadrupole moment (field-independent basis, Debye-Ang):
   XX=             -9.9142   YY=             -7.5160   ZZ=             -7.5160
   XY=              0.0000   XZ=             -0.0000   YZ=              0.0000

  Exact polarizability:      26.683       0.000       2.045      -0.000      -0.000       2.045
 Approx polarizability:      37.642       0.000       1.932      -0.000      -0.000       1.932

 ******    2 imaginary frequencies (negative Signs) ******

                      1                      2                      3
                      A                      A                      A
 Frequencies --   -919.7367               -79.8696               387.3997
 Red. masses --      1.0575                 1.0541                 1.0263
 Frc consts  --      0.5270                 0.0040                 0.0907
 IR Inten    --    110.2056                 0.0537                23.1147

                      4
                      A
 Frequencies --    387.3997
 Red. masses --      1.0263
 Frc consts  --      0.0907
 IR Inten    --     23.1147

 - Thermochemistry -
 -------------------
 Temperature   298.150 Kelvin.  Pressure   1.00000 Atm.
 Atom     1 has atomic number  1 and mass   1.00783

 Molecular mass:    21.01405 amu.
 Principal axes and moments of inertia in atomic units:
                           1         2         3
     Eigenvalues --     0.00000 134.73574 134.73574
           X            1.00000  -0.00000   0.00000
           Y            0.00000   1.00000   0.00000
           Z            0.00000   0.00000   1.00000
 This molecule is a prolate symmetric top.
 Rotational symmetry number  1.
 Rotational temperature (Kelvin)      0.64284
 Rotational constant (GHZ):          13.394673
    2 imaginary frequencies ignored.
 Zero-point vibrational energy       4634.3 (Joules/Mol)
                                    1.10763 (Kcal/Mol)
 Warning -- explicit consideration of   2 degrees of freedom as
           vibrations may cause significant error
 Vibrational temperatures:    557.38   557.38
          (Kelvin)

 Zero-point correction=                           0.001765 (Hartree/Particle)
 Thermal correction to Energy=                    0.004769
 Thermal correction to Enthalpy=                  0.005713
 Thermal correction to Gibbs Free Energy=        -0.019304
 Sum of electronic and zero-point Energies=           -100.776893
 Sum of electronic and thermal Energies=              -100.773889
 Sum of electronic and thermal Enthalpies=            -100.772944
 Sum of electronic and thermal Free Energies=         -100.797962

                     E (Thermal)             CV                S
                      KCal/Mol        Cal/Mol-Kelvin    Cal/Mol-Kelvin
 Total                    2.993              7.962             52.653
 Electronic               0.000              0.000              1.377
 Translational            0.889              2.981             35.068
 Rotational               0.592              1.987             14.188
 Vibrational              1.512              2.994              2.020
 Vibration     1          0.756              1.497              1.010
 Vibration     2          0.756              1.497              1.010

 Normal termination of Gaussian 16 at Fri Aug 22 17:09:25 2025.
