 Gaussian 16, Revision C.01,
 Gaussian 16:  ES64L-G16RevC.01  3-Jul-2019

 -----------------------------------------
 # sp b3lyp/6-311g** Force nosymm scf=(qc)
 -----------------------------------------

 -------------------
 Title Card Required
 -------------------
 Symbolic Z-matrix:
 Charge =  0 Multiplicity = 2

                          Input orientation:
 ---------------------------------------------------------------------
 Center     Atomic      Atomic             Coordinates (Angstroms)
 Number     Number       Type             X           Y           Z
 ---------------------------------------------------------------------
      1          1           0        0.000000    0.000000    0.000000
      2          1           0       -3.350000    0.000000    0.000000
      3          9           0        1.600000    0.000000    0.000000
 ---------------------------------------------------------------------

 SCF Done:  E(UB3LYP) =  -100.834119172     a.u. after   17 cycles

 Alpha  occ. eigenvalues --  -24.64875  -1.10515  -0.43353  -0.36796  -0.36796
 Alpha  occ. eigenvalues --   -0.34139
 Alpha virt. eigenvalues --   -0.15302   0.20835   0.28407   0.94175   0.94175
 Alpha virt. eigenvalues --    1.00444   1.07033   1.23379   1.23379   1.23514
 Alpha virt. eigenvalues --    1.32071   1.32071   1.74284   2.13606   2.20790

  Beta  occ. eigenvalues --  -24.64047  -1.08292  -0.41411  -0.36001  -0.36001
  Beta virt. eigenvalues --   -0.17172  -0.07237   0.22363   0.37724   0.93868
  Beta virt. eigenvalues --    0.93868   1.01257   1.07309   1.27664   1.27664
  Beta virt. eigenvalues --    1.45129   1.45591   1.45591   1.72214   2.14200

 Mulliken charges and spin densities:
               1          2
     1  H    0.327460  -0.258333
     2  H    0.003050   0.996564
     3  F   -0.330510   0.261769
 Sum of Mulliken charges =  -0.00000   1.00000

 Dipole moment (field-independent basis, Debye):
    X=             -2.6330    Y=             -0.0000    Z=             -0.0000  Tot=              2.6330
 Quadrupole moment (field-independent basis, Debye-Ang):
   XX=            -10.0797   YY=             -7.3717   ZZ=             -7.3717
   XY=             -0.0000   XZ=             -0.0000   YZ=             -0.0000

  Exact polarizability:      20.356      -0.000       2.149       0.000       0.000       2.149
 Approx polarizability:      34.820      -0.000       2.062      -0.000      -0.000       2.062

 ******    2 imaginary frequencies (negative Signs) ******

                      1                      2                      3
                      A                      A                      A
 Frequencies --  -1896.9509              -119.4144               906.3298
 Red. masses --      1.0574                 1.0542                 1.0288
 Frc consts  --      2.2417                 0.0089                 0.4979
 IR Inten    --     57.4864                 0.5499               100.5717

                      4
                      A
 Frequencies --    906.3298
 Red. masses --      1.0288
 Frc consts  --      0.4979
 IR Inten    --    100.5717

 - Thermochemistry -
 -------------------
 Temperature   298.150 Kelvin.  Pressure   1.00000 Atm.
 Atom     1 has atomic number  1 and mass   1.00783

 Molecular mass:    21.01405 amu.
 Principal axes and moments of inertia in atomic units:
                           1         2         3
     Eigenvalues --     0.00000  89.99290  89.99290
           X            1.00000  -0.00000   0.00000
           Y            0.00000   1.00000   0.00000
           Z            0.00000   0.00000   1.00000
 This molecule is a prolate symmetric top.
 Rotational symmetry number  1.
 Rotational temperature (Kelvin)      0.96245
 Rotational constant (GHZ):          20.054262
    2 imaginary frequencies ignored.
 Zero-point vibrational energy      10842.1 (Joules/Mol)
                                    2.59133 (Kcal/Mol)
 Vibrational temperatures:   1304.01  1304.01
          (Kelvin)

 Zero-point correction=                           0.004130 (Hartree/Particle)
 Thermal correction to Energy=                    0.006595
 Thermal correction to Enthalpy=                  0.007540
 Thermal correction to Gibbs Free Energy=        -0.016266
 Sum of electronic and zero-point Energies=           -100.829990
 Sum of electronic and thermal Energies=              -100.827524
 Sum of electronic and thermal Enthalpies=            -100.826580
 Sum of electronic and thermal Free Energies=         -100.850385

                     E (Thermal)             CV                S
                      KCal/Mol        Cal/Mol-Kelvin    Cal/Mol-Kelvin
 Total                    4.139              5.951             50.103
 Electronic               0.000              0.000              1.377
 Translational            0.889              2.981             35.068
 Rotational               0.592              1.987             13.386
 Vibrational              2.657              0.983              0.272

 Normal termination of Gaussian 16 at Fri Aug 22 16:32:25 2025.
