 Gaussian 16, Revision C.01,
 Gaussian 16:  ES64L-G16RevC.01  3-Jul-2019

 -----------------------------------------
 # sp b3lyp/6-311g** Force nosymm scf=(qc)
 -----------------------------------------

 -------------------
 Title Card Required
 -------------------
 Symbolic Z-matrix:
 Charge =  0 Multiplicity = 2

                          Input orientation:
 ---------------------------------------------------------------------
 Center     Atomic      Atomic             Coordinates (Angstroms)
 Number     Number       Type             X           Y           Z
 ---------------------------------------------------------------------
      1          1           0        0.000000    0.000000    0.000000
      2          1           0       -3.200000    0.000000    0.000000
      3          9           0        2.250000    0.000000    0.000000
 ---------------------------------------------------------------------

 SCF Done:  E(UB3LYP) =  -100.773955279     a.u. after   18 cycles

 Alpha  occ. eigenvalues --  -24.67294  -1.08746  -0.38577  -0.38577  -0.36618
 Alpha  occ. eigenvalues --   -0.33131
 Alpha virt. eigenvalues --   -0.22126   0.21115   0.27992   0.92389   0.95625
 Alpha virt. eigenvalues --    0.95625   1.08421   1.21542   1.21542   1.24206
 Alpha virt. eigenvalues --    1.24206   1.24476   1.39651   2.12200   2.14896

  Beta  occ. eigenvalues --  -24.69954  -1.16261  -0.49020  -0.41216  -0.41216
  Beta virt. eigenvalues --   -0.12411  -0.04638   0.32047   0.39957   0.88880
  Beta virt. eigenvalues --    0.94474   0.94474   1.06433   1.38087   1.38087
  Beta virt. eigenvalues --    1.47762   1.47762   1.47801   1.50543   2.33710

 Mulliken charges and spin densities:
               1          2
     1  H    0.134315   0.840457
     2  H    0.002471   0.997580
     3  F   -0.136786  -0.838036
 Sum of Mulliken charges =   0.00000   1.00000

 Dipole moment (field-independent basis, Debye):
    X=             -1.5845    Y=             -0.0000    Z=             -0.0000  Tot=              1.5845
 Quadrupole moment (field-independent basis, Debye-Ang):
   XX=             -9.7858   YY=             -7.5228   ZZ=             -7.5228
   XY=             -0.0000   XZ=             -0.0000   YZ=              0.0000

  Exact polarizability:      31.670      -0.000       2.037      -0.000       0.000       2.037
 Approx polarizability:      42.848      -0.000       1.927      -0.000      -0.000       1.927

 ******    1 imaginary frequencies (negative Signs) ******

                      1                      2                      3
                      A                      A                      A
 Frequencies --   -793.9188               112.7800               328.3573
 Red. masses --      1.0611                 1.0505                 1.0227
 Frc consts  --      0.3941                 0.0079                 0.0650
 IR Inten    --     85.3240                 0.7473                16.7322

                      4
                      A
 Frequencies --    328.3573
 Red. masses --      1.0227
 Frc consts  --      0.0650
 IR Inten    --     16.7322

 - Thermochemistry -
 -------------------
 Temperature   298.150 Kelvin.  Pressure   1.00000 Atm.
 Atom     1 has atomic number  1 and mass   1.00783

 Molecular mass:    21.01405 amu.
 Principal axes and moments of inertia in atomic units:
                           1         2         3
     Eigenvalues --     0.00000 114.88567 114.88567
           X            1.00000  -0.00000   0.00000
           Y            0.00000   1.00000   0.00000
           Z            0.00000   0.00000   1.00000
 This molecule is a prolate symmetric top.
 Rotational symmetry number  1.
 Rotational temperature (Kelvin)      0.75391
 Rotational constant (GHZ):          15.709020
    1 imaginary frequencies ignored.
 Zero-point vibrational energy       4602.6 (Joules/Mol)
                                    1.10005 (Kcal/Mol)
 Warning -- explicit consideration of   3 degrees of freedom as
           vibrations may cause significant error
 Vibrational temperatures:    162.27   472.43   472.43
          (Kelvin)

 Zero-point correction=                           0.001753 (Hartree/Particle)
 Thermal correction to Energy=                    0.005596
 Thermal correction to Enthalpy=                  0.006540
 Thermal correction to Gibbs Free Energy=        -0.020102
 Sum of electronic and zero-point Energies=           -100.772202
 Sum of electronic and thermal Energies=              -100.768360
 Sum of electronic and thermal Enthalpies=            -100.767415
 Sum of electronic and thermal Free Energies=         -100.794058

                     E (Thermal)             CV                S
                      KCal/Mol        Cal/Mol-Kelvin    Cal/Mol-Kelvin
 Total                    3.511             10.145             56.073
 Electronic               0.000              0.000              1.377
 Translational            0.889              2.981             35.068
 Rotational               0.592              1.987             13.871
 Vibrational              2.030              5.177              5.757
 Vibration     1          0.607              1.939              3.220
 Vibration     2          0.712              1.619              1.268
 Vibration     3          0.712              1.619              1.268

 Normal termination of Gaussian 16 at Fri Aug 22 17:17:32 2025.
