 Gaussian 16, Revision C.01,
 Gaussian 16:  ES64L-G16RevC.01  3-Jul-2019

 -----------------------------------------
 # sp b3lyp/6-311g** Force nosymm scf=(qc)
 -----------------------------------------

 -------------------
 Title Card Required
 -------------------
 Symbolic Z-matrix:
 Charge =  0 Multiplicity = 2

                          Input orientation:
 ---------------------------------------------------------------------
 Center     Atomic      Atomic             Coordinates (Angstroms)
 Number     Number       Type             X           Y           Z
 ---------------------------------------------------------------------
      1          1           0        0.000000    0.000000    0.000000
      2          1           0       -1.400000    0.000000    0.000000
      3          9           0        3.450000    0.000000    0.000000
 ---------------------------------------------------------------------

 SCF Done:  E(UB3LYP) =  -100.836675297     a.u. after  435 cycles

 Alpha  occ. eigenvalues --  -24.76414  -1.22284  -0.55483  -0.46682  -0.46637
 Alpha  occ. eigenvalues --   -0.34335
 Alpha virt. eigenvalues --   -0.08076   0.24275   0.31357   0.85919   0.90795
 Alpha virt. eigenvalues --    0.92158   1.01394   1.10771   1.17953   1.17956
 Alpha virt. eigenvalues --    1.45150   1.45153   1.90208   2.25660   2.50069

  Beta  occ. eigenvalues --  -24.73257  -1.13207  -0.43517  -0.43471  -0.34332
  Beta virt. eigenvalues --   -0.26124  -0.08072   0.24285   0.31389   0.92295
  Beta virt. eigenvalues --    0.93666   0.95383   1.05484   1.10787   1.17953
  Beta virt. eigenvalues --    1.17956   1.45150   1.45153   1.90214   2.25662

 Mulliken charges and spin densities:
               1          2
     1  H    0.000383   0.000277
     2  H   -0.003510  -0.000654
     3  F    0.003127   1.000376
 Sum of Mulliken charges =   0.00000   1.00000

 Dipole moment (field-independent basis, Debye):
    X=              0.0542    Y=              0.0000    Z=              0.0000  Tot=              0.0542
 Quadrupole moment (field-independent basis, Debye-Ang):
   XX=             -6.2405   YY=             -7.6843   ZZ=             -6.8203
   XY=              0.0000   XZ=              0.0001   YZ=              0.0124

  Exact polarizability:      20.521       0.000       2.058       0.000       0.007       2.523
 Approx polarizability:      36.104       0.000       2.064       0.000       0.008       2.645

 ******    2 imaginary frequencies (negative Signs) ******

                      1                      2                      3
                      A                      A                      A
 Frequencies --  -1167.2016               -37.3733              1309.8856
 Red. masses --      1.0078                 1.1085                 1.0106
 Frc consts  --      0.8090                 0.0009                 1.0217
 IR Inten    --      0.2596                 0.2068                 0.0026

                      4
                      A
 Frequencies --   1310.8525
 Red. masses --      1.0106
 Frc consts  --      1.0232
 IR Inten    --      0.0022

 - Thermochemistry -
 -------------------
 Temperature   298.150 Kelvin.  Pressure   1.00000 Atm.
 Atom     1 has atomic number  1 and mass   1.00783

 Molecular mass:    21.01405 amu.
 Principal axes and moments of inertia in atomic units:
                           1         2         3
     Eigenvalues --     0.00000 115.60399 115.60399
           X            1.00000  -0.00000   0.00000
           Y            0.00000   1.00000   0.00000
           Z            0.00000   0.00000   1.00000
 This molecule is a prolate symmetric top.
 Rotational symmetry number  1.
 Rotational temperature (Kelvin)      0.74923
 Rotational constant (GHZ):          15.611410
    2 imaginary frequencies ignored.
 Zero-point vibrational energy      15675.5 (Joules/Mol)
                                    3.74653 (Kcal/Mol)
 Vibrational temperatures:   1884.63  1886.02
          (Kelvin)

 Zero-point correction=                           0.005970 (Hartree/Particle)
 Thermal correction to Energy=                    0.008352
 Thermal correction to Enthalpy=                  0.009297
 Thermal correction to Gibbs Free Energy=        -0.014641
 Sum of electronic and zero-point Energies=           -100.830705
 Sum of electronic and thermal Energies=              -100.828323
 Sum of electronic and thermal Enthalpies=            -100.827379
 Sum of electronic and thermal Free Energies=         -100.851316

                     E (Thermal)             CV                S
                      KCal/Mol        Cal/Mol-Kelvin    Cal/Mol-Kelvin
 Total                    5.241              5.254             50.381
 Electronic               0.000              0.000              1.377
 Translational            0.889              2.981             35.068
 Rotational               0.592              1.987             13.883
 Vibrational              3.760              0.286              0.052

 Normal termination of Gaussian 16 at Fri Aug 22 21:34:14 2025.
