 Gaussian 16, Revision C.01,
 Gaussian 16:  ES64L-G16RevC.01  3-Jul-2019

 -----------------------------------------
 # sp b3lyp/6-311g** Force nosymm scf=(qc)
 -----------------------------------------

 -------------------
 Title Card Required
 -------------------
 Symbolic Z-matrix:
 Charge =  0 Multiplicity = 2

                          Input orientation:
 ---------------------------------------------------------------------
 Center     Atomic      Atomic             Coordinates (Angstroms)
 Number     Number       Type             X           Y           Z
 ---------------------------------------------------------------------
      1          1           0        0.000000    0.000000    0.000000
      2          1           0       -3.550000    0.000000    0.000000
      3          9           0        2.100000    0.000000    0.000000
 ---------------------------------------------------------------------

 SCF Done:  E(UB3LYP) =  -100.781297343     a.u. after   17 cycles

 Alpha  occ. eigenvalues --  -24.69025  -1.15348  -0.48052  -0.40437  -0.40437
 Alpha  occ. eigenvalues --   -0.33286
 Alpha virt. eigenvalues --   -0.12987   0.22628   0.32781   0.88342   0.94712
 Alpha virt. eigenvalues --    0.94712   1.05807   1.24225   1.24225   1.24319
 Alpha virt. eigenvalues --    1.36471   1.36471   1.55804   2.14035   2.31128

  Beta  occ. eigenvalues --  -24.66510  -1.08281  -0.37950  -0.37950  -0.37331
  Beta virt. eigenvalues --   -0.21386  -0.06853   0.22927   0.37932   0.90427
  Beta virt. eigenvalues --    0.95603   0.95603   1.08160   1.21605   1.21605
  Beta virt. eigenvalues --    1.45285   1.45973   1.45973   1.47845   2.11746

 Mulliken charges and spin densities:
               1          2
     1  H    0.166071  -0.789550
     2  H    0.001278   0.997996
     3  F   -0.167348   0.791554
 Sum of Mulliken charges =  -0.00000   1.00000

 Dipole moment (field-independent basis, Debye):
    X=             -1.7704    Y=              0.0000    Z=             -0.0000  Tot=              1.7704
 Quadrupole moment (field-independent basis, Debye-Ang):
   XX=             -9.9262   YY=             -7.5095   ZZ=             -7.5095
   XY=              0.0000   XZ=             -0.0000   YZ=              0.0000

  Exact polarizability:      26.940       0.000       2.049      -0.000       0.000       2.049
 Approx polarizability:      37.893       0.000       1.936      -0.000      -0.000       1.936

 ******    2 imaginary frequencies (negative Signs) ******

                      1                      2                      3
                      A                      A                      A
 Frequencies --   -985.0863              -113.6600               414.9299
 Red. masses --      1.0569                 1.0547                 1.0254
 Frc consts  --      0.6043                 0.0080                 0.1040
 IR Inten    --    113.4121                 0.2053                26.0499

                      4
                      A
 Frequencies --    414.9299
 Red. masses --      1.0254
 Frc consts  --      0.1040
 IR Inten    --     26.0499

 - Thermochemistry -
 -------------------
 Temperature   298.150 Kelvin.  Pressure   1.00000 Atm.
 Atom     1 has atomic number  1 and mass   1.00783

 Molecular mass:    21.01405 amu.
 Principal axes and moments of inertia in atomic units:
                           1         2         3
     Eigenvalues --     0.00000 120.39377 120.39377
           X            1.00000  -0.00000   0.00000
           Y            0.00000   1.00000   0.00000
           Z            0.00000   0.00000   1.00000
 This molecule is a prolate symmetric top.
 Rotational symmetry number  1.
 Rotational temperature (Kelvin)      0.71942
 Rotational constant (GHZ):          14.990320
    2 imaginary frequencies ignored.
 Zero-point vibrational energy       4963.7 (Joules/Mol)
                                    1.18634 (Kcal/Mol)
 Warning -- explicit consideration of   2 degrees of freedom as
           vibrations may cause significant error
 Vibrational temperatures:    596.99   596.99
          (Kelvin)

 Zero-point correction=                           0.001891 (Hartree/Particle)
 Thermal correction to Energy=                    0.004841
 Thermal correction to Enthalpy=                  0.005785
 Thermal correction to Gibbs Free Energy=        -0.019030
 Sum of electronic and zero-point Energies=           -100.779407
 Sum of electronic and thermal Energies=              -100.776456
 Sum of electronic and thermal Enthalpies=            -100.775512
 Sum of electronic and thermal Free Energies=         -100.800327

                     E (Thermal)             CV                S
                      KCal/Mol        Cal/Mol-Kelvin    Cal/Mol-Kelvin
 Total                    3.038              7.844             52.228
 Electronic               0.000              0.000              1.377
 Translational            0.889              2.981             35.068
 Rotational               0.592              1.987             13.964
 Vibrational              1.557              2.876              1.819
 Vibration     1          0.778              1.438              0.909
 Vibration     2          0.778              1.438              0.909

 Normal termination of Gaussian 16 at Fri Aug 22 17:05:19 2025.
