 Gaussian 16, Revision C.01,
 Gaussian 16:  ES64L-G16RevC.01  3-Jul-2019

 -----------------------------------------
 # sp b3lyp/6-311g** Force nosymm scf=(qc)
 -----------------------------------------

 -------------------
 Title Card Required
 -------------------
 Symbolic Z-matrix:
 Charge =  0 Multiplicity = 2

                          Input orientation:
 ---------------------------------------------------------------------
 Center     Atomic      Atomic             Coordinates (Angstroms)
 Number     Number       Type             X           Y           Z
 ---------------------------------------------------------------------
      1          1           0        0.000000    0.000000    0.000000
      2          1           0       -0.700000    0.000000    0.000000
      3          9           0        1.300000    0.000000    0.000000
 ---------------------------------------------------------------------

 SCF Done:  E(UB3LYP) =  -100.934205447     a.u. after    7 cycles

 Alpha  occ. eigenvalues --  -24.69398  -1.17719  -0.59138  -0.41806  -0.41806
 Alpha  occ. eigenvalues --   -0.40559
 Alpha virt. eigenvalues --    0.11085   0.19244   0.48129   0.87873   0.87873
 Alpha virt. eigenvalues --    0.96589   1.09783   1.09783   1.43201   1.62893
 Alpha virt. eigenvalues --    1.82862   1.82862   1.94844   2.40339   3.30102

  Beta  occ. eigenvalues --  -24.67033  -1.11444  -0.50791  -0.39561  -0.39561
  Beta virt. eigenvalues --   -0.21641   0.12546   0.20192   0.51644   0.89204
  Beta virt. eigenvalues --    0.89204   1.01757   1.12816   1.12816   1.46875
  Beta virt. eigenvalues --    1.67005   1.84977   1.84977   1.95743   2.45040

 Mulliken charges and spin densities:
               1          2
     1  H    0.207190  -0.032671
     2  H   -0.006273   0.346767
     3  F   -0.200917   0.685904
 Sum of Mulliken charges =   0.00000   1.00000

 Dipole moment (field-independent basis, Debye):
    X=             -1.3627    Y=              0.0000    Z=              0.0000  Tot=              1.3627
 Quadrupole moment (field-independent basis, Debye-Ang):
   XX=             -7.1166   YY=             -6.6452   ZZ=             -6.6452
   XY=              0.0000   XZ=              0.0000   YZ=              0.0000

  Exact polarizability:      17.307       0.000       2.397      -0.000      -0.000       2.397
 Approx polarizability:      22.179       0.000       2.438      -0.000      -0.000       2.438

 ******    2 imaginary frequencies (negative Signs) ******

                      1                      2                      3
                      A                      A                      A
 Frequencies --  -1726.7402             -1726.7402               462.3874
 Red. masses --      1.0122                 1.0122                 1.1076
 Frc consts  --      1.7781                 1.7781                 0.1395
 IR Inten    --      4.0505                 4.0505                69.7950

                      4
                      A
 Frequencies --   4603.2270
 Red. masses --      1.0086
 Frc consts  --     12.5915
 IR Inten    --    582.4218

 - Thermochemistry -
 -------------------
 Temperature   298.150 Kelvin.  Pressure   1.00000 Atm.
 Atom     1 has atomic number  1 and mass   1.00783

 Molecular mass:    21.01405 amu.
 Principal axes and moments of inertia in atomic units:
                           1         2         3
     Eigenvalues --     0.00000  18.59867  18.59867
           X            1.00000  -0.00000   0.00000
           Y            0.00000   1.00000   0.00000
           Z            0.00000   0.00000   1.00000
 This molecule is a prolate symmetric top.
 Rotational symmetry number  1.
 Rotational temperature (Kelvin)      4.65700
 Rotational constant (GHZ):          97.036039
    2 imaginary frequencies ignored.
 Zero-point vibrational energy      30299.1 (Joules/Mol)
                                    7.24166 (Kcal/Mol)
 Warning -- explicit consideration of   1 degrees of freedom as
           vibrations may cause significant error
 Vibrational temperatures:    665.27  6623.02
          (Kelvin)

 Zero-point correction=                           0.011540 (Hartree/Particle)
 Thermal correction to Energy=                    0.014154
 Thermal correction to Enthalpy=                  0.015098
 Thermal correction to Gibbs Free Energy=        -0.007450
 Sum of electronic and zero-point Energies=           -100.922665
 Sum of electronic and thermal Energies=              -100.920051
 Sum of electronic and thermal Enthalpies=            -100.919107
 Sum of electronic and thermal Free Energies=         -100.941655

                     E (Thermal)             CV                S
                      KCal/Mol        Cal/Mol-Kelvin    Cal/Mol-Kelvin
 Total                    8.882              6.301             47.457
 Electronic               0.000              0.000              1.377
 Translational            0.889              2.981             35.068
 Rotational               0.592              1.987             10.252
 Vibrational              7.401              1.333              0.759
 Vibration     1          0.820              1.333              0.759

 Normal termination of Gaussian 16 at Fri Aug 22 16:14:06 2025.
