 Gaussian 16, Revision C.01,
 Gaussian 16:  ES64L-G16RevC.01  3-Jul-2019

 -----------------------------------------
 # sp b3lyp/6-311g** Force nosymm scf=(qc)
 -----------------------------------------

 -------------------
 Title Card Required
 -------------------
 Symbolic Z-matrix:
 Charge =  0 Multiplicity = 2

                          Input orientation:
 ---------------------------------------------------------------------
 Center     Atomic      Atomic             Coordinates (Angstroms)
 Number     Number       Type             X           Y           Z
 ---------------------------------------------------------------------
      1          1           0        0.000000    0.000000    0.000000
      2          1           0       -3.100000    0.000000    0.000000
      3          9           0        1.650000    0.000000    0.000000
 ---------------------------------------------------------------------

 SCF Done:  E(UB3LYP) =  -100.825591519     a.u. after   13 cycles

 Alpha  occ. eigenvalues --  -24.65277  -1.11140  -0.43863  -0.37162  -0.37162
 Alpha  occ. eigenvalues --   -0.34410
 Alpha virt. eigenvalues --   -0.15164   0.21525   0.28764   0.94417   0.94417
 Alpha virt. eigenvalues --    0.98437   1.06679   1.23120   1.23120   1.23550
 Alpha virt. eigenvalues --    1.32719   1.32719   1.74180   2.13716   2.22554

  Beta  occ. eigenvalues --  -24.64056  -1.07836  -0.40715  -0.35984  -0.35984
  Beta virt. eigenvalues --   -0.17877  -0.07863   0.22589   0.37118   0.94099
  Beta virt. eigenvalues --    0.94099   0.99259   1.07584   1.26409   1.26409
  Beta virt. eigenvalues --    1.44319   1.44714   1.44714   1.71291   2.13536

 Mulliken charges and spin densities:
               1          2
     1  H    0.306829  -0.378640
     2  H    0.005594   0.993368
     3  F   -0.312422   0.385272
 Sum of Mulliken charges =   0.00000   1.00000

 Dipole moment (field-independent basis, Debye):
    X=             -2.5962    Y=              0.0000    Z=             -0.0000  Tot=              2.5962
 Quadrupole moment (field-independent basis, Debye-Ang):
   XX=             -9.9941   YY=             -7.3946   ZZ=             -7.3946
   XY=              0.0000   XZ=             -0.0000   YZ=             -0.0000

  Exact polarizability:      23.159       0.000       2.135       0.000       0.000       2.135
 Approx polarizability:      36.780       0.000       2.041       0.000       0.000       2.041

 ******    2 imaginary frequencies (negative Signs) ******

                      1                      2                      3
                      A                      A                      A
 Frequencies --  -1830.7544              -170.6913               832.5284
 Red. masses --      1.0567                 1.0549                 1.0270
 Frc consts  --      2.0867                 0.0181                 0.4194
 IR Inten    --     81.8176                 1.5411                85.9771

                      4
                      A
 Frequencies --    832.5284
 Red. masses --      1.0270
 Frc consts  --      0.4194
 IR Inten    --     85.9771

 - Thermochemistry -
 -------------------
 Temperature   298.150 Kelvin.  Pressure   1.00000 Atm.
 Atom     1 has atomic number  1 and mass   1.00783

 Molecular mass:    21.01405 amu.
 Principal axes and moments of inertia in atomic units:
                           1         2         3
     Eigenvalues --     0.00000  83.93095  83.93095
           X            1.00000  -0.00000   0.00000
           Y            0.00000   1.00000   0.00000
           Z            0.00000   0.00000   1.00000
 This molecule is a prolate symmetric top.
 Rotational symmetry number  1.
 Rotational temperature (Kelvin)      1.03197
 Rotational constant (GHZ):          21.502690
    2 imaginary frequencies ignored.
 Zero-point vibrational energy       9959.3 (Joules/Mol)
                                    2.38032 (Kcal/Mol)
 Vibrational temperatures:   1197.82  1197.82
          (Kelvin)

 Zero-point correction=                           0.003793 (Hartree/Particle)
 Thermal correction to Energy=                    0.006293
 Thermal correction to Enthalpy=                  0.007237
 Thermal correction to Gibbs Free Energy=        -0.016547
 Sum of electronic and zero-point Energies=           -100.821798
 Sum of electronic and thermal Energies=              -100.819299
 Sum of electronic and thermal Enthalpies=            -100.818355
 Sum of electronic and thermal Free Energies=         -100.842138

                     E (Thermal)             CV                S
                      KCal/Mol        Cal/Mol-Kelvin    Cal/Mol-Kelvin
 Total                    3.949              6.165             50.057
 Electronic               0.000              0.000              1.377
 Translational            0.889              2.981             35.068
 Rotational               0.592              1.987             13.247
 Vibrational              2.468              1.197              0.365

 Normal termination of Gaussian 16 at Fri Aug 22 16:35:19 2025.
