 Gaussian 16, Revision C.01,
 Gaussian 16:  ES64L-G16RevC.01  3-Jul-2019

 -----------------------------------------
 # sp b3lyp/6-311g** Force nosymm scf=(qc)
 -----------------------------------------

 -------------------
 Title Card Required
 -------------------
 Symbolic Z-matrix:
 Charge =  0 Multiplicity = 2

                          Input orientation:
 ---------------------------------------------------------------------
 Center     Atomic      Atomic             Coordinates (Angstroms)
 Number     Number       Type             X           Y           Z
 ---------------------------------------------------------------------
      1          1           0        0.000000    0.000000    0.000000
      2          1           0       -3.650000    0.000000    0.000000
      3          9           0        2.500000    0.000000    0.000000
 ---------------------------------------------------------------------

 SCF Done:  E(UB3LYP) =  -100.767390039     a.u. after   17 cycles

 Alpha  occ. eigenvalues --  -24.71734  -1.17951  -0.50837  -0.42707  -0.42707
 Alpha  occ. eigenvalues --   -0.32842
 Alpha virt. eigenvalues --   -0.10222   0.23420   0.35254   0.89625   0.93616
 Alpha virt. eigenvalues --    0.93616   1.06223   1.24664   1.24664   1.24750
 Alpha virt. eigenvalues --    1.40520   1.40520   1.44854   2.14308   2.36853

  Beta  occ. eigenvalues --  -24.68893  -1.09865  -0.39875  -0.39875  -0.35358
  Beta virt. eigenvalues --   -0.23335  -0.06499   0.23789   0.38023   0.94979
  Beta virt. eigenvalues --    0.94979   0.95925   1.08544   1.22094   1.22094
  Beta virt. eigenvalues --    1.29704   1.46000   1.46252   1.46252   2.12619

 Mulliken charges and spin densities:
               1          2
     1  H    0.089957  -0.896354
     2  H    0.000609   0.998568
     3  F   -0.090566   0.897786
 Sum of Mulliken charges =  -0.00000   1.00000

 Dipole moment (field-independent basis, Debye):
    X=             -1.1622    Y=              0.0000    Z=             -0.0000  Tot=              1.1622
 Quadrupole moment (field-independent basis, Debye-Ang):
   XX=             -9.3242   YY=             -7.5693   ZZ=             -7.5693
   XY=              0.0000   XZ=             -0.0000   YZ=              0.0000

  Exact polarizability:      30.461       0.000       2.026      -0.000      -0.000       2.026
 Approx polarizability:      38.635       0.000       1.921      -0.000       0.000       1.921

 ******    2 imaginary frequencies (negative Signs) ******

                      1                      2                      3
                      A                      A                      A
 Frequencies --   -615.6788              -102.1480               241.1130
 Red. masses --      1.0554                 1.0562                 1.0231
 Frc consts  --      0.2357                 0.0065                 0.0350
 IR Inten    --     80.5523                 0.1506                 7.7951

                      4
                      A
 Frequencies --    241.1130
 Red. masses --      1.0231
 Frc consts  --      0.0350
 IR Inten    --      7.7951

 - Thermochemistry -
 -------------------
 Temperature   298.150 Kelvin.  Pressure   1.00000 Atm.
 Atom     1 has atomic number  1 and mass   1.00783

 Molecular mass:    21.01405 amu.
 Principal axes and moments of inertia in atomic units:
                           1         2         3
     Eigenvalues --     0.00000 145.70242 145.70242
           X            1.00000  -0.00000   0.00000
           Y            0.00000   1.00000   0.00000
           Z            0.00000   0.00000   1.00000
 This molecule is a prolate symmetric top.
 Rotational symmetry number  1.
 Rotational temperature (Kelvin)      0.59446
 Rotational constant (GHZ):          12.386487
    2 imaginary frequencies ignored.
 Zero-point vibrational energy       2884.4 (Joules/Mol)
                                    0.68938 (Kcal/Mol)
 Warning -- explicit consideration of   2 degrees of freedom as
           vibrations may cause significant error
 Vibrational temperatures:    346.91   346.91
          (Kelvin)

 Zero-point correction=                           0.001099 (Hartree/Particle)
 Thermal correction to Energy=                    0.004457
 Thermal correction to Enthalpy=                  0.005401
 Thermal correction to Gibbs Free Energy=        -0.020435
 Sum of electronic and zero-point Energies=           -100.766291
 Sum of electronic and thermal Energies=              -100.762933
 Sum of electronic and thermal Enthalpies=            -100.761989
 Sum of electronic and thermal Free Energies=         -100.787825

                     E (Thermal)             CV                S
                      KCal/Mol        Cal/Mol-Kelvin    Cal/Mol-Kelvin
 Total                    2.797              8.523             54.378
 Electronic               0.000              0.000              1.377
 Translational            0.889              2.981             35.068
 Rotational               0.592              1.987             14.343
 Vibrational              1.316              3.555              3.589
 Vibration     1          0.658              1.777              1.795
 Vibration     2          0.658              1.777              1.795

 Normal termination of Gaussian 16 at Fri Aug 22 17:46:23 2025.
