 Gaussian 16, Revision C.01,
 Gaussian 16:  ES64L-G16RevC.01  3-Jul-2019

 -----------------------------------------
 # sp b3lyp/6-311g** Force nosymm scf=(qc)
 -----------------------------------------

 -------------------
 Title Card Required
 -------------------
 Symbolic Z-matrix:
 Charge =  0 Multiplicity = 2

                          Input orientation:
 ---------------------------------------------------------------------
 Center     Atomic      Atomic             Coordinates (Angstroms)
 Number     Number       Type             X           Y           Z
 ---------------------------------------------------------------------
      1          1           0        0.000000    0.000000    0.000000
      2          1           0       -0.900000    0.000000    0.000000
      3          9           0        2.550000    0.000000    0.000000
 ---------------------------------------------------------------------

 SCF Done:  E(UB3LYP) =  -100.922061287     a.u. after    6 cycles

 Alpha  occ. eigenvalues --  -24.75919  -1.21836  -0.55118  -0.46224  -0.46224
 Alpha  occ. eigenvalues --   -0.41164
 Alpha virt. eigenvalues --    0.02619   0.20741   0.42212   0.89783   0.91048
 Alpha virt. eigenvalues --    0.91048   1.07602   1.07602   1.10323   1.44790
 Alpha virt. eigenvalues --    1.71489   1.71489   2.18331   2.37914   2.73321

  Beta  occ. eigenvalues --  -24.72803  -1.12888  -0.43102  -0.43102  -0.41101
  Beta virt. eigenvalues --   -0.26149   0.03049   0.21010   0.42580   0.92522
  Beta virt. eigenvalues --    0.92522   0.98205   1.07762   1.07762   1.14680
  Beta virt. eigenvalues --    1.45022   1.71600   1.71600   2.18522   2.38079

 Mulliken charges and spin densities:
               1          2
     1  H   -0.011898  -0.011131
     2  H    0.017839   0.025657
     3  F   -0.005941   0.985474
 Sum of Mulliken charges =   0.00000   1.00000

 Dipole moment (field-independent basis, Debye):
    X=             -0.1597    Y=             -0.0000    Z=             -0.0000  Tot=              0.1597
 Quadrupole moment (field-independent basis, Debye-Ang):
   XX=             -5.6707   YY=             -7.1420   ZZ=             -7.1420
   XY=             -0.0000   XZ=             -0.0000   YZ=             -0.0000

  Exact polarizability:      17.085      -0.000       2.047       0.000       0.000       2.047
 Approx polarizability:      19.164      -0.000       2.111       0.000       0.000       2.111

 ******    1 imaginary frequencies (negative Signs) ******

                      1                      2                      3
                      A                      A                      A
 Frequencies --   -150.5200              1432.2259              1432.2259
 Red. masses --      1.1085                 1.0101                 1.0101
 Frc consts  --      0.0148                 1.2207                 1.2207
 IR Inten    --      5.0797                 0.2535                 0.2535

                      4
                      A
 Frequencies --   2609.4347
 Red. masses --      1.0078
 Frc consts  --      4.0433
 IR Inten    --     52.2159

 - Thermochemistry -
 -------------------
 Temperature   298.150 Kelvin.  Pressure   1.00000 Atm.
 Atom     1 has atomic number  1 and mass   1.00783

 Molecular mass:    21.01405 amu.
 Principal axes and moments of inertia in atomic units:
                           1         2         3
     Eigenvalues --     0.00000  60.02590  60.02590
           X            1.00000  -0.00000   0.00000
           Y            0.00000   1.00000   0.00000
           Z            0.00000   0.00000   1.00000
 This molecule is a prolate symmetric top.
 Rotational symmetry number  1.
 Rotational temperature (Kelvin)      1.44294
 Rotational constant (GHZ):          30.066040
    1 imaginary frequencies ignored.
 Zero-point vibrational energy      32741.1 (Joules/Mol)
                                    7.82531 (Kcal/Mol)
 Vibrational temperatures:   2060.65  2060.65  3754.39
          (Kelvin)

 Zero-point correction=                           0.012470 (Hartree/Particle)
 Thermal correction to Energy=                    0.014844
 Thermal correction to Enthalpy=                  0.015788
 Thermal correction to Gibbs Free Energy=        -0.007521
 Sum of electronic and zero-point Energies=           -100.909591
 Sum of electronic and thermal Energies=              -100.907217
 Sum of electronic and thermal Enthalpies=            -100.906273
 Sum of electronic and thermal Free Energies=         -100.929582

                     E (Thermal)             CV                S
                      KCal/Mol        Cal/Mol-Kelvin    Cal/Mol-Kelvin
 Total                    9.315              5.159             49.058
 Electronic               0.000              0.000              1.377
 Translational            0.889              2.981             35.068
 Rotational               0.592              1.987             12.581
 Vibrational              7.834              0.191              0.031

 Normal termination of Gaussian 16 at Fri Aug 22 17:51:17 2025.
