 Gaussian 16, Revision C.01,
 Gaussian 16:  ES64L-G16RevC.01  3-Jul-2019

 -----------------------------------------
 # sp b3lyp/6-311g** Force nosymm scf=(qc)
 -----------------------------------------

 -------------------
 Title Card Required
 -------------------
 Symbolic Z-matrix:
 Charge =  0 Multiplicity = 2

                          Input orientation:
 ---------------------------------------------------------------------
 Center     Atomic      Atomic             Coordinates (Angstroms)
 Number     Number       Type             X           Y           Z
 ---------------------------------------------------------------------
      1          1           0        0.000000    0.000000    0.000000
      2          1           0       -3.950000    0.000000    0.000000
      3          9           0        2.550000    0.000000    0.000000
 ---------------------------------------------------------------------

 SCF Done:  E(UB3LYP) =  -100.766005236     a.u. after   23 cycles

 Alpha  occ. eigenvalues --  -24.69126  -1.10031  -0.40064  -0.40064  -0.35159
 Alpha  occ. eigenvalues --   -0.32663
 Alpha virt. eigenvalues --   -0.23504   0.21354   0.27449   0.94864   0.94864
 Alpha virt. eigenvalues --    0.96452   1.08549   1.22247   1.22247   1.24802
 Alpha virt. eigenvalues --    1.24807   1.24807   1.28388   2.10745   2.16533

  Beta  occ. eigenvalues --  -24.71991  -1.18193  -0.51097  -0.42922  -0.42922
  Beta virt. eigenvalues --   -0.10157  -0.04167   0.33218   0.40374   0.89732
  Beta virt. eigenvalues --    0.93482   0.93482   1.06080   1.40877   1.40877
  Beta virt. eigenvalues --    1.44350   1.48549   1.48592   1.48592   2.37043

 Mulliken charges and spin densities:
               1          2
     1  H    0.083866   0.905882
     2  H    0.000232   0.999771
     3  F   -0.084098  -0.905653
 Sum of Mulliken charges =   0.00000   1.00000

 Dipole moment (field-independent basis, Debye):
    X=             -1.0967    Y=             -0.0000    Z=             -0.0000  Tot=              1.0967
 Quadrupole moment (field-independent basis, Debye-Ang):
   XX=             -9.2903   YY=             -7.5665   ZZ=             -7.5665
   XY=             -0.0000   XZ=             -0.0000   YZ=              0.0000

  Exact polarizability:      30.417      -0.000       2.027      -0.000      -0.000       2.027
 Approx polarizability:      38.507      -0.000       1.922      -0.000       0.000       1.922

 ******    1 imaginary frequencies (negative Signs) ******

                      1                      2                      3
                      A                      A                      A
 Frequencies --   -572.6308                49.7660               222.2928
 Red. masses --      1.0593                 1.0523                 1.0240
 Frc consts  --      0.2046                 0.0015                 0.0298
 IR Inten    --     74.6103                 0.0058                 6.8829

                      4
                      A
 Frequencies --    222.2928
 Red. masses --      1.0240
 Frc consts  --      0.0298
 IR Inten    --      6.8829

 - Thermochemistry -
 -------------------
 Temperature   298.150 Kelvin.  Pressure   1.00000 Atm.
 Atom     1 has atomic number  1 and mass   1.00783

 Molecular mass:    21.01405 amu.
 Principal axes and moments of inertia in atomic units:
                           1         2         3
     Eigenvalues --     0.00000 161.32373 161.32373
           X            1.00000  -0.00000   0.00000
           Y            0.00000   1.00000   0.00000
           Z            0.00000   0.00000   1.00000
 This molecule is a prolate symmetric top.
 Rotational symmetry number  1.
 Rotational temperature (Kelvin)      0.53690
 Rotational constant (GHZ):          11.187079
    1 imaginary frequencies ignored.
 Zero-point vibrational energy       2956.9 (Joules/Mol)
                                    0.70671 (Kcal/Mol)
 Warning -- explicit consideration of   3 degrees of freedom as
           vibrations may cause significant error
 Vibrational temperatures:     71.60   319.83   319.83
          (Kelvin)

 Zero-point correction=                           0.001126 (Hartree/Particle)
 Thermal correction to Energy=                    0.005375
 Thermal correction to Enthalpy=                  0.006319
 Thermal correction to Gibbs Free Energy=        -0.022045
 Sum of electronic and zero-point Energies=           -100.764879
 Sum of electronic and thermal Energies=              -100.760630
 Sum of electronic and thermal Enthalpies=            -100.759686
 Sum of electronic and thermal Free Energies=         -100.788050

                     E (Thermal)             CV                S
                      KCal/Mol        Cal/Mol-Kelvin    Cal/Mol-Kelvin
 Total                    3.373             10.560             59.698
 Electronic               0.000              0.000              1.377
 Translational            0.889              2.981             35.068
 Rotational               0.592              1.987             14.545
 Vibrational              1.892              5.592              8.707
 Vibration     1          0.595              1.978              4.827
 Vibration     2          0.648              1.807              1.940
 Vibration     3          0.648              1.807              1.940

 Normal termination of Gaussian 16 at Fri Aug 22 17:55:45 2025.
