 Gaussian 16, Revision C.01,
 Gaussian 16:  ES64L-G16RevC.01  3-Jul-2019

 -----------------------------------------
 # sp b3lyp/6-311g** Force nosymm scf=(qc)
 -----------------------------------------

 -------------------
 Title Card Required
 -------------------
 Symbolic Z-matrix:
 Charge =  0 Multiplicity = 2

                          Input orientation:
 ---------------------------------------------------------------------
 Center     Atomic      Atomic             Coordinates (Angstroms)
 Number     Number       Type             X           Y           Z
 ---------------------------------------------------------------------
      1          1           0        0.000000    0.000000    0.000000
      2          1           0       -3.800000    0.000000    0.000000
      3          9           0        3.050000    0.000000    0.000000
 ---------------------------------------------------------------------

 SCF Done:  E(UB3LYP) =  -100.760566168     a.u. after   23 cycles

 Alpha  occ. eigenvalues --  -24.74250  -1.20299  -0.53370  -0.44813  -0.44813
 Alpha  occ. eigenvalues --   -0.32458
 Alpha virt. eigenvalues --   -0.07692   0.23917   0.36305   0.89183   0.92176
 Alpha virt. eigenvalues --    0.92176   1.03603   1.25041   1.25041   1.25087
 Alpha virt. eigenvalues --    1.44536   1.44536   1.44924   2.14504   2.40788

  Beta  occ. eigenvalues --  -24.71211  -1.11587  -0.41771  -0.41771  -0.33605
  Beta virt. eigenvalues --   -0.24867  -0.06117   0.23782   0.38109   0.93641
  Beta virt. eigenvalues --    0.93641   0.97931   1.07360   1.23729   1.23729
  Beta virt. eigenvalues --    1.24007   1.46377   1.46556   1.46556   2.14648

 Mulliken charges and spin densities:
               1          2
     1  H    0.033531  -0.962073
     2  H    0.000190   0.999010
     3  F   -0.033721   0.963063
 Sum of Mulliken charges =  -0.00000   1.00000

 Dipole moment (field-independent basis, Debye):
    X=             -0.5317    Y=             -0.0000    Z=              0.0000  Tot=              0.5317
 Quadrupole moment (field-independent basis, Debye-Ang):
   XX=             -8.2348   YY=             -7.6081   ZZ=             -7.6081
   XY=             -0.0000   XZ=             -0.0000   YZ=             -0.0000

  Exact polarizability:      30.759      -0.000       2.028      -0.000      -0.000       2.028
 Approx polarizability:      30.767      -0.000       1.928      -0.000       0.000       1.928

 ******    2 imaginary frequencies (negative Signs) ******

                      1                      2                      3
                      A                      A                      A
 Frequencies --   -349.1005               -85.5734               120.4984
 Red. masses --      1.0516                 1.0600                 1.0208
 Frc consts  --      0.0755                 0.0046                 0.0087
 IR Inten    --     36.1732                 0.1847                 1.0699

                      4
                      A
 Frequencies --    120.4984
 Red. masses --      1.0208
 Frc consts  --      0.0087
 IR Inten    --      1.0699

 - Thermochemistry -
 -------------------
 Temperature   298.150 Kelvin.  Pressure   1.00000 Atm.
 Atom     1 has atomic number  1 and mass   1.00783

 Molecular mass:    21.01405 amu.
 Principal axes and moments of inertia in atomic units:
                           1         2         3
     Eigenvalues --     0.00000 185.43705 185.43705
           X            1.00000  -0.00000   0.00000
           Y            0.00000   1.00000   0.00000
           Z            0.00000   0.00000   1.00000
 This molecule is a prolate symmetric top.
 Rotational symmetry number  1.
 Rotational temperature (Kelvin)      0.46708
 Rotational constant (GHZ):           9.732366
    2 imaginary frequencies ignored.
 Zero-point vibrational energy       1441.5 (Joules/Mol)
                                    0.34452 (Kcal/Mol)
 Warning -- explicit consideration of   2 degrees of freedom as
           vibrations may cause significant error
 Vibrational temperatures:    173.37   173.37
          (Kelvin)

 Zero-point correction=                           0.000549 (Hartree/Particle)
 Thermal correction to Energy=                    0.004302
 Thermal correction to Enthalpy=                  0.005246
 Thermal correction to Gibbs Free Energy=        -0.022052
 Sum of electronic and zero-point Energies=           -100.760017
 Sum of electronic and thermal Energies=              -100.756264
 Sum of electronic and thermal Enthalpies=            -100.755320
 Sum of electronic and thermal Free Energies=         -100.782618

                     E (Thermal)             CV                S
                      KCal/Mol        Cal/Mol-Kelvin    Cal/Mol-Kelvin
 Total                    2.699              8.832             57.452
 Electronic               0.000              0.000              1.377
 Translational            0.889              2.981             35.068
 Rotational               0.592              1.987             14.822
 Vibrational              1.218              3.864              6.185
 Vibration     1          0.609              1.932              3.092
 Vibration     2          0.609              1.932              3.092

 Normal termination of Gaussian 16 at Fri Aug 22 19:45:38 2025.
