 Gaussian 16, Revision C.01,
 Gaussian 16:  ES64L-G16RevC.01  3-Jul-2019

 -----------------------------------------
 # sp b3lyp/6-311g** Force nosymm scf=(qc)
 -----------------------------------------

 -------------------
 Title Card Required
 -------------------
 Symbolic Z-matrix:
 Charge =  0 Multiplicity = 2

                          Input orientation:
 ---------------------------------------------------------------------
 Center     Atomic      Atomic             Coordinates (Angstroms)
 Number     Number       Type             X           Y           Z
 ---------------------------------------------------------------------
      1          1           0        0.000000    0.000000    0.000000
      2          1           0       -0.500000    0.000000    0.000000
      3          9           0        4.000000    0.000000    0.000000
 ---------------------------------------------------------------------

 SCF Done:  E(UB3LYP) =  -100.861384566     a.u. after   16 cycles

 Alpha  occ. eigenvalues --  -24.76151  -1.22043  -0.55248  -0.49323  -0.46417
 Alpha  occ. eigenvalues --   -0.46404
 Alpha virt. eigenvalues --    0.09925   0.18292   0.55930   0.86124   0.91001
 Alpha virt. eigenvalues --    0.91949   1.01208   1.12012   1.12014   1.60917
 Alpha virt. eigenvalues --    1.84108   1.99539   1.99541   2.36040   3.64974

  Beta  occ. eigenvalues --  -24.72996  -1.12969  -0.49323  -0.43253  -0.43240
  Beta virt. eigenvalues --   -0.25897   0.09933   0.18295   0.55966   0.92501
  Beta virt. eigenvalues --    0.93434   0.95590   1.05332   1.12012   1.12014
  Beta virt. eigenvalues --    1.60920   1.84117   1.99539   1.99541   2.36040

 Mulliken charges and spin densities:
               1          2
     1  H   -0.000324  -0.000221
     2  H   -0.001186   0.000061
     3  F    0.001510   1.000160
 Sum of Mulliken charges =   0.00000   1.00000

 Dipole moment (field-independent basis, Debye):
    X=              0.0205    Y=              0.0000    Z=             -0.0000  Tot=              0.0205
 Quadrupole moment (field-independent basis, Debye-Ang):
   XX=             -6.2090   YY=             -6.1534   ZZ=             -6.1533
   XY=              0.0000   XZ=             -0.0000   YZ=             -0.4323

  Exact polarizability:       5.244       0.000       2.032       0.000      -0.233       2.032
 Approx polarizability:       5.573       0.000       2.171      -0.000      -0.291       2.171

 ******    3 imaginary frequencies (negative Signs) ******

                      1                      2                      3
                      A                      A                      A
 Frequencies --  -4836.1789             -4836.1231               -63.0667
 Red. masses --      1.0082                 1.0082                 1.1085
 Frc consts  --     13.8928                13.8925                 0.0026
 IR Inten    --      0.0002                 0.0002                 0.0456

                      4
                      A
 Frequencies --   9960.5061
 Red. masses --      1.0078
 Frc consts  --     58.9112
 IR Inten    --      0.0193

 - Thermochemistry -
 -------------------
 Temperature   298.150 Kelvin.  Pressure   1.00000 Atm.
 Atom     1 has atomic number  1 and mass   1.00783

 Molecular mass:    21.01405 amu.
 Principal axes and moments of inertia in atomic units:
                           1         2         3
     Eigenvalues --     0.00000 117.99321 117.99321
           X            1.00000  -0.00000   0.00000
           Y            0.00000   1.00000   0.00000
           Z            0.00000   0.00000   1.00000
 This molecule is a prolate symmetric top.
 Rotational symmetry number  1.
 Rotational temperature (Kelvin)      0.73406
 Rotational constant (GHZ):          15.295297
    3 imaginary frequencies ignored.
 Zero-point vibrational energy      59577.1 (Joules/Mol)
                                   14.23926 (Kcal/Mol)
 Vibrational temperatures:  14330.95
          (Kelvin)

 Zero-point correction=                           0.022692 (Hartree/Particle)
 Thermal correction to Energy=                    0.025052
 Thermal correction to Enthalpy=                  0.025996
 Thermal correction to Gibbs Free Energy=         0.002064
 Sum of electronic and zero-point Energies=           -100.838693
 Sum of electronic and thermal Energies=              -100.836332
 Sum of electronic and thermal Enthalpies=            -100.835388
 Sum of electronic and thermal Free Energies=         -100.859320

                     E (Thermal)             CV                S
                      KCal/Mol        Cal/Mol-Kelvin    Cal/Mol-Kelvin
 Total                   15.720              4.968             50.369
 Electronic               0.000              0.000              1.377
 Translational            0.889              2.981             35.068
 Rotational               0.592              1.987             13.924
 Vibrational             14.239              0.000              0.000

 Normal termination of Gaussian 16 at Sat Aug 23 01:42:56 2025.
