 Gaussian 16, Revision C.01,
 Gaussian 16:  ES64L-G16RevC.01  3-Jul-2019

 -----------------------------------------
 # sp b3lyp/6-311g** Force nosymm scf=(qc)
 -----------------------------------------

 -------------------
 Title Card Required
 -------------------
 Symbolic Z-matrix:
 Charge =  0 Multiplicity = 2

                          Input orientation:
 ---------------------------------------------------------------------
 Center     Atomic      Atomic             Coordinates (Angstroms)
 Number     Number       Type             X           Y           Z
 ---------------------------------------------------------------------
      1          1           0        0.000000    0.000000    0.000000
      2          1           0       -1.800000    0.000000    0.000000
      3          9           0        2.950000    0.000000    0.000000
 ---------------------------------------------------------------------

 SCF Done:  E(UB3LYP) =  -100.787982930     a.u. after   27 cycles

 Alpha  occ. eigenvalues --  -24.74403  -1.20437  -0.53526  -0.44944  -0.44944
 Alpha  occ. eigenvalues --   -0.34089
 Alpha virt. eigenvalues --   -0.11801   0.25213   0.30837   0.89781   0.92067
 Alpha virt. eigenvalues --    0.92067   1.04135   1.09613   1.23493   1.23493
 Alpha virt. eigenvalues --    1.36379   1.36379   1.60315   2.13835   2.39625

  Beta  occ. eigenvalues --  -24.71365  -1.11725  -0.41902  -0.41902  -0.34020
  Beta virt. eigenvalues --   -0.25087  -0.11396   0.25867   0.31054   0.93529
  Beta virt. eigenvalues --    0.93529   0.98363   1.07502   1.10491   1.23567
  Beta virt. eigenvalues --    1.23567   1.36887   1.36887   1.60807   2.14898

 Mulliken charges and spin densities:
               1          2
     1  H    0.012429  -0.697948
     2  H    0.019759   0.735221
     3  F   -0.032188   0.962727
 Sum of Mulliken charges =  -0.00000   1.00000

 Dipole moment (field-independent basis, Debye):
    X=             -0.6554    Y=             -0.0000    Z=             -0.0000  Tot=              0.6554
 Quadrupole moment (field-independent basis, Debye-Ang):
   XX=             -7.0124   YY=             -7.7324   ZZ=             -7.7324
   XY=              0.0000   XZ=             -0.0000   YZ=             -0.0000

  Exact polarizability:      61.291       0.000       2.009      -0.000       0.000       2.009
 Approx polarizability:      64.249       0.000       1.953      -0.000       0.000       1.953

 ******    2 imaginary frequencies (negative Signs) ******

                      1                      2                      3
                      A                      A                      A
 Frequencies --  -1739.3883              -241.5928               761.1598
 Red. masses --      1.0079                 1.1084                 1.0131
 Frc consts  --      1.7967                 0.0381                 0.3458
 IR Inten    --     84.9540                30.0041                 0.0162

                      4
                      A
 Frequencies --    761.1599
 Red. masses --      1.0131
 Frc consts  --      0.3458
 IR Inten    --      0.0162

 - Thermochemistry -
 -------------------
 Temperature   298.150 Kelvin.  Pressure   1.00000 Atm.
 Atom     1 has atomic number  1 and mass   1.00783

 Molecular mass:    21.01405 amu.
 Principal axes and moments of inertia in atomic units:
                           1         2         3
     Eigenvalues --     0.00000 102.28914 102.28914
           X            1.00000  -0.00000   0.00000
           Y            0.00000   1.00000   0.00000
           Z            0.00000   0.00000   1.00000
 This molecule is a prolate symmetric top.
 Rotational symmetry number  1.
 Rotational temperature (Kelvin)      0.84676
 Rotational constant (GHZ):          17.643527
    2 imaginary frequencies ignored.
 Zero-point vibrational energy       9105.5 (Joules/Mol)
                                    2.17627 (Kcal/Mol)
 Vibrational temperatures:   1095.14  1095.14
          (Kelvin)

 Zero-point correction=                           0.003468 (Hartree/Particle)
 Thermal correction to Energy=                    0.006009
 Thermal correction to Enthalpy=                  0.006953
 Thermal correction to Gibbs Free Energy=        -0.017073
 Sum of electronic and zero-point Energies=           -100.784515
 Sum of electronic and thermal Energies=              -100.781974
 Sum of electronic and thermal Enthalpies=            -100.781029
 Sum of electronic and thermal Free Energies=         -100.805056

                     E (Thermal)             CV                S
                      KCal/Mol        Cal/Mol-Kelvin    Cal/Mol-Kelvin
 Total                    3.771              6.402             50.568
 Electronic               0.000              0.000              1.377
 Translational            0.889              2.981             35.068
 Rotational               0.592              1.987             13.640
 Vibrational              2.290              1.434              0.483

 Normal termination of Gaussian 16 at Fri Aug 22 19:17:04 2025.
