 Gaussian 16, Revision C.01,
 Gaussian 16:  ES64L-G16RevC.01  3-Jul-2019

 -----------------------------------------
 # sp b3lyp/6-311g** Force nosymm scf=(qc)
 -----------------------------------------

 -------------------
 Title Card Required
 -------------------
 Symbolic Z-matrix:
 Charge =  0 Multiplicity = 2

                          Input orientation:
 ---------------------------------------------------------------------
 Center     Atomic      Atomic             Coordinates (Angstroms)
 Number     Number       Type             X           Y           Z
 ---------------------------------------------------------------------
      1          1           0        0.000000    0.000000    0.000000
      2          1           0       -3.400000    0.000000    0.000000
      3          9           0        0.850000    0.000000    0.000000
 ---------------------------------------------------------------------

 SCF Done:  E(UB3LYP) =  -100.965513155     a.u. after    6 cycles

 Alpha  occ. eigenvalues --  -24.63853  -1.20903  -0.55011  -0.40134  -0.40134
 Alpha  occ. eigenvalues --   -0.33645
 Alpha virt. eigenvalues --    0.04226   0.24719   0.42576   0.94338   0.94338
 Alpha virt. eigenvalues --    0.97392   1.23573   1.23870   1.23870   1.30165
 Alpha virt. eigenvalues --    1.38358   1.38358   2.03095   2.14487   2.42901

  Beta  occ. eigenvalues --  -24.63852  -1.20899  -0.55007  -0.40133  -0.40133
  Beta virt. eigenvalues --   -0.05650   0.04861   0.39157   0.42590   0.94338
  Beta virt. eigenvalues --    0.94338   0.97383   1.29607   1.38358   1.38358
  Beta virt. eigenvalues --    1.50572   1.50884   1.50884   2.03141   2.42866

 Mulliken charges and spin densities:
               1          2
     1  H    0.283876   0.000735
     2  H    0.001031   0.998717
     3  F   -0.284908   0.000548
 Sum of Mulliken charges =   0.00000   1.00000

 Dipole moment (field-independent basis, Debye):
    X=             -1.8225    Y=              0.0000    Z=             -0.0000  Tot=              1.8225
 Quadrupole moment (field-independent basis, Debye-Ang):
   XX=             -7.7388   YY=             -6.8197   ZZ=             -6.8197
   XY=             -0.0000   XZ=             -0.0000   YZ=              0.0000

  Exact polarizability:       5.224       0.000       2.437      -0.000      -0.000       2.437
 Approx polarizability:       5.929       0.000       2.417       0.000      -0.000       2.417

 ******    3 imaginary frequencies (negative Signs) ******

                      1                      2                      3
                      A                      A                      A
 Frequencies --  -1324.4382             -1324.4382               -47.8233
 Red. masses --      1.0389                 1.0389                 1.0532
 Frc consts  --      1.0737                 1.0737                 0.0014
 IR Inten    --    187.6692               187.6692                 0.0497

                      4
                      A
 Frequencies --   5311.4273
 Red. masses --      1.0583
 Frc consts  --     17.5910
 IR Inten    --    104.7381

 - Thermochemistry -
 -------------------
 Temperature   298.150 Kelvin.  Pressure   1.00000 Atm.
 Atom     1 has atomic number  1 and mass   1.00783

 Molecular mass:    21.01405 amu.
 Principal axes and moments of inertia in atomic units:
                           1         2         3
     Eigenvalues --     0.00000  63.11787  63.11787
           X            1.00000  -0.00000   0.00000
           Y            0.00000   1.00000   0.00000
           Z            0.00000   0.00000   1.00000
 This molecule is a prolate symmetric top.
 Rotational symmetry number  1.
 Rotational temperature (Kelvin)      1.37226
 Rotational constant (GHZ):          28.593189
    3 imaginary frequencies ignored.
 Zero-point vibrational energy      31769.4 (Joules/Mol)
                                    7.59307 (Kcal/Mol)
 Vibrational temperatures:   7641.96
          (Kelvin)

 Zero-point correction=                           0.012100 (Hartree/Particle)
 Thermal correction to Energy=                    0.014461
 Thermal correction to Enthalpy=                  0.015405
 Thermal correction to Gibbs Free Energy=        -0.007936
 Sum of electronic and zero-point Energies=           -100.953413
 Sum of electronic and thermal Energies=              -100.951052
 Sum of electronic and thermal Enthalpies=            -100.950108
 Sum of electronic and thermal Free Energies=         -100.973450

                     E (Thermal)             CV                S
                      KCal/Mol        Cal/Mol-Kelvin    Cal/Mol-Kelvin
 Total                    9.074              4.968             49.126
 Electronic               0.000              0.000              1.377
 Translational            0.889              2.981             35.068
 Rotational               0.592              1.987             12.681
 Vibrational              7.593              0.000              0.000

 Normal termination of Gaussian 16 at Fri Aug 22 15:54:22 2025.
