 Gaussian 16, Revision C.01,
 Gaussian 16:  ES64L-G16RevC.01  3-Jul-2019

 -----------------------------------------
 # sp b3lyp/6-311g** Force nosymm scf=(qc)
 -----------------------------------------

 -------------------
 Title Card Required
 -------------------
 Symbolic Z-matrix:
 Charge =  0 Multiplicity = 2

                          Input orientation:
 ---------------------------------------------------------------------
 Center     Atomic      Atomic             Coordinates (Angstroms)
 Number     Number       Type             X           Y           Z
 ---------------------------------------------------------------------
      1          1           0        0.000000    0.000000    0.000000
      2          1           0       -2.250000    0.000000    0.000000
      3          9           0        3.500000    0.000000    0.000000
 ---------------------------------------------------------------------

 SCF Done:  E(UB3LYP) =  -100.766817074     a.u. after   31 cycles

 Alpha  occ. eigenvalues --  -24.75499  -1.21453  -0.54622  -0.45863  -0.45863
 Alpha  occ. eigenvalues --   -0.32868
 Alpha virt. eigenvalues --   -0.10361   0.25859   0.33439   0.87603   0.91404
 Alpha virt. eigenvalues --    0.91404   1.01755   1.24490   1.24935   1.24935
 Alpha virt. eigenvalues --    1.39567   1.39567   1.44471   2.14400   2.35554

  Beta  occ. eigenvalues --  -24.72381  -1.12492  -0.42738  -0.42738  -0.33061
  Beta virt. eigenvalues --   -0.25568  -0.09974   0.25712   0.34025   0.92895
  Beta virt. eigenvalues --    0.92895   0.96778   1.05803   1.24261   1.24695
  Beta virt. eigenvalues --    1.24695   1.40148   1.40148   1.44982   2.14995

 Mulliken charges and spin densities:
               1          2
     1  H    0.005992  -0.924659
     2  H    0.003947   0.935959
     3  F   -0.009939   0.988700
 Sum of Mulliken charges =  -0.00000   1.00000

 Dipole moment (field-independent basis, Debye):
    X=             -0.2207    Y=             -0.0000    Z=              0.0000  Tot=              0.2207
 Quadrupole moment (field-independent basis, Debye-Ang):
   XX=             -6.9063   YY=             -7.6916   ZZ=             -7.6916
   XY=             -0.0000   XZ=              0.0000   YZ=              0.0000

  Exact polarizability:      38.714      -0.000       2.029       0.000       0.000       2.029
 Approx polarizability:      29.926      -0.000       1.929       0.000       0.000       1.929

 ******    2 imaginary frequencies (negative Signs) ******

                      1                      2                      3
                      A                      A                      A
 Frequencies --   -954.4214              -138.5031               364.2806
 Red. masses --      1.0079                 1.1084                 1.0135
 Frc consts  --      0.5409                 0.0125                 0.0792
 IR Inten    --      6.6471                 6.7236                 0.0132

                      4
                      A
 Frequencies --    364.2806
 Red. masses --      1.0135
 Frc consts  --      0.0792
 IR Inten    --      0.0132

 - Thermochemistry -
 -------------------
 Temperature   298.150 Kelvin.  Pressure   1.00000 Atm.
 Atom     1 has atomic number  1 and mass   1.00783

 Molecular mass:    21.01405 amu.
 Principal axes and moments of inertia in atomic units:
                           1         2         3
     Eigenvalues --     0.00000 148.31140 148.31140
           X            1.00000  -0.00000   0.00000
           Y            0.00000   1.00000   0.00000
           Z            0.00000   0.00000   1.00000
 This molecule is a prolate symmetric top.
 Rotational symmetry number  1.
 Rotational temperature (Kelvin)      0.58400
 Rotational constant (GHZ):          12.168594
    2 imaginary frequencies ignored.
 Zero-point vibrational energy       4357.8 (Joules/Mol)
                                    1.04153 (Kcal/Mol)
 Warning -- explicit consideration of   2 degrees of freedom as
           vibrations may cause significant error
 Vibrational temperatures:    524.12   524.12
          (Kelvin)

 Zero-point correction=                           0.001660 (Hartree/Particle)
 Thermal correction to Energy=                    0.004712
 Thermal correction to Enthalpy=                  0.005656
 Thermal correction to Gibbs Free Energy=        -0.019541
 Sum of electronic and zero-point Energies=           -100.765157
 Sum of electronic and thermal Energies=              -100.762105
 Sum of electronic and thermal Enthalpies=            -100.761161
 Sum of electronic and thermal Free Energies=         -100.786358

                     E (Thermal)             CV                S
                      KCal/Mol        Cal/Mol-Kelvin    Cal/Mol-Kelvin
 Total                    2.957              8.060             53.031
 Electronic               0.000              0.000              1.377
 Translational            0.889              2.981             35.068
 Rotational               0.592              1.987             14.378
 Vibrational              1.475              3.092              2.208
 Vibration     1          0.738              1.546              1.104
 Vibration     2          0.738              1.546              1.104

 Normal termination of Gaussian 16 at Fri Aug 22 22:09:22 2025.
