 Gaussian 16, Revision C.01,
 Gaussian 16:  ES64L-G16RevC.01  3-Jul-2019

 -----------------------------------------
 # sp b3lyp/6-311g** Force nosymm scf=(qc)
 -----------------------------------------

 -------------------
 Title Card Required
 -------------------
 Symbolic Z-matrix:
 Charge =  0 Multiplicity = 2

                          Input orientation:
 ---------------------------------------------------------------------
 Center     Atomic      Atomic             Coordinates (Angstroms)
 Number     Number       Type             X           Y           Z
 ---------------------------------------------------------------------
      1          1           0        0.000000    0.000000    0.000000
      2          1           0       -1.700000    0.000000    0.000000
      3          9           0        2.900000    0.000000    0.000000
 ---------------------------------------------------------------------

 SCF Done:  E(UB3LYP) =  -100.796713355     a.u. after   43 cycles

 Alpha  occ. eigenvalues --  -24.74418  -1.20453  -0.53546  -0.44960  -0.44960
 Alpha  occ. eigenvalues --   -0.34348
 Alpha virt. eigenvalues --   -0.11623   0.24937   0.30460   0.89890   0.92046
 Alpha virt. eigenvalues --    0.92046   1.04129   1.07521   1.22509   1.22509
 Alpha virt. eigenvalues --    1.36907   1.36907   1.66572   2.15640   2.41728

  Beta  occ. eigenvalues --  -24.71383  -1.11750  -0.41921  -0.41921  -0.34181
  Beta virt. eigenvalues --   -0.25148  -0.11256   0.25682   0.30579   0.93506
  Beta virt. eigenvalues --    0.93506   0.98307   1.06283   1.09825   1.22712
  Beta virt. eigenvalues --    1.22712   1.37284   1.37284   1.67040   2.16639

 Mulliken charges and spin densities:
               1          2
     1  H    0.010149  -0.597151
     2  H    0.022474   0.635397
     3  F   -0.032623   0.961754
 Sum of Mulliken charges =  -0.00000   1.00000

 Dipole moment (field-independent basis, Debye):
    X=             -0.6653    Y=              0.0000    Z=              0.0000  Tot=              0.6653
 Quadrupole moment (field-independent basis, Debye-Ang):
   XX=             -6.8432   YY=             -7.7362   ZZ=             -7.7362
   XY=             -0.0000   XZ=             -0.0000   YZ=             -0.0000

  Exact polarizability:      61.066      -0.000       2.016      -0.000      -0.000       2.016
 Approx polarizability:      69.447      -0.000       1.972      -0.000      -0.000       1.972

 ******    2 imaginary frequencies (negative Signs) ******

                      1                      2                      3
                      A                      A                      A
 Frequencies --  -1915.7658              -243.3188               888.4337
 Red. masses --      1.0079                 1.1084                 1.0128
 Frc consts  --      2.1795                 0.0387                 0.4710
 IR Inten    --    137.5378                30.1444                 0.0009

                      4
                      A
 Frequencies --    888.4337
 Red. masses --      1.0128
 Frc consts  --      0.4710
 IR Inten    --      0.0009

 - Thermochemistry -
 -------------------
 Temperature   298.150 Kelvin.  Pressure   1.00000 Atm.
 Atom     1 has atomic number  1 and mass   1.00783

 Molecular mass:    21.01405 amu.
 Principal axes and moments of inertia in atomic units:
                           1         2         3
     Eigenvalues --     0.00000  96.71354  96.71354
           X            1.00000  -0.00000   0.00000
           Y            0.00000   1.00000   0.00000
           Z            0.00000   0.00000   1.00000
 This molecule is a prolate symmetric top.
 Rotational symmetry number  1.
 Rotational temperature (Kelvin)      0.89557
 Rotational constant (GHZ):          18.660687
    2 imaginary frequencies ignored.
 Zero-point vibrational energy      10628.0 (Joules/Mol)
                                    2.54016 (Kcal/Mol)
 Vibrational temperatures:   1278.26  1278.26
          (Kelvin)

 Zero-point correction=                           0.004048 (Hartree/Particle)
 Thermal correction to Energy=                    0.006521
 Thermal correction to Enthalpy=                  0.007465
 Thermal correction to Gibbs Free Energy=        -0.016418
 Sum of electronic and zero-point Energies=           -100.792665
 Sum of electronic and thermal Energies=              -100.790192
 Sum of electronic and thermal Enthalpies=            -100.789248
 Sum of electronic and thermal Free Energies=         -100.813131

                     E (Thermal)             CV                S
                      KCal/Mol        Cal/Mol-Kelvin    Cal/Mol-Kelvin
 Total                    4.092              6.000             50.267
 Electronic               0.000              0.000              1.377
 Translational            0.889              2.981             35.068
 Rotational               0.592              1.987             13.529
 Vibrational              2.611              1.032              0.292

 Normal termination of Gaussian 16 at Fri Aug 22 19:02:44 2025.
