 Gaussian 16, Revision C.01,
 Gaussian 16:  ES64L-G16RevC.01  3-Jul-2019

 -----------------------------------------
 # sp b3lyp/6-311g** Force nosymm scf=(qc)
 -----------------------------------------

 -------------------
 Title Card Required
 -------------------
 Symbolic Z-matrix:
 Charge =  0 Multiplicity = 2

                          Input orientation:
 ---------------------------------------------------------------------
 Center     Atomic      Atomic             Coordinates (Angstroms)
 Number     Number       Type             X           Y           Z
 ---------------------------------------------------------------------
      1          1           0        0.000000    0.000000    0.000000
      2          1           0       -2.050000    0.000000    0.000000
      3          9           0        3.600000    0.000000    0.000000
 ---------------------------------------------------------------------

 SCF Done:  E(UB3LYP) =  -100.772436123     a.u. after   32 cycles

 Alpha  occ. eigenvalues --  -24.75697  -1.21638  -0.54821  -0.46033  -0.46033
 Alpha  occ. eigenvalues --   -0.32990
 Alpha virt. eigenvalues --   -0.10827   0.25928   0.32611   0.87287   0.91274
 Alpha virt. eigenvalues --    0.91274   1.01494   1.19014   1.24970   1.24970
 Alpha virt. eigenvalues --    1.38267   1.38267   1.49389   2.13262   2.36060

  Beta  occ. eigenvalues --  -24.72568  -1.12642  -0.42896  -0.42896  -0.33075
  Beta virt. eigenvalues --   -0.25683  -0.10600   0.25795   0.33011   0.92767
  Beta virt. eigenvalues --    0.92767   0.96525   1.05570   1.18976   1.24864
  Beta virt. eigenvalues --    1.24864   1.38581   1.38581   1.49618   2.13712

 Mulliken charges and spin densities:
               1          2
     1  H    0.002116  -0.870817
     2  H    0.004558   0.878590
     3  F   -0.006674   0.992226
 Sum of Mulliken charges =   0.00000   1.00000

 Dipole moment (field-independent basis, Debye):
    X=             -0.1673    Y=             -0.0000    Z=             -0.0000  Tot=              0.1673
 Quadrupole moment (field-independent basis, Debye-Ang):
   XX=             -6.5677   YY=             -7.7200   ZZ=             -7.7200
   XY=             -0.0000   XZ=             -0.0000   YZ=              0.0000

  Exact polarizability:      38.859       0.000       2.006       0.000      -0.000       2.006
 Approx polarizability:      33.354      -0.000       1.935      -0.000      -0.000       1.935

 ******    2 imaginary frequencies (negative Signs) ******

                      1                      2                      3
                      A                      A                      A
 Frequencies --  -1265.3970              -120.7048               507.9986
 Red. masses --      1.0078                 1.1085                 1.0126
 Frc consts  --      0.9508                 0.0095                 0.1540
 IR Inten    --      5.7982                 4.4561                 0.0001

                      4
                      A
 Frequencies --    507.9986
 Red. masses --      1.0126
 Frc consts  --      0.1540
 IR Inten    --      0.0001

 - Thermochemistry -
 -------------------
 Temperature   298.150 Kelvin.  Pressure   1.00000 Atm.
 Atom     1 has atomic number  1 and mass   1.00783

 Molecular mass:    21.01405 amu.
 Principal axes and moments of inertia in atomic units:
                           1         2         3
     Eigenvalues --     0.00000 146.76382 146.76382
           X            1.00000  -0.00000   0.00000
           Y            0.00000   1.00000   0.00000
           Z            0.00000   0.00000   1.00000
 This molecule is a prolate symmetric top.
 Rotational symmetry number  1.
 Rotational temperature (Kelvin)      0.59016
 Rotational constant (GHZ):          12.296908
    2 imaginary frequencies ignored.
 Zero-point vibrational energy       6077.0 (Joules/Mol)
                                    1.45244 (Kcal/Mol)
 Warning -- explicit consideration of   2 degrees of freedom as
           vibrations may cause significant error
 Vibrational temperatures:    730.90   730.90
          (Kelvin)

 Zero-point correction=                           0.002315 (Hartree/Particle)
 Thermal correction to Energy=                    0.005112
 Thermal correction to Enthalpy=                  0.006056
 Thermal correction to Gibbs Free Energy=        -0.018689
 Sum of electronic and zero-point Energies=           -100.770122
 Sum of electronic and thermal Energies=              -100.767325
 Sum of electronic and thermal Enthalpies=            -100.766380
 Sum of electronic and thermal Free Energies=         -100.791125

                     E (Thermal)             CV                S
                      KCal/Mol        Cal/Mol-Kelvin    Cal/Mol-Kelvin
 Total                    3.208              7.433             52.080
 Electronic               0.000              0.000              1.377
 Translational            0.889              2.981             35.068
 Rotational               0.592              1.987             14.357
 Vibrational              1.726              2.465              1.277
 Vibration     1          0.863              1.232              0.638
 Vibration     2          0.863              1.232              0.638

 Normal termination of Gaussian 16 at Fri Aug 22 23:05:36 2025.
