 Gaussian 16, Revision C.01,
 Gaussian 16:  ES64L-G16RevC.01  3-Jul-2019

 -----------------------------------------
 # sp b3lyp/6-311g** Force nosymm scf=(qc)
 -----------------------------------------

 -------------------
 Title Card Required
 -------------------
 Symbolic Z-matrix:
 Charge =  0 Multiplicity = 2

                          Input orientation:
 ---------------------------------------------------------------------
 Center     Atomic      Atomic             Coordinates (Angstroms)
 Number     Number       Type             X           Y           Z
 ---------------------------------------------------------------------
      1          1           0        0.000000    0.000000    0.000000
      2          1           0       -0.700000    0.000000    0.000000
      3          9           0        0.550000    0.000000    0.000000
 ---------------------------------------------------------------------

 SCF Done:  E(UB3LYP) =  -100.363462583     a.u. after    6 cycles

 Alpha  occ. eigenvalues --  -24.68878  -1.49457  -0.72534  -0.49554  -0.49554
 Alpha  occ. eigenvalues --   -0.27864
 Alpha virt. eigenvalues --    0.16672   0.20043   0.83692   0.83692   0.83820
 Alpha virt. eigenvalues --    0.96731   1.11451   1.11451   1.42590   1.56917
 Alpha virt. eigenvalues --    1.97880   1.97880   2.19825   3.21160   3.71528

  Beta  occ. eigenvalues --  -24.68214  -1.47115  -0.70099  -0.49016  -0.49016
  Beta virt. eigenvalues --   -0.08629   0.17333   0.26633   0.84872   0.85121
  Beta virt. eigenvalues --    0.85121   1.01786   1.17778   1.17778   1.45545
  Beta virt. eigenvalues --    1.61816   2.03592   2.03592   2.28455   3.29713

 Mulliken charges and spin densities:
               1          2
     1  H    0.244658  -0.069787
     2  H   -0.150723   1.023931
     3  F   -0.093935   0.045856
 Sum of Mulliken charges =   0.00000   1.00000

 Dipole moment (field-independent basis, Debye):
    X=             -0.2577    Y=              0.0000    Z=              0.0000  Tot=              0.2577
 Quadrupole moment (field-independent basis, Debye-Ang):
   XX=             -7.5353   YY=             -6.4210   ZZ=             -6.4210
   XY=              0.0000   XZ=              0.0000   YZ=             -0.0000

  Exact polarizability:       7.159      -0.000       2.423       0.000       0.000       2.423
 Approx polarizability:       6.828      -0.000       2.525      -0.000       0.000       2.525

 ******    2 imaginary frequencies (negative Signs) ******

                      1                      2                      3
                      A                      A                      A
 Frequencies --  -7547.4274             -7547.4274              4197.6277
 Red. masses --      1.0211                 1.0211                 1.0584
 Frc consts  --     34.2707                34.2707                10.9880
 IR Inten    --    174.2253               174.2253               382.1542

                      4
                      A
 Frequencies --  16028.5999
 Red. masses --      1.0531
 Frc consts  --    159.4140
 IR Inten    --     10.8470

 - Thermochemistry -
 -------------------
 Temperature   298.150 Kelvin.  Pressure   1.00000 Atm.
 Atom     1 has atomic number  1 and mass   1.00783

 Molecular mass:    21.01405 amu.
 Principal axes and moments of inertia in atomic units:
                           1         2         3
     Eigenvalues --     0.00000   6.15290   6.15290
           X            1.00000  -0.00000   0.00000
           Y            0.00000   1.00000   0.00000
           Z            0.00000   0.00000   1.00000
 This molecule is a prolate symmetric top.
 Rotational symmetry number  1.
 Rotational temperature (Kelvin)     14.07692
 Rotational constant (GHZ):         293.315327
    2 imaginary frequencies ignored.
 Zero-point vibrational energy     120979.7 (Joules/Mol)
                                   28.91484 (Kcal/Mol)
 Vibrational temperatures:   6039.45 23061.58
          (Kelvin)

 Zero-point correction=                           0.046079 (Hartree/Particle)
 Thermal correction to Energy=                    0.048439
 Thermal correction to Enthalpy=                  0.049383
 Thermal correction to Gibbs Free Energy=         0.028240
 Sum of electronic and zero-point Energies=           -100.317384
 Sum of electronic and thermal Energies=              -100.315023
 Sum of electronic and thermal Enthalpies=            -100.314079
 Sum of electronic and thermal Free Energies=         -100.335222

                     E (Thermal)             CV                S
                      KCal/Mol        Cal/Mol-Kelvin    Cal/Mol-Kelvin
 Total                   30.396              4.968             44.500
 Electronic               0.000              0.000              1.377
 Translational            0.889              2.981             35.068
 Rotational               0.592              1.987              8.054
 Vibrational             28.915              0.000              0.000

 Normal termination of Gaussian 16 at Fri Aug 22 15:38:26 2025.
