 Gaussian 16, Revision C.01,
 Gaussian 16:  ES64L-G16RevC.01  3-Jul-2019

 -----------------------------------------
 # sp b3lyp/6-311g** Force nosymm scf=(qc)
 -----------------------------------------

 -------------------
 Title Card Required
 -------------------
 Symbolic Z-matrix:
 Charge =  0 Multiplicity = 2

                          Input orientation:
 ---------------------------------------------------------------------
 Center     Atomic      Atomic             Coordinates (Angstroms)
 Number     Number       Type             X           Y           Z
 ---------------------------------------------------------------------
      1          1           0        0.000000    0.000000    0.000000
      2          1           0       -1.000000    0.000000    0.000000
      3          9           0        3.500000    0.000000    0.000000
 ---------------------------------------------------------------------

 SCF Done:  E(UB3LYP) =  -100.906598385     a.u. after    7 cycles

 Alpha  occ. eigenvalues --  -24.76173  -1.22078  -0.55297  -0.46441  -0.46441
 Alpha  occ. eigenvalues --   -0.39124
 Alpha virt. eigenvalues --    0.00093   0.21207   0.38291   0.87818   0.90953
 Alpha virt. eigenvalues --    0.90953   1.01703   1.08978   1.08978   1.37397
 Alpha virt. eigenvalues --    1.65622   1.65622   2.21910   2.35988   2.58712

  Beta  occ. eigenvalues --  -24.73024  -1.13019  -0.43283  -0.43283  -0.39118
  Beta virt. eigenvalues --   -0.26041   0.00135   0.21244   0.38469   0.92450
  Beta virt. eigenvalues --    0.92450   0.97011   1.05839   1.08987   1.08987
  Beta virt. eigenvalues --    1.37420   1.65630   1.65630   2.21947   2.36005

 Mulliken charges and spin densities:
               1          2
     1  H   -0.005388  -0.001044
     2  H    0.004847   0.002469
     3  F    0.000541   0.998575
 Sum of Mulliken charges =   0.00000   1.00000

 Dipole moment (field-independent basis, Debye):
    X=             -0.0167    Y=             -0.0000    Z=              0.0000  Tot=              0.0167
 Quadrupole moment (field-independent basis, Debye-Ang):
   XX=             -5.4975   YY=             -7.2711   ZZ=             -7.2711
   XY=             -0.0000   XZ=              0.0000   YZ=              0.0000

  Exact polarizability:      13.197       0.000       2.057      -0.000       0.000       2.057
 Approx polarizability:      16.984      -0.000       2.108      -0.000       0.000       2.108

 ******    1 imaginary frequencies (negative Signs) ******

                      1                      2                      3
                      A                      A                      A
 Frequencies --    -28.6656              1538.8181              1538.8181
 Red. masses --      1.1085                 1.0094                 1.0094
 Frc consts  --      0.0005                 1.4083                 1.4083
 IR Inten    --      0.0305                 0.0294                 0.0294

                      4
                      A
 Frequencies --   1792.2874
 Red. masses --      1.0078
 Frc consts  --      1.9074
 IR Inten    --      0.6130

 - Thermochemistry -
 -------------------
 Temperature   298.150 Kelvin.  Pressure   1.00000 Atm.
 Atom     1 has atomic number  1 and mass   1.00783

 Molecular mass:    21.01405 amu.
 Principal axes and moments of inertia in atomic units:
                           1         2         3
     Eigenvalues --     0.00000 105.92094 105.92094
           X            1.00000  -0.00000   0.00000
           Y            0.00000   1.00000   0.00000
           Z            0.00000   0.00000   1.00000
 This molecule is a prolate symmetric top.
 Rotational symmetry number  1.
 Rotational temperature (Kelvin)      0.81772
 Rotational constant (GHZ):          17.038569
    1 imaginary frequencies ignored.
 Zero-point vibrational energy      29128.6 (Joules/Mol)
                                    6.96191 (Kcal/Mol)
 Vibrational temperatures:   2214.02  2214.02  2578.70
          (Kelvin)

 Zero-point correction=                           0.011095 (Hartree/Particle)
 Thermal correction to Energy=                    0.013465
 Thermal correction to Enthalpy=                  0.014409
 Thermal correction to Gibbs Free Energy=        -0.009432
 Sum of electronic and zero-point Energies=           -100.895504
 Sum of electronic and thermal Energies=              -100.893134
 Sum of electronic and thermal Enthalpies=            -100.892189
 Sum of electronic and thermal Free Energies=         -100.916031

                     E (Thermal)             CV                S
                      KCal/Mol        Cal/Mol-Kelvin    Cal/Mol-Kelvin
 Total                    8.449              5.125             50.178
 Electronic               0.000              0.000              1.377
 Translational            0.889              2.981             35.068
 Rotational               0.592              1.987             13.709
 Vibrational              6.968              0.157              0.023

 Normal termination of Gaussian 16 at Fri Aug 22 21:52:54 2025.
