 Gaussian 16, Revision C.01,
 Gaussian 16:  ES64L-G16RevC.01  3-Jul-2019

 -----------------------------------------
 # sp b3lyp/6-311g** Force nosymm scf=(qc)
 -----------------------------------------

 -------------------
 Title Card Required
 -------------------
 Symbolic Z-matrix:
 Charge =  0 Multiplicity = 2

                          Input orientation:
 ---------------------------------------------------------------------
 Center     Atomic      Atomic             Coordinates (Angstroms)
 Number     Number       Type             X           Y           Z
 ---------------------------------------------------------------------
      1          1           0        0.000000    0.000000    0.000000
      2          1           0       -2.400000    0.000000    0.000000
      3          9           0        1.400000    0.000000    0.000000
 ---------------------------------------------------------------------

 SCF Done:  E(UB3LYP) =  -100.878851083     a.u. after    8 cycles

 Alpha  occ. eigenvalues --  -24.64004  -1.10089  -0.44578  -0.36413  -0.36413
 Alpha  occ. eigenvalues --   -0.35842
 Alpha virt. eigenvalues --   -0.10798   0.23626   0.26763   0.93449   0.93449
 Alpha virt. eigenvalues --    1.03295   1.14662   1.21628   1.21628   1.26768
 Alpha virt. eigenvalues --    1.33191   1.33191   1.73096   2.12325   2.22802

  Beta  occ. eigenvalues --  -24.63848  -1.09685  -0.44015  -0.36268  -0.36268
  Beta virt. eigenvalues --   -0.14660  -0.06370   0.26064   0.35414   0.93411
  Beta virt. eigenvalues --    0.93411   1.03670   1.16576   1.32648   1.32648
  Beta virt. eigenvalues --    1.41948   1.41948   1.44097   1.73240   2.21162

 Mulliken charges and spin densities:
               1          2
     1  H    0.342034  -0.025409
     2  H    0.019142   0.977022
     3  F   -0.361176   0.048387
 Sum of Mulliken charges =   0.00000   1.00000

 Dipole moment (field-independent basis, Debye):
    X=             -2.7364    Y=              0.0000    Z=              0.0000  Tot=              2.7364
 Quadrupole moment (field-independent basis, Debye-Ang):
   XX=             -9.0163   YY=             -7.2598   ZZ=             -7.2598
   XY=              0.0000   XZ=              0.0000   YZ=             -0.0000

  Exact polarizability:      19.135       0.000       2.255      -0.000       0.000       2.255
 Approx polarizability:      28.075      -0.000       2.193       0.000       0.000       2.193

 ******    2 imaginary frequencies (negative Signs) ******

                      1                      2                      3
                      A                      A                      A
 Frequencies --  -1164.1488              -235.2982              1066.5937
 Red. masses --      1.0461                 1.0656                 1.0256
 Frc consts  --      0.8353                 0.0348                 0.6874
 IR Inten    --    148.5498                 1.3913               104.9897

                      4
                      A
 Frequencies --   1066.5937
 Red. masses --      1.0256
 Frc consts  --      0.6874
 IR Inten    --    104.9897

 - Thermochemistry -
 -------------------
 Temperature   298.150 Kelvin.  Pressure   1.00000 Atm.
 Atom     1 has atomic number  1 and mass   1.00783

 Molecular mass:    21.01405 amu.
 Principal axes and moments of inertia in atomic units:
                           1         2         3
     Eigenvalues --     0.00000  54.35645  54.35645
           X            1.00000  -0.00000   0.00000
           Y            0.00000   1.00000   0.00000
           Z            0.00000   0.00000   1.00000
 This molecule is a prolate symmetric top.
 Rotational symmetry number  1.
 Rotational temperature (Kelvin)      1.59344
 Rotational constant (GHZ):          33.201970
    2 imaginary frequencies ignored.
 Zero-point vibrational energy      12759.3 (Joules/Mol)
                                    3.04954 (Kcal/Mol)
 Vibrational temperatures:   1534.59  1534.59
          (Kelvin)

 Zero-point correction=                           0.004860 (Hartree/Particle)
 Thermal correction to Energy=                    0.007277
 Thermal correction to Enthalpy=                  0.008221
 Thermal correction to Gibbs Free Energy=        -0.015047
 Sum of electronic and zero-point Energies=           -100.873991
 Sum of electronic and thermal Energies=              -100.871574
 Sum of electronic and thermal Enthalpies=            -100.870630
 Sum of electronic and thermal Free Energies=         -100.893898

                     E (Thermal)             CV                S
                      KCal/Mol        Cal/Mol-Kelvin    Cal/Mol-Kelvin
 Total                    4.566              5.588             48.972
 Electronic               0.000              0.000              1.377
 Translational            0.889              2.981             35.068
 Rotational               0.592              1.987             12.384
 Vibrational              3.085              0.620              0.143

 Normal termination of Gaussian 16 at Fri Aug 22 16:20:28 2025.
