 Gaussian 16, Revision C.01,
 Gaussian 16:  ES64L-G16RevC.01  3-Jul-2019

 -----------------------------------------
 # sp b3lyp/6-311g** Force nosymm scf=(qc)
 -----------------------------------------

 -------------------
 Title Card Required
 -------------------
 Symbolic Z-matrix:
 Charge =  0 Multiplicity = 2

                          Input orientation:
 ---------------------------------------------------------------------
 Center     Atomic      Atomic             Coordinates (Angstroms)
 Number     Number       Type             X           Y           Z
 ---------------------------------------------------------------------
      1          1           0        0.000000    0.000000    0.000000
      2          1           0       -1.600000    0.000000    0.000000
      3          9           0        3.150000    0.000000    0.000000
 ---------------------------------------------------------------------

 SCF Done:  E(UB3LYP) =  -100.806433620     a.u. after  172 cycles

 Alpha  occ. eigenvalues --  -24.76559  -1.22408  -0.55599  -0.46833  -0.46751
 Alpha  occ. eigenvalues --   -0.33169
 Alpha virt. eigenvalues --   -0.10185   0.25541   0.30711   0.85833   0.90707
 Alpha virt. eigenvalues --    0.92719   1.02256   1.06815   1.22467   1.22473
 Alpha virt. eigenvalues --    1.39566   1.39569   1.75065   2.20063   2.44510

  Beta  occ. eigenvalues --  -24.73395  -1.13318  -0.43643  -0.43581  -0.33180
  Beta virt. eigenvalues --   -0.26230  -0.10124   0.25473   0.30759   0.92202
  Beta virt. eigenvalues --    0.94318   0.95289   1.06241   1.06961   1.22486
  Beta virt. eigenvalues --    1.22489   1.39572   1.39579   1.74985   2.19663

 Mulliken charges and spin densities:
               1          2
     1  H   -0.000334   0.449530
     2  H   -0.005055  -0.450825
     3  F    0.005389   1.001294
 Sum of Mulliken charges =  -0.00000   1.00000

 Dipole moment (field-independent basis, Debye):
    X=              0.0896    Y=              0.0000    Z=             -0.0000  Tot=              0.0896
 Quadrupole moment (field-independent basis, Debye-Ang):
   XX=             -6.3355   YY=             -6.9459   ZZ=             -7.7419
   XY=              0.0000   XZ=              0.0000   YZ=              0.1679

  Exact polarizability:      24.113       0.000       2.474       0.000       0.090       2.047
 Approx polarizability:      41.681       0.000       2.566       0.000       0.113       2.030

 ******    1 imaginary frequencies (negative Signs) ******

                      1                      2                      3
                      A                      A                      A
 Frequencies --  -2060.1019                27.8371              1053.5205
 Red. masses --      1.0078                 1.1085                 1.0118
 Frc consts  --      2.5201                 0.0005                 0.6617
 IR Inten    --      0.2400                 0.5030                 0.0041

                      4
                      A
 Frequencies --   1054.6066
 Red. masses --      1.0118
 Frc consts  --      0.6630
 IR Inten    --      0.0043

 - Thermochemistry -
 -------------------
 Temperature   298.150 Kelvin.  Pressure   1.00000 Atm.
 Atom     1 has atomic number  1 and mass   1.00783

 Molecular mass:    21.01405 amu.
 Principal axes and moments of inertia in atomic units:
                           1         2         3
     Eigenvalues --     0.00000 106.14139 106.14139
           X            1.00000  -0.00000   0.00000
           Y            0.00000   1.00000   0.00000
           Z            0.00000   0.00000   1.00000
 This molecule is a prolate symmetric top.
 Rotational symmetry number  1.
 Rotational temperature (Kelvin)      0.81602
 Rotational constant (GHZ):          17.003180
    1 imaginary frequencies ignored.
 Zero-point vibrational energy      12775.9 (Joules/Mol)
                                    3.05351 (Kcal/Mol)
 Warning -- explicit consideration of   1 degrees of freedom as
           vibrations may cause significant error
 Vibrational temperatures:     40.05  1515.78  1517.34
          (Kelvin)

 Zero-point correction=                           0.004866 (Hartree/Particle)
 Thermal correction to Energy=                    0.008168
 Thermal correction to Enthalpy=                  0.009113
 Thermal correction to Gibbs Free Energy=        -0.017631
 Sum of electronic and zero-point Energies=           -100.801568
 Sum of electronic and thermal Energies=              -100.798265
 Sum of electronic and thermal Enthalpies=            -100.797321
 Sum of electronic and thermal Free Energies=         -100.824065

                     E (Thermal)             CV                S
                      KCal/Mol        Cal/Mol-Kelvin    Cal/Mol-Kelvin
 Total                    5.126              7.596             56.287
 Electronic               0.000              0.000              1.377
 Translational            0.889              2.981             35.068
 Rotational               0.592              1.987             13.714
 Vibrational              3.645              2.628              6.128
 Vibration     1          0.593              1.984              5.978

 Normal termination of Gaussian 16 at Fri Aug 22 20:09:15 2025.
