 Gaussian 16, Revision C.01,
 Gaussian 16:  ES64L-G16RevC.01  3-Jul-2019

 -----------------------------------------
 # sp b3lyp/6-311g** Force nosymm scf=(qc)
 -----------------------------------------

 -------------------
 Title Card Required
 -------------------
 Symbolic Z-matrix:
 Charge =  0 Multiplicity = 2

                          Input orientation:
 ---------------------------------------------------------------------
 Center     Atomic      Atomic             Coordinates (Angstroms)
 Number     Number       Type             X           Y           Z
 ---------------------------------------------------------------------
      1          1           0        0.000000    0.000000    0.000000
      2          1           0       -3.900000    0.000000    0.000000
      3          9           0        2.150000    0.000000    0.000000
 ---------------------------------------------------------------------

 SCF Done:  E(UB3LYP) =  -100.778641504     a.u. after   16 cycles

 Alpha  occ. eigenvalues --  -24.69403  -1.15721  -0.48446  -0.40756  -0.40756
 Alpha  occ. eigenvalues --   -0.33050
 Alpha virt. eigenvalues --   -0.12644   0.22829   0.32855   0.88220   0.94610
 Alpha virt. eigenvalues --    0.94610   1.05807   1.24453   1.24453   1.24456
 Alpha virt. eigenvalues --    1.37025   1.37025   1.53703   2.13794   2.31815

  Beta  occ. eigenvalues --  -24.66830  -1.08474  -0.38208  -0.38208  -0.37050
  Beta virt. eigenvalues --   -0.21676  -0.06281   0.22931   0.38075   0.90687
  Beta virt. eigenvalues --    0.95604   0.95604   1.08114   1.21519   1.21519
  Beta virt. eigenvalues --    1.44561   1.46442   1.46543   1.46543   2.11340

 Mulliken charges and spin densities:
               1          2
     1  H    0.155065  -0.809358
     2  H    0.000490   0.999184
     3  F   -0.155556   0.810174
 Sum of Mulliken charges =  -0.00000   1.00000

 Dipole moment (field-independent basis, Debye):
    X=             -1.6786    Y=             -0.0000    Z=              0.0000  Tot=              1.6786
 Quadrupole moment (field-independent basis, Debye-Ang):
   XX=             -9.9202   YY=             -7.5156   ZZ=             -7.5156
   XY=             -0.0000   XZ=             -0.0000   YZ=              0.0000

  Exact polarizability:      26.592      -0.000       2.045       0.000       0.000       2.045
 Approx polarizability:      37.579      -0.000       1.932       0.000      -0.000       1.932

 ******    2 imaginary frequencies (negative Signs) ******

                      1                      2                      3
                      A                      A                      A
 Frequencies --   -919.3665               -75.2281               387.6168
 Red. masses --      1.0576                 1.0540                 1.0265
 Frc consts  --      0.5267                 0.0035                 0.0909
 IR Inten    --    110.2898                 0.0430                23.1927

                      4
                      A
 Frequencies --    387.6168
 Red. masses --      1.0265
 Frc consts  --      0.0909
 IR Inten    --     23.1927

 - Thermochemistry -
 -------------------
 Temperature   298.150 Kelvin.  Pressure   1.00000 Atm.
 Atom     1 has atomic number  1 and mass   1.00783

 Molecular mass:    21.01405 amu.
 Principal axes and moments of inertia in atomic units:
                           1         2         3
     Eigenvalues --     0.00000 136.76304 136.76304
           X            1.00000  -0.00000   0.00000
           Y            0.00000   1.00000   0.00000
           Z            0.00000   0.00000   1.00000
 This molecule is a prolate symmetric top.
 Rotational symmetry number  1.
 Rotational temperature (Kelvin)      0.63331
 Rotational constant (GHZ):          13.196118
    2 imaginary frequencies ignored.
 Zero-point vibrational energy       4636.9 (Joules/Mol)
                                    1.10825 (Kcal/Mol)
 Warning -- explicit consideration of   2 degrees of freedom as
           vibrations may cause significant error
 Vibrational temperatures:    557.69   557.69
          (Kelvin)

 Zero-point correction=                           0.001766 (Hartree/Particle)
 Thermal correction to Energy=                    0.004770
 Thermal correction to Enthalpy=                  0.005714
 Thermal correction to Gibbs Free Energy=        -0.019317
 Sum of electronic and zero-point Energies=           -100.776875
 Sum of electronic and thermal Energies=              -100.773872
 Sum of electronic and thermal Enthalpies=            -100.772928
 Sum of electronic and thermal Free Energies=         -100.797958

                     E (Thermal)             CV                S
                      KCal/Mol        Cal/Mol-Kelvin    Cal/Mol-Kelvin
 Total                    2.993              7.961             52.681
 Electronic               0.000              0.000              1.377
 Translational            0.889              2.981             35.068
 Rotational               0.592              1.987             14.217
 Vibrational              1.512              2.993              2.019
 Vibration     1          0.756              1.497              1.009
 Vibration     2          0.756              1.497              1.009

 Normal termination of Gaussian 16 at Fri Aug 22 17:09:28 2025.
