 Gaussian 16, Revision C.01,
 Gaussian 16:  ES64L-G16RevC.01  3-Jul-2019

 -----------------------------------------
 # sp b3lyp/6-311g** Force nosymm scf=(qc)
 -----------------------------------------

 -------------------
 Title Card Required
 -------------------
 Symbolic Z-matrix:
 Charge =  0 Multiplicity = 2

                          Input orientation:
 ---------------------------------------------------------------------
 Center     Atomic      Atomic             Coordinates (Angstroms)
 Number     Number       Type             X           Y           Z
 ---------------------------------------------------------------------
      1          1           0        0.000000    0.000000    0.000000
      2          1           0       -3.950000    0.000000    0.000000
      3          9           0        0.700000    0.000000    0.000000
 ---------------------------------------------------------------------

 SCF Done:  E(UB3LYP) =  -100.874741785     a.u. after    6 cycles

 Alpha  occ. eigenvalues --  -24.63201  -1.28237  -0.58591  -0.41768  -0.41768
 Alpha  occ. eigenvalues --   -0.33165
 Alpha virt. eigenvalues --    0.06468   0.24337   0.52531   0.93476   0.93476
 Alpha virt. eigenvalues --    0.95779   1.24257   1.24338   1.24338   1.30436
 Alpha virt. eigenvalues --    1.44053   1.44053   1.97613   2.14282   2.86554

  Beta  occ. eigenvalues --  -24.63201  -1.28236  -0.58591  -0.41768  -0.41768
  Beta virt. eigenvalues --   -0.04765   0.06606   0.38832   0.52507   0.93476
  Beta virt. eigenvalues --    0.93476   0.95775   1.30297   1.44053   1.44053
  Beta virt. eigenvalues --    1.50042   1.50225   1.50225   1.97683   2.45281

 Mulliken charges and spin densities:
               1          2
     1  H    0.262625   0.000276
     2  H    0.000313   0.999649
     3  F   -0.262938   0.000075
 Sum of Mulliken charges =   0.00000   1.00000

 Dipole moment (field-independent basis, Debye):
    X=             -1.5825    Y=             -0.0000    Z=             -0.0000  Tot=              1.5825
 Quadrupole moment (field-independent basis, Debye-Ang):
   XX=             -7.3241   YY=             -6.6631   ZZ=             -6.6631
   XY=             -0.0000   XZ=             -0.0000   YZ=             -0.0000

  Exact polarizability:       3.712      -0.000       2.443       0.000       0.000       2.443
 Approx polarizability:       4.098       0.000       2.423       0.000       0.000       2.423

 ******    3 imaginary frequencies (negative Signs) ******

                      1                      2                      3
                      A                      A                      A
 Frequencies --  -3570.2108             -3570.2108               -27.8926
 Red. masses --      1.0435                 1.0435                 1.0532
 Frc consts  --      7.8365                 7.8365                 0.0005
 IR Inten    --    216.7345               216.7345                 0.0077

                      4
                      A
 Frequencies --   9073.2381
 Red. masses --      1.0583
 Frc consts  --     51.3320
 IR Inten    --    103.6909

 - Thermochemistry -
 -------------------
 Temperature   298.150 Kelvin.  Pressure   1.00000 Atm.
 Atom     1 has atomic number  1 and mass   1.00783

 Molecular mass:    21.01405 amu.
 Principal axes and moments of inertia in atomic units:
                           1         2         3
     Eigenvalues --     0.00000  74.64263  74.64263
           X            1.00000  -0.00000   0.00000
           Y            0.00000   1.00000   0.00000
           Z            0.00000   0.00000   1.00000
 This molecule is a prolate symmetric top.
 Rotational symmetry number  1.
 Rotational temperature (Kelvin)      1.16038
 Rotational constant (GHZ):          24.178423
    3 imaginary frequencies ignored.
 Zero-point vibrational energy      54270.0 (Joules/Mol)
                                   12.97085 (Kcal/Mol)
 Vibrational temperatures:  13054.37
          (Kelvin)

 Zero-point correction=                           0.020670 (Hartree/Particle)
 Thermal correction to Energy=                    0.023031
 Thermal correction to Enthalpy=                  0.023975
 Thermal correction to Gibbs Free Energy=         0.000475
 Sum of electronic and zero-point Energies=           -100.854071
 Sum of electronic and thermal Energies=              -100.851711
 Sum of electronic and thermal Enthalpies=            -100.850767
 Sum of electronic and thermal Free Energies=         -100.874267

                     E (Thermal)             CV                S
                      KCal/Mol        Cal/Mol-Kelvin    Cal/Mol-Kelvin
 Total                   14.452              4.968             49.459
 Electronic               0.000              0.000              1.377
 Translational            0.889              2.981             35.068
 Rotational               0.592              1.987             13.014
 Vibrational             12.971              0.000              0.000

 Normal termination of Gaussian 16 at Fri Aug 22 15:47:39 2025.
