 Gaussian 16, Revision C.01,
 Gaussian 16:  ES64L-G16RevC.01  3-Jul-2019

 -----------------------------------------
 # sp b3lyp/6-311g** Force nosymm scf=(qc)
 -----------------------------------------

 -------------------
 Title Card Required
 -------------------
 Symbolic Z-matrix:
 Charge =  0 Multiplicity = 2

                          Input orientation:
 ---------------------------------------------------------------------
 Center     Atomic      Atomic             Coordinates (Angstroms)
 Number     Number       Type             X           Y           Z
 ---------------------------------------------------------------------
      1          1           0        0.000000    0.000000    0.000000
      2          1           0       -1.400000    0.000000    0.000000
      3          9           0        1.150000    0.000000    0.000000
 ---------------------------------------------------------------------

 SCF Done:  E(UB3LYP) =  -100.943986615     a.u. after    7 cycles

 Alpha  occ. eigenvalues --  -24.63605  -1.12934  -0.51108  -0.37597  -0.37329
 Alpha  occ. eigenvalues --   -0.37329
 Alpha virt. eigenvalues --    0.03940   0.20219   0.31158   0.93282   0.93282
 Alpha virt. eigenvalues --    1.00355   1.13271   1.13271   1.14302   1.43954
 Alpha virt. eigenvalues --    1.43954   1.54404   1.98629   2.31453   2.41069

  Beta  occ. eigenvalues --  -24.63014  -1.11443  -0.47537  -0.36792  -0.36792
  Beta virt. eigenvalues --   -0.18786   0.07038   0.24333   0.34612   0.93611
  Beta virt. eigenvalues --    0.93611   1.01674   1.21784   1.22074   1.22074
  Beta virt. eigenvalues --    1.48370   1.48370   1.56903   2.09311   2.32213

 Mulliken charges and spin densities:
               1          2
     1  H    0.299641  -0.036067
     2  H    0.050950   0.866483
     3  F   -0.350591   0.169583
 Sum of Mulliken charges =   0.00000   1.00000

 Dipole moment (field-independent basis, Debye):
    X=             -2.5774    Y=             -0.0000    Z=             -0.0000  Tot=              2.5774
 Quadrupole moment (field-independent basis, Debye-Ang):
   XX=             -7.8688   YY=             -6.9289   ZZ=             -6.9289
   XY=             -0.0000   XZ=             -0.0000   YZ=              0.0000

  Exact polarizability:      18.546       0.000       2.482      -0.000      -0.000       2.482
 Approx polarizability:      22.635       0.000       2.466       0.000      -0.000       2.466

 ******    1 imaginary frequencies (negative Signs) ******

                      1                      2                      3
                      A                      A                      A
 Frequencies --  -1357.2115               925.7361              1093.8840
 Red. masses --      1.0091                 1.1069                 1.0205
 Frc consts  --      1.0952                 0.5589                 0.7195
 IR Inten    --     20.1388                58.9677                68.1784

                      4
                      A
 Frequencies --   1093.8840
 Red. masses --      1.0205
 Frc consts  --      0.7195
 IR Inten    --     68.1784

 - Thermochemistry -
 -------------------
 Temperature   298.150 Kelvin.  Pressure   1.00000 Atm.
 Atom     1 has atomic number  1 and mass   1.00783

 Molecular mass:    21.01405 amu.
 Principal axes and moments of inertia in atomic units:
                           1         2         3
     Eigenvalues --     0.00000  25.79925  25.79925
           X            1.00000  -0.00000   0.00000
           Y            0.00000   1.00000   0.00000
           Z            0.00000   0.00000   1.00000
 This molecule is a prolate symmetric top.
 Rotational symmetry number  1.
 Rotational temperature (Kelvin)      3.35723
 Rotational constant (GHZ):          69.953234
    1 imaginary frequencies ignored.
 Zero-point vibrational energy      18622.9 (Joules/Mol)
                                    4.45098 (Kcal/Mol)
 Vibrational temperatures:   1331.93  1573.86  1573.86
          (Kelvin)

 Zero-point correction=                           0.007093 (Hartree/Particle)
 Thermal correction to Energy=                    0.009554
 Thermal correction to Enthalpy=                  0.010498
 Thermal correction to Gibbs Free Energy=        -0.012119
 Sum of electronic and zero-point Energies=           -100.936894
 Sum of electronic and thermal Energies=              -100.934433
 Sum of electronic and thermal Enthalpies=            -100.933489
 Sum of electronic and thermal Free Energies=         -100.956106

                     E (Thermal)             CV                S
                      KCal/Mol        Cal/Mol-Kelvin    Cal/Mol-Kelvin
 Total                    5.995              6.004             47.602
 Electronic               0.000              0.000              1.377
 Translational            0.889              2.981             35.068
 Rotational               0.592              1.987             10.903
 Vibrational              4.514              1.036              0.254

 Normal termination of Gaussian 16 at Fri Aug 22 16:07:19 2025.
