 Gaussian 16, Revision C.01,
 Gaussian 16:  ES64L-G16RevC.01  3-Jul-2019

 -----------------------------------------
 # sp b3lyp/6-311g** Force nosymm scf=(qc)
 -----------------------------------------

 -------------------
 Title Card Required
 -------------------
 Symbolic Z-matrix:
 Charge =  0 Multiplicity = 2

                          Input orientation:
 ---------------------------------------------------------------------
 Center     Atomic      Atomic             Coordinates (Angstroms)
 Number     Number       Type             X           Y           Z
 ---------------------------------------------------------------------
      1          1           0        0.000000    0.000000    0.000000
      2          1           0       -2.800000    0.000000    0.000000
      3          9           0        3.900000    0.000000    0.000000
 ---------------------------------------------------------------------

 SCF Done:  E(UB3LYP) =  -100.760320570     a.u. after   37 cycles

 Alpha  occ. eigenvalues --  -24.75844  -1.21774  -0.54969  -0.46154  -0.46154
 Alpha  occ. eigenvalues --   -0.32409
 Alpha virt. eigenvalues --   -0.08254   0.25383   0.35802   0.86685   0.91191
 Alpha virt. eigenvalues --    0.91191   1.01146   1.25156   1.25156   1.26272
 Alpha virt. eigenvalues --    1.43501   1.43501   1.43833   2.16025   2.38701

  Beta  occ. eigenvalues --  -24.72702  -1.12738  -0.43003  -0.43003  -0.32593
  Beta virt. eigenvalues --   -0.25719  -0.08014   0.25216   0.36126   0.92689
  Beta virt. eigenvalues --    0.92689   0.96043   1.05266   1.24954   1.24954
  Beta virt. eigenvalues --    1.26047   1.43858   1.43858   1.44189   2.16099

 Mulliken charges and spin densities:
               1          2
     1  H    0.002708  -0.983337
     2  H    0.000496   0.986944
     3  F   -0.003204   0.996394
 Sum of Mulliken charges =   0.00000   1.00000

 Dipole moment (field-independent basis, Debye):
    X=             -0.0711    Y=              0.0000    Z=             -0.0000  Tot=              0.0711
 Quadrupole moment (field-independent basis, Debye-Ang):
   XX=             -6.8456   YY=             -7.6457   ZZ=             -7.6457
   XY=             -0.0000   XZ=              0.0000   YZ=              0.0000

  Exact polarizability:      17.068      -0.000       2.026       0.000      -0.000       2.026
 Approx polarizability:      12.738      -0.000       1.933       0.000       0.000       1.933

 ******    2 imaginary frequencies (negative Signs) ******

                      1                      2                      3
                      A                      A                      A
 Frequencies --   -435.7591               -80.3494               156.9095
 Red. masses --      1.0079                 1.1084                 1.0144
 Frc consts  --      0.1128                 0.0042                 0.0147
 IR Inten    --      0.9548                 0.9857                 0.0060

                      4
                      A
 Frequencies --    156.9095
 Red. masses --      1.0144
 Frc consts  --      0.0147
 IR Inten    --      0.0060

 - Thermochemistry -
 -------------------
 Temperature   298.150 Kelvin.  Pressure   1.00000 Atm.
 Atom     1 has atomic number  1 and mass   1.00783

 Molecular mass:    21.01405 amu.
 Principal axes and moments of inertia in atomic units:
                           1         2         3
     Eigenvalues --     0.00000 196.90630 196.90630
           X            1.00000  -0.00000   0.00000
           Y            0.00000   1.00000   0.00000
           Z            0.00000   0.00000   1.00000
 This molecule is a prolate symmetric top.
 Rotational symmetry number  1.
 Rotational temperature (Kelvin)      0.43987
 Rotational constant (GHZ):           9.165482
    2 imaginary frequencies ignored.
 Zero-point vibrational energy       1877.1 (Joules/Mol)
                                    0.44863 (Kcal/Mol)
 Warning -- explicit consideration of   2 degrees of freedom as
           vibrations may cause significant error
 Vibrational temperatures:    225.76   225.76
          (Kelvin)

 Zero-point correction=                           0.000715 (Hartree/Particle)
 Thermal correction to Energy=                    0.004338
 Thermal correction to Enthalpy=                  0.005282
 Thermal correction to Gibbs Free Energy=        -0.021591
 Sum of electronic and zero-point Energies=           -100.759606
 Sum of electronic and thermal Energies=              -100.755982
 Sum of electronic and thermal Enthalpies=            -100.755038
 Sum of electronic and thermal Free Energies=         -100.781912

                     E (Thermal)             CV                S
                      KCal/Mol        Cal/Mol-Kelvin    Cal/Mol-Kelvin
 Total                    2.722              8.758             56.560
 Electronic               0.000              0.000              1.377
 Translational            0.889              2.981             35.068
 Rotational               0.592              1.987             14.942
 Vibrational              1.241              3.790              5.173
 Vibration     1          0.621              1.895              2.587
 Vibration     2          0.621              1.895              2.587

 Normal termination of Gaussian 16 at Sat Aug 23 01:25:54 2025.
