 Gaussian 16, Revision C.01,
 Gaussian 16:  ES64L-G16RevC.01  3-Jul-2019

 -----------------------------------------
 # sp b3lyp/6-311g** Force nosymm scf=(qc)
 -----------------------------------------

 -------------------
 Title Card Required
 -------------------
 Symbolic Z-matrix:
 Charge =  0 Multiplicity = 2

                          Input orientation:
 ---------------------------------------------------------------------
 Center     Atomic      Atomic             Coordinates (Angstroms)
 Number     Number       Type             X           Y           Z
 ---------------------------------------------------------------------
      1          1           0        0.000000    0.000000    0.000000
      2          1           0       -3.350000    0.000000    0.000000
      3          9           0        1.200000    0.000000    0.000000
 ---------------------------------------------------------------------

 SCF Done:  E(UB3LYP) =  -100.925609821     a.u. after    6 cycles

 Alpha  occ. eigenvalues --  -24.64337  -1.12259  -0.47736  -0.37516  -0.37516
 Alpha  occ. eigenvalues --   -0.33990
 Alpha virt. eigenvalues --   -0.05690   0.22494   0.29408   0.93187   0.93187
 Alpha virt. eigenvalues --    1.00811   1.23474   1.23529   1.23529   1.26541
 Alpha virt. eigenvalues --    1.34636   1.34636   1.72929   2.13959   2.28561

  Beta  occ. eigenvalues --  -24.64331  -1.12244  -0.47719  -0.37511  -0.37511
  Beta virt. eigenvalues --   -0.08106  -0.04099   0.27027   0.38466   0.93187
  Beta virt. eigenvalues --    0.93187   1.00827   1.26438   1.34623   1.34623
  Beta virt. eigenvalues --    1.47074   1.47074   1.47248   1.72978   2.28376

 Mulliken charges and spin densities:
               1          2
     1  H    0.352536   0.000107
     2  H    0.001762   0.998010
     3  F   -0.354298   0.001883
 Sum of Mulliken charges =   0.00000   1.00000

 Dipole moment (field-independent basis, Debye):
    X=             -2.3049    Y=              0.0000    Z=              0.0000  Tot=              2.3049
 Quadrupole moment (field-independent basis, Debye-Ang):
   XX=             -8.8339   YY=             -7.1279   ZZ=             -7.1279
   XY=              0.0000   XZ=              0.0000   YZ=             -0.0000

  Exact polarizability:       9.852       0.000       2.325      -0.000      -0.000       2.325
 Approx polarizability:      13.770       0.000       2.280       0.000      -0.000       2.280

 ******    1 imaginary frequencies (negative Signs) ******

                      1                      2                      3
                      A                      A                      A
 Frequencies --    -71.4180              1000.9548              1202.0069
 Red. masses --      1.0524                 1.0592                 1.0334
 Frc consts  --      0.0032                 0.6252                 0.8797
 IR Inten    --      0.2216                71.2133               144.9837

                      4
                      A
 Frequencies --   1202.0069
 Red. masses --      1.0334
 Frc consts  --      0.8797
 IR Inten    --    144.9837

 - Thermochemistry -
 -------------------
 Temperature   298.150 Kelvin.  Pressure   1.00000 Atm.
 Atom     1 has atomic number  1 and mass   1.00783

 Molecular mass:    21.01405 amu.
 Principal axes and moments of inertia in atomic units:
                           1         2         3
     Eigenvalues --     0.00000  73.98423  73.98423
           X            1.00000  -0.00000   0.00000
           Y            0.00000   1.00000   0.00000
           Z            0.00000   0.00000   1.00000
 This molecule is a prolate symmetric top.
 Rotational symmetry number  1.
 Rotational temperature (Kelvin)      1.17071
 Rotational constant (GHZ):          24.393593
    1 imaginary frequencies ignored.
 Zero-point vibrational energy      20366.2 (Joules/Mol)
                                    4.86765 (Kcal/Mol)
 Vibrational temperatures:   1440.15  1729.42  1729.42
          (Kelvin)

 Zero-point correction=                           0.007757 (Hartree/Particle)
 Thermal correction to Energy=                    0.010188
 Thermal correction to Enthalpy=                  0.011132
 Thermal correction to Gibbs Free Energy=        -0.012443
 Sum of electronic and zero-point Energies=           -100.917853
 Sum of electronic and thermal Energies=              -100.915422
 Sum of electronic and thermal Enthalpies=            -100.914478
 Sum of electronic and thermal Free Energies=         -100.938053

                     E (Thermal)             CV                S
                      KCal/Mol        Cal/Mol-Kelvin    Cal/Mol-Kelvin
 Total                    6.393              5.751             49.617
 Electronic               0.000              0.000              1.377
 Translational            0.889              2.981             35.068
 Rotational               0.592              1.987             12.996
 Vibrational              4.912              0.783              0.175

 Normal termination of Gaussian 16 at Fri Aug 22 16:11:03 2025.
