 Gaussian 16, Revision C.01,
 Gaussian 16:  ES64L-G16RevC.01  3-Jul-2019

 -----------------------------------------
 # sp b3lyp/6-311g** Force nosymm scf=(qc)
 -----------------------------------------

 -------------------
 Title Card Required
 -------------------
 Symbolic Z-matrix:
 Charge =  0 Multiplicity = 2

                          Input orientation:
 ---------------------------------------------------------------------
 Center     Atomic      Atomic             Coordinates (Angstroms)
 Number     Number       Type             X           Y           Z
 ---------------------------------------------------------------------
      1          1           0        0.000000    0.000000    0.000000
      2          1           0       -2.050000    0.000000    0.000000
      3          9           0        2.000000    0.000000    0.000000
 ---------------------------------------------------------------------

 SCF Done:  E(UB3LYP) =  -100.798694133     a.u. after   13 cycles

 Alpha  occ. eigenvalues --  -24.68102  -1.14433  -0.47172  -0.39629  -0.39629
 Alpha  occ. eigenvalues --   -0.36244
 Alpha virt. eigenvalues --   -0.13606   0.23993   0.30824   0.88597   0.94990
 Alpha virt. eigenvalues --    0.94990   1.05192   1.21640   1.21640   1.28013
 Alpha virt. eigenvalues --    1.34038   1.34038   1.59738   2.10958   2.30679

  Beta  occ. eigenvalues --  -24.65715  -1.07757  -0.37426  -0.37276  -0.37276
  Beta virt. eigenvalues --   -0.21286  -0.11450   0.25984   0.32075   0.91299
  Beta virt. eigenvalues --    0.95713   0.95713   1.08505   1.23004   1.23004
  Beta virt. eigenvalues --    1.36777   1.36777   1.39608   1.55977   2.11903

 Mulliken charges and spin densities:
               1          2
     1  H    0.146995  -0.650406
     2  H    0.041347   0.900048
     3  F   -0.188342   0.750358
 Sum of Mulliken charges =  -0.00000   1.00000

 Dipole moment (field-independent basis, Debye):
    X=             -2.2756    Y=              0.0000    Z=             -0.0000  Tot=              2.2756
 Quadrupole moment (field-independent basis, Debye-Ang):
   XX=             -8.8044   YY=             -7.5468   ZZ=             -7.5468
   XY=             -0.0000   XZ=             -0.0000   YZ=              0.0000

  Exact polarizability:      48.328      -0.000       2.061       0.000      -0.000       2.061
 Approx polarizability:      57.502       0.000       1.966      -0.000      -0.000       1.966

 ******    2 imaginary frequencies (negative Signs) ******

                      1                      2                      3
                      A                      A                      A
 Frequencies --  -1507.8222              -560.6854               624.3173
 Red. masses --      1.0217                 1.0922                 1.0182
 Frc consts  --      1.3686                 0.2023                 0.2338
 IR Inten    --    105.1789                34.2122                14.1124

                      4
                      A
 Frequencies --    624.3173
 Red. masses --      1.0182
 Frc consts  --      0.2338
 IR Inten    --     14.1124

 - Thermochemistry -
 -------------------
 Temperature   298.150 Kelvin.  Pressure   1.00000 Atm.
 Atom     1 has atomic number  1 and mass   1.00783

 Molecular mass:    21.01405 amu.
 Principal axes and moments of inertia in atomic units:
                           1         2         3
     Eigenvalues --     0.00000  67.11093  67.11093
           X            1.00000  -0.00000   0.00000
           Y            0.00000   1.00000   0.00000
           Z            0.00000   0.00000   1.00000
 This molecule is a prolate symmetric top.
 Rotational symmetry number  1.
 Rotational temperature (Kelvin)      1.29061
 Rotational constant (GHZ):          26.891913
    2 imaginary frequencies ignored.
 Zero-point vibrational energy       7468.5 (Joules/Mol)
                                    1.78501 (Kcal/Mol)
 Vibrational temperatures:    898.25   898.25
          (Kelvin)

 Zero-point correction=                           0.002845 (Hartree/Particle)
 Thermal correction to Energy=                    0.005499
 Thermal correction to Enthalpy=                  0.006443
 Thermal correction to Gibbs Free Energy=        -0.017345
 Sum of electronic and zero-point Energies=           -100.795850
 Sum of electronic and thermal Energies=              -100.793195
 Sum of electronic and thermal Enthalpies=            -100.792251
 Sum of electronic and thermal Free Energies=         -100.816039

                     E (Thermal)             CV                S
                      KCal/Mol        Cal/Mol-Kelvin    Cal/Mol-Kelvin
 Total                    3.451              6.929             50.067
 Electronic               0.000              0.000              1.377
 Translational            0.889              2.981             35.068
 Rotational               0.592              1.987             12.803
 Vibrational              1.970              1.961              0.819

 Normal termination of Gaussian 16 at Fri Aug 22 16:56:32 2025.
