 Gaussian 16, Revision C.01,
 Gaussian 16:  ES64L-G16RevC.01  3-Jul-2019

 -----------------------------------------
 # sp b3lyp/6-311g** Force nosymm scf=(qc)
 -----------------------------------------

 -------------------
 Title Card Required
 -------------------
 Symbolic Z-matrix:
 Charge =  0 Multiplicity = 2

                          Input orientation:
 ---------------------------------------------------------------------
 Center     Atomic      Atomic             Coordinates (Angstroms)
 Number     Number       Type             X           Y           Z
 ---------------------------------------------------------------------
      1          1           0        0.000000    0.000000    0.000000
      2          1           0       -3.700000    0.000000    0.000000
      3          9           0        3.850000    0.000000    0.000000
 ---------------------------------------------------------------------

 SCF Done:  E(UB3LYP) =  -100.758575322     a.u. after   51 cycles

 Alpha  occ. eigenvalues --  -24.75790  -1.21723  -0.54914  -0.46107  -0.46107
 Alpha  occ. eigenvalues --   -0.32255
 Alpha virt. eigenvalues --   -0.06399   0.24238   0.37707   0.86768   0.91228
 Alpha virt. eigenvalues --    0.91228   1.01209   1.25243   1.25243   1.25315
 Alpha virt. eigenvalues --    1.45882   1.46066   1.46066   2.14835   2.41748

  Beta  occ. eigenvalues --  -24.72650  -1.12696  -0.42959  -0.42959  -0.32510
  Beta virt. eigenvalues --   -0.25686  -0.06147   0.24054   0.38142   0.92725
  Beta virt. eigenvalues --    0.92725   0.96095   1.05314   1.24963   1.24963
  Beta virt. eigenvalues --    1.25020   1.46286   1.46468   1.46468   2.14848

 Mulliken charges and spin densities:
               1          2
     1  H    0.003984  -0.994220
     2  H    0.000052   0.998690
     3  F   -0.004036   0.995530
 Sum of Mulliken charges =  -0.00000   1.00000

 Dipole moment (field-independent basis, Debye):
    X=             -0.0813    Y=             -0.0000    Z=              0.0000  Tot=              0.0813
 Quadrupole moment (field-independent basis, Debye-Ang):
   XX=             -7.0154   YY=             -7.6211   ZZ=             -7.6211
   XY=             -0.0000   XZ=              0.0000   YZ=             -0.0000

  Exact polarizability:      13.743      -0.000       2.033       0.000      -0.000       2.033
 Approx polarizability:      10.140      -0.000       1.936       0.000       0.000       1.936

 ******    2 imaginary frequencies (negative Signs) ******

                      1                      2                      3
                      A                      A                      A
 Frequencies --   -172.7831               -73.2870                55.6888
 Red. masses --      1.0188                 1.0955                 1.0175
 Frc consts  --      0.0179                 0.0035                 0.0019
 IR Inten    --      2.1237                 0.5215                 0.0155

                      4
                      A
 Frequencies --     55.6888
 Red. masses --      1.0175
 Frc consts  --      0.0019
 IR Inten    --      0.0155

 - Thermochemistry -
 -------------------
 Temperature   298.150 Kelvin.  Pressure   1.00000 Atm.
 Atom     1 has atomic number  1 and mass   1.00783

 Molecular mass:    21.01405 amu.
 Principal axes and moments of inertia in atomic units:
                           1         2         3
     Eigenvalues --     0.00000 236.06679 236.06679
           X            1.00000  -0.00000   0.00000
           Y            0.00000   1.00000   0.00000
           Z            0.00000   0.00000   1.00000
 This molecule is a prolate symmetric top.
 Rotational symmetry number  1.
 Rotational temperature (Kelvin)      0.36690
 Rotational constant (GHZ):           7.645045
    2 imaginary frequencies ignored.
 Zero-point vibrational energy        666.2 (Joules/Mol)
                                    0.15922 (Kcal/Mol)
 Warning -- explicit consideration of   2 degrees of freedom as
           vibrations may cause significant error
 Vibrational temperatures:     80.12    80.12
          (Kelvin)

 Zero-point correction=                           0.000254 (Hartree/Particle)
 Thermal correction to Energy=                    0.004260
 Thermal correction to Enthalpy=                  0.005204
 Thermal correction to Gibbs Free Energy=        -0.023758
 Sum of electronic and zero-point Energies=           -100.758322
 Sum of electronic and thermal Energies=              -100.754315
 Sum of electronic and thermal Enthalpies=            -100.753371
 Sum of electronic and thermal Free Energies=         -100.782333

                     E (Thermal)             CV                S
                      KCal/Mol        Cal/Mol-Kelvin    Cal/Mol-Kelvin
 Total                    2.673              8.919             60.956
 Electronic               0.000              0.000              1.377
 Translational            0.889              2.981             35.068
 Rotational               0.592              1.987             15.302
 Vibrational              1.192              3.951              9.209
 Vibration     1          0.596              1.975              4.604
 Vibration     2          0.596              1.975              4.604

 Normal termination of Gaussian 16 at Sat Aug 23 01:11:32 2025.
