 Gaussian 16, Revision C.01,
 Gaussian 16:  ES64L-G16RevC.01  3-Jul-2019

 -----------------------------------------
 # sp b3lyp/6-311g** Force nosymm scf=(qc)
 -----------------------------------------

 -------------------
 Title Card Required
 -------------------
 Symbolic Z-matrix:
 Charge =  0 Multiplicity = 2

                          Input orientation:
 ---------------------------------------------------------------------
 Center     Atomic      Atomic             Coordinates (Angstroms)
 Number     Number       Type             X           Y           Z
 ---------------------------------------------------------------------
      1          1           0        0.000000    0.000000    0.000000
      2          1           0       -1.450000    0.000000    0.000000
      3          9           0        2.500000    0.000000    0.000000
 ---------------------------------------------------------------------

 SCF Done:  E(UB3LYP) =  -100.831031785     a.u. after   18 cycles

 Alpha  occ. eigenvalues --  -24.73750  -1.19846  -0.52950  -0.44419  -0.44419
 Alpha  occ. eigenvalues --   -0.36009
 Alpha virt. eigenvalues --   -0.09949   0.23584   0.31389   0.89069   0.92348
 Alpha virt. eigenvalues --    0.92348   1.04563   1.14049   1.17144   1.17144
 Alpha virt. eigenvalues --    1.41500   1.41500   1.84107   2.21909   2.48039

  Beta  occ. eigenvalues --  -24.70781  -1.11359  -0.41452  -0.41452  -0.35558
  Beta virt. eigenvalues --   -0.25135  -0.09199   0.24414   0.31664   0.93763
  Beta virt. eigenvalues --    0.93763   0.96192   1.06973   1.17440   1.17732
  Beta virt. eigenvalues --    1.17732   1.41973   1.41973   1.84766   2.22812

 Mulliken charges and spin densities:
               1          2
     1  H    0.014088  -0.225895
     2  H    0.036127   0.287289
     3  F   -0.050215   0.938606
 Sum of Mulliken charges =  -0.00000   1.00000

 Dipole moment (field-independent basis, Debye):
    X=             -0.8834    Y=              0.0000    Z=             -0.0000  Tot=              0.8834
 Quadrupole moment (field-independent basis, Debye-Ang):
   XX=             -6.6874   YY=             -7.6495   ZZ=             -7.6495
   XY=              0.0000   XZ=             -0.0000   YZ=              0.0000

  Exact polarizability:      55.499       0.000       2.066      -0.000       0.000       2.066
 Approx polarizability:      77.432      -0.000       2.049       0.000      -0.000       2.049

 ******    2 imaginary frequencies (negative Signs) ******

                      1                      2                      3
                      A                      A                      A
 Frequencies --  -1900.6756              -280.6436              1207.3578
 Red. masses --      1.0087                 1.1074                 1.0127
 Frc consts  --      2.1470                 0.0514                 0.8698
 IR Inten    --    739.6612                24.5130                 0.0017

                      4
                      A
 Frequencies --   1207.3578
 Red. masses --      1.0127
 Frc consts  --      0.8698
 IR Inten    --      0.0017

 - Thermochemistry -
 -------------------
 Temperature   298.150 Kelvin.  Pressure   1.00000 Atm.
 Atom     1 has atomic number  1 and mass   1.00783

 Molecular mass:    21.01405 amu.
 Principal axes and moments of inertia in atomic units:
                           1         2         3
     Eigenvalues --     0.00000  71.46645  71.46645
           X            1.00000  -0.00000   0.00000
           Y            0.00000   1.00000   0.00000
           Z            0.00000   0.00000   1.00000
 This molecule is a prolate symmetric top.
 Rotational symmetry number  1.
 Rotational temperature (Kelvin)      1.21195
 Rotational constant (GHZ):          25.252983
    2 imaginary frequencies ignored.
 Zero-point vibrational energy      14443.2 (Joules/Mol)
                                    3.45201 (Kcal/Mol)
 Vibrational temperatures:   1737.12  1737.12
          (Kelvin)

 Zero-point correction=                           0.005501 (Hartree/Particle)
 Thermal correction to Energy=                    0.007894
 Thermal correction to Enthalpy=                  0.008838
 Thermal correction to Gibbs Free Energy=        -0.014658
 Sum of electronic and zero-point Energies=           -100.825531
 Sum of electronic and thermal Energies=              -100.823138
 Sum of electronic and thermal Enthalpies=            -100.822193
 Sum of electronic and thermal Free Energies=         -100.845690

                     E (Thermal)             CV                S
                      KCal/Mol        Cal/Mol-Kelvin    Cal/Mol-Kelvin
 Total                    4.954              5.368             49.453
 Electronic               0.000              0.000              1.377
 Translational            0.889              2.981             35.068
 Rotational               0.592              1.987             12.927
 Vibrational              3.472              0.400              0.080

 Normal termination of Gaussian 16 at Fri Aug 22 17:44:11 2025.
