 Gaussian 16, Revision C.01,
 Gaussian 16:  ES64L-G16RevC.01  3-Jul-2019

 -----------------------------------------
 # sp b3lyp/6-311g** Force nosymm scf=(qc)
 -----------------------------------------

 -------------------
 Title Card Required
 -------------------
 Symbolic Z-matrix:
 Charge =  0 Multiplicity = 2

                          Input orientation:
 ---------------------------------------------------------------------
 Center     Atomic      Atomic             Coordinates (Angstroms)
 Number     Number       Type             X           Y           Z
 ---------------------------------------------------------------------
      1          1           0        0.000000    0.000000    0.000000
      2          1           0       -2.500000    0.000000    0.000000
      3          9           0        3.200000    0.000000    0.000000
 ---------------------------------------------------------------------

 SCF Done:  E(UB3LYP) =  -100.763800470     a.u. after   25 cycles

 Alpha  occ. eigenvalues --  -24.74796  -1.20802  -0.53916  -0.45270  -0.45270
 Alpha  occ. eigenvalues --   -0.32880
 Alpha virt. eigenvalues --   -0.10012   0.25515   0.33835   0.88736   0.91844
 Alpha virt. eigenvalues --    0.91844   1.02865   1.24772   1.24772   1.26470
 Alpha virt. eigenvalues --    1.40600   1.40600   1.42258   2.15547   2.36754

  Beta  occ. eigenvalues --  -24.71723  -1.11980  -0.42191  -0.42191  -0.33398
  Beta virt. eigenvalues --   -0.25186  -0.09158   0.25454   0.34926   0.93320
  Beta virt. eigenvalues --    0.93320   0.97697   1.06819   1.24141   1.24141
  Beta virt. eigenvalues --    1.25678   1.41966   1.41966   1.43614   2.16435

 Mulliken charges and spin densities:
               1          2
     1  H    0.018970  -0.944672
     2  H    0.004029   0.970302
     3  F   -0.022999   0.974370
 Sum of Mulliken charges =   0.00000   1.00000

 Dipole moment (field-independent basis, Debye):
    X=             -0.4258    Y=             -0.0000    Z=             -0.0000  Tot=              0.4258
 Quadrupole moment (field-independent basis, Debye-Ang):
   XX=             -7.5708   YY=             -7.6595   ZZ=             -7.6595
   XY=             -0.0000   XZ=             -0.0000   YZ=              0.0000

  Exact polarizability:      41.046      -0.000       2.017      -0.000       0.000       2.017
 Approx polarizability:      33.924      -0.000       1.925      -0.000      -0.000       1.925

 ******    2 imaginary frequencies (negative Signs) ******

                      1                      2                      3
                      A                      A                      A
 Frequencies --   -685.6091              -192.6056               253.8821
 Red. masses --      1.0087                 1.1075                 1.0152
 Frc consts  --      0.2794                 0.0242                 0.0386
 IR Inten    --     14.8176                13.8573                 0.2671

                      4
                      A
 Frequencies --    253.8821
 Red. masses --      1.0152
 Frc consts  --      0.0386
 IR Inten    --      0.2671

 - Thermochemistry -
 -------------------
 Temperature   298.150 Kelvin.  Pressure   1.00000 Atm.
 Atom     1 has atomic number  1 and mass   1.00783

 Molecular mass:    21.01405 amu.
 Principal axes and moments of inertia in atomic units:
                           1         2         3
     Eigenvalues --     0.00000 140.11344 140.11344
           X            1.00000  -0.00000   0.00000
           Y            0.00000   1.00000   0.00000
           Z            0.00000   0.00000   1.00000
 This molecule is a prolate symmetric top.
 Rotational symmetry number  1.
 Rotational temperature (Kelvin)      0.61817
 Rotational constant (GHZ):          12.880572
    2 imaginary frequencies ignored.
 Zero-point vibrational energy       3037.1 (Joules/Mol)
                                    0.72589 (Kcal/Mol)
 Warning -- explicit consideration of   2 degrees of freedom as
           vibrations may cause significant error
 Vibrational temperatures:    365.28   365.28
          (Kelvin)

 Zero-point correction=                           0.001157 (Hartree/Particle)
 Thermal correction to Energy=                    0.004479
 Thermal correction to Enthalpy=                  0.005424
 Thermal correction to Gibbs Free Energy=        -0.020290
 Sum of electronic and zero-point Energies=           -100.762644
 Sum of electronic and thermal Energies=              -100.759321
 Sum of electronic and thermal Enthalpies=            -100.758377
 Sum of electronic and thermal Free Energies=         -100.784090

                     E (Thermal)             CV                S
                      KCal/Mol        Cal/Mol-Kelvin    Cal/Mol-Kelvin
 Total                    2.811              8.480             54.118
 Electronic               0.000              0.000              1.377
 Translational            0.889              2.981             35.068
 Rotational               0.592              1.987             14.265
 Vibrational              1.330              3.512              3.407
 Vibration     1          0.665              1.756              1.703
 Vibration     2          0.665              1.756              1.703

 Normal termination of Gaussian 16 at Fri Aug 22 20:23:44 2025.
