 Gaussian 16, Revision C.01,
 Gaussian 16:  ES64L-G16RevC.01  3-Jul-2019

 -----------------------------------------
 # sp b3lyp/6-311g** Force nosymm scf=(qc)
 -----------------------------------------

 -------------------
 Title Card Required
 -------------------
 Symbolic Z-matrix:
 Charge =  0 Multiplicity = 2

                          Input orientation:
 ---------------------------------------------------------------------
 Center     Atomic      Atomic             Coordinates (Angstroms)
 Number     Number       Type             X           Y           Z
 ---------------------------------------------------------------------
      1          1           0        0.000000    0.000000    0.000000
      2          1           0       -1.950000    0.000000    0.000000
      3          9           0        1.350000    0.000000    0.000000
 ---------------------------------------------------------------------

 SCF Done:  E(UB3LYP) =  -100.893332546     a.u. after    8 cycles

 Alpha  occ. eigenvalues --  -24.63607  -1.10301  -0.45722  -0.37044  -0.36282
 Alpha  occ. eigenvalues --   -0.36282
 Alpha virt. eigenvalues --   -0.07577   0.23200   0.27546   0.93689   0.93689
 Alpha virt. eigenvalues --    1.02711   1.07386   1.19925   1.19925   1.34715
 Alpha virt. eigenvalues --    1.34715   1.40457   1.70642   2.11261   2.29416

  Beta  occ. eigenvalues --  -24.63270  -1.09430  -0.44178  -0.35968  -0.35968
  Beta virt. eigenvalues --   -0.16727  -0.03658   0.26811   0.32787   0.93642
  Beta virt. eigenvalues --    0.93642   1.03683   1.13370   1.32586   1.32586
  Beta virt. eigenvalues --    1.38966   1.38966   1.51005   1.71500   2.21038

 Mulliken charges and spin densities:
               1          2
     1  H    0.326500  -0.047022
     2  H    0.039296   0.943527
     3  F   -0.365796   0.103495
 Sum of Mulliken charges =  -0.00000   1.00000

 Dipole moment (field-independent basis, Debye):
    X=             -2.8651    Y=             -0.0000    Z=             -0.0000  Tot=              2.8651
 Quadrupole moment (field-independent basis, Debye-Ang):
   XX=             -8.5334   YY=             -7.1912   ZZ=             -7.1912
   XY=             -0.0000   XZ=             -0.0000   YZ=              0.0000

  Exact polarizability:      21.387       0.000       2.309       0.000      -0.000       2.309
 Approx polarizability:      29.042      -0.000       2.257      -0.000      -0.000       2.257

 ******    2 imaginary frequencies (negative Signs) ******

                      1                      2                      3
                      A                      A                      A
 Frequencies --  -1382.7741              -255.9607              1087.8335
 Red. masses --      1.0313                 1.0815                 1.0230
 Frc consts  --      1.1618                 0.0417                 0.7132
 IR Inten    --    196.9194                 1.0090                85.9764

                      4
                      A
 Frequencies --   1087.8335
 Red. masses --      1.0230
 Frc consts  --      0.7132
 IR Inten    --     85.9764

 - Thermochemistry -
 -------------------
 Temperature   298.150 Kelvin.  Pressure   1.00000 Atm.
 Atom     1 has atomic number  1 and mass   1.00783

 Molecular mass:    21.01405 amu.
 Principal axes and moments of inertia in atomic units:
                           1         2         3
     Eigenvalues --     0.00000  42.02020  42.02020
           X            1.00000  -0.00000   0.00000
           Y            0.00000   1.00000   0.00000
           Z            0.00000   0.00000   1.00000
 This molecule is a prolate symmetric top.
 Rotational symmetry number  1.
 Rotational temperature (Kelvin)      2.06124
 Rotational constant (GHZ):          42.949369
    2 imaginary frequencies ignored.
 Zero-point vibrational energy      13013.4 (Joules/Mol)
                                    3.11027 (Kcal/Mol)
 Vibrational temperatures:   1565.15  1565.15
          (Kelvin)

 Zero-point correction=                           0.004957 (Hartree/Particle)
 Thermal correction to Energy=                    0.007369
 Thermal correction to Enthalpy=                  0.008313
 Thermal correction to Gibbs Free Energy=        -0.014706
 Sum of electronic and zero-point Energies=           -100.888376
 Sum of electronic and thermal Energies=              -100.885963
 Sum of electronic and thermal Enthalpies=            -100.885019
 Sum of electronic and thermal Free Energies=         -100.908039

                     E (Thermal)             CV                S
                      KCal/Mol        Cal/Mol-Kelvin    Cal/Mol-Kelvin
 Total                    4.624              5.549             48.449
 Electronic               0.000              0.000              1.377
 Translational            0.889              2.981             35.068
 Rotational               0.592              1.987             11.872
 Vibrational              3.143              0.581              0.131

 Normal termination of Gaussian 16 at Fri Aug 22 16:17:34 2025.
