 Gaussian 16, Revision C.01,
 Gaussian 16:  ES64L-G16RevC.01  3-Jul-2019

 -----------------------------------------
 # sp b3lyp/6-311g** Force nosymm scf=(qc)
 -----------------------------------------

 -------------------
 Title Card Required
 -------------------
 Symbolic Z-matrix:
 Charge =  0 Multiplicity = 2

                          Input orientation:
 ---------------------------------------------------------------------
 Center     Atomic      Atomic             Coordinates (Angstroms)
 Number     Number       Type             X           Y           Z
 ---------------------------------------------------------------------
      1          1           0        0.000000    0.000000    0.000000
      2          1           0       -4.000000    0.000000    0.000000
      3          9           0        3.350000    0.000000    0.000000
 ---------------------------------------------------------------------

 SCF Done:  E(UB3LYP) =  -100.759217547     a.u. after   24 cycles

 Alpha  occ. eigenvalues --  -24.75085  -1.21070  -0.54207  -0.45513  -0.45513
 Alpha  occ. eigenvalues --   -0.32326
 Alpha virt. eigenvalues --   -0.06492   0.24074   0.36984   0.88080   0.91668
 Alpha virt. eigenvalues --    0.91668   1.02262   1.25169   1.25169   1.25188
 Alpha virt. eigenvalues --    1.46391   1.46391   1.46599   2.14479   2.42281

  Beta  occ. eigenvalues --  -24.71990  -1.12183  -0.42412  -0.42412  -0.33017
  Beta virt. eigenvalues --   -0.25324  -0.05828   0.23789   0.38175   0.93151
  Beta virt. eigenvalues --    0.93151   0.97110   1.06202   1.24377   1.24377
  Beta virt. eigenvalues --    1.24395   1.46716   1.46806   1.46806   2.14683

 Mulliken charges and spin densities:
               1          2
     1  H    0.017152  -0.980533
     2  H    0.000065   0.999383
     3  F   -0.017217   0.981149
 Sum of Mulliken charges =  -0.00000   1.00000

 Dipole moment (field-independent basis, Debye):
    X=             -0.2976    Y=             -0.0000    Z=              0.0000  Tot=              0.2976
 Quadrupole moment (field-independent basis, Debye-Ang):
   XX=             -7.6743   YY=             -7.6148   ZZ=             -7.6148
   XY=             -0.0000   XZ=              0.0000   YZ=              0.0000

  Exact polarizability:      26.256      -0.000       2.033       0.000      -0.000       2.033
 Approx polarizability:      22.418      -0.000       1.932       0.000      -0.000       1.932

 ******    2 imaginary frequencies (negative Signs) ******

                      1                      2                      3
                      A                      A                      A
 Frequencies --   -251.4447               -68.3621                75.5483
 Red. masses --      1.0499                 1.0617                 1.0202
 Frc consts  --      0.0391                 0.0029                 0.0034
 IR Inten    --     18.2312                 0.1335                 0.2760

                      4
                      A
 Frequencies --     75.5483
 Red. masses --      1.0202
 Frc consts  --      0.0034
 IR Inten    --      0.2760

 - Thermochemistry -
 -------------------
 Temperature   298.150 Kelvin.  Pressure   1.00000 Atm.
 Atom     1 has atomic number  1 and mass   1.00783

 Molecular mass:    21.01405 amu.
 Principal axes and moments of inertia in atomic units:
                           1         2         3
     Eigenvalues --     0.00000 215.05555 215.05555
           X            1.00000  -0.00000   0.00000
           Y            0.00000   1.00000   0.00000
           Z            0.00000   0.00000   1.00000
 This molecule is a prolate symmetric top.
 Rotational symmetry number  1.
 Rotational temperature (Kelvin)      0.40275
 Rotational constant (GHZ):           8.391977
    2 imaginary frequencies ignored.
 Zero-point vibrational energy        903.8 (Joules/Mol)
                                    0.21600 (Kcal/Mol)
 Warning -- explicit consideration of   2 degrees of freedom as
           vibrations may cause significant error
 Vibrational temperatures:    108.70   108.70
          (Kelvin)

 Zero-point correction=                           0.000344 (Hartree/Particle)
 Thermal correction to Energy=                    0.004270
 Thermal correction to Enthalpy=                  0.005214
 Thermal correction to Gibbs Free Energy=        -0.023089
 Sum of electronic and zero-point Energies=           -100.758873
 Sum of electronic and thermal Energies=              -100.754948
 Sum of electronic and thermal Enthalpies=            -100.754004
 Sum of electronic and thermal Free Energies=         -100.782307

                     E (Thermal)             CV                S
                      KCal/Mol        Cal/Mol-Kelvin    Cal/Mol-Kelvin
 Total                    2.679              8.899             59.569
 Electronic               0.000              0.000              1.377
 Translational            0.889              2.981             35.068
 Rotational               0.592              1.987             15.117
 Vibrational              1.198              3.931              8.007
 Vibration     1          0.599              1.965              4.003
 Vibration     2          0.599              1.965              4.003

 Normal termination of Gaussian 16 at Fri Aug 22 21:03:49 2025.
