 Gaussian 16, Revision C.01,
 Gaussian 16:  ES64L-G16RevC.01  3-Jul-2019

 -----------------------------------------
 # sp b3lyp/6-311g** Force nosymm scf=(qc)
 -----------------------------------------

 -------------------
 Title Card Required
 -------------------
 Symbolic Z-matrix:
 Charge =  0 Multiplicity = 2

                          Input orientation:
 ---------------------------------------------------------------------
 Center     Atomic      Atomic             Coordinates (Angstroms)
 Number     Number       Type             X           Y           Z
 ---------------------------------------------------------------------
      1          1           0        0.000000    0.000000    0.000000
      2          1           0       -0.550000    0.000000    0.000000
      3          9           0        3.600000    0.000000    0.000000
 ---------------------------------------------------------------------

 SCF Done:  E(UB3LYP) =  -100.894185985     a.u. after  329 cycles

 Alpha  occ. eigenvalues --  -24.76294  -1.22154  -0.55356  -0.47895  -0.46524
 Alpha  occ. eigenvalues --   -0.46509
 Alpha virt. eigenvalues --    0.09228   0.18595   0.53589   0.86049   0.90925
 Alpha virt. eigenvalues --    0.92976   1.02119   1.11077   1.11080   1.61249
 Alpha virt. eigenvalues --    1.82316   1.96202   1.96205   2.36541   3.64871

  Beta  occ. eigenvalues --  -24.73137  -1.13075  -0.47885  -0.43366  -0.43344
  Beta virt. eigenvalues --   -0.25995   0.09250   0.18605   0.53661   0.92424
  Beta virt. eigenvalues --    0.94511   0.95513   1.06130   1.11077   1.11080
  Beta virt. eigenvalues --    1.61258   1.82340   1.96202   1.96205   2.36542

 Mulliken charges and spin densities:
               1          2
     1  H   -0.002626  -0.000564
     2  H   -0.001258   0.000120
     3  F    0.003884   1.000444
 Sum of Mulliken charges =   0.00000   1.00000

 Dipole moment (field-independent basis, Debye):
    X=              0.0432    Y=              0.0000    Z=             -0.0000  Tot=              0.0432
 Quadrupole moment (field-independent basis, Debye-Ang):
   XX=             -6.1335   YY=             -5.8005   ZZ=             -6.6647
   XY=             -0.0000   XZ=             -0.0000   YZ=             -0.0016

  Exact polarizability:       5.923      -0.000       2.299      -0.000      -0.001       1.834
 Approx polarizability:       6.344      -0.000       2.498       0.000      -0.001       1.916

 ******    3 imaginary frequencies (negative Signs) ******

                      1                      2                      3
                      A                      A                      A
 Frequencies --  -3697.0408             -3696.7225               -43.5957
 Red. masses --      1.0083                 1.0083                 1.1085
 Frc consts  --      8.1201                 8.1187                 0.0012
 IR Inten    --      0.0055                 0.0048                 0.1157

                      4
                      A
 Frequencies --   8343.1363
 Red. masses --      1.0078
 Frc consts  --     41.3327
 IR Inten    --      0.0495

 - Thermochemistry -
 -------------------
 Temperature   298.150 Kelvin.  Pressure   1.00000 Atm.
 Atom     1 has atomic number  1 and mass   1.00783

 Molecular mass:    21.01405 amu.
 Principal axes and moments of inertia in atomic units:
                           1         2         3
     Eigenvalues --     0.00000  98.25987  98.25987
           X            1.00000  -0.00000   0.00000
           Y            0.00000   1.00000   0.00000
           Z            0.00000   0.00000   1.00000
 This molecule is a prolate symmetric top.
 Rotational symmetry number  1.
 Rotational temperature (Kelvin)      0.88148
 Rotational constant (GHZ):          18.367022
    3 imaginary frequencies ignored.
 Zero-point vibrational energy      49903.0 (Joules/Mol)
                                   11.92711 (Kcal/Mol)
 Vibrational temperatures:  12003.91
          (Kelvin)

 Zero-point correction=                           0.019007 (Hartree/Particle)
 Thermal correction to Energy=                    0.021368
 Thermal correction to Enthalpy=                  0.022312
 Thermal correction to Gibbs Free Energy=        -0.001448
 Sum of electronic and zero-point Energies=           -100.875179
 Sum of electronic and thermal Energies=              -100.872818
 Sum of electronic and thermal Enthalpies=            -100.871874
 Sum of electronic and thermal Free Energies=         -100.895634

                     E (Thermal)             CV                S
                      KCal/Mol        Cal/Mol-Kelvin    Cal/Mol-Kelvin
 Total                   13.408              4.968             50.006
 Electronic               0.000              0.000              1.377
 Translational            0.889              2.981             35.068
 Rotational               0.592              1.987             13.560
 Vibrational             11.927              0.000              0.000

 Normal termination of Gaussian 16 at Fri Aug 22 22:43:35 2025.
