 Gaussian 16, Revision C.01,
 Gaussian 16:  ES64L-G16RevC.01  3-Jul-2019

 -----------------------------------------
 # sp b3lyp/6-311g** Force nosymm scf=(qc)
 -----------------------------------------

 -------------------
 Title Card Required
 -------------------
 Symbolic Z-matrix:
 Charge =  0 Multiplicity = 2

                          Input orientation:
 ---------------------------------------------------------------------
 Center     Atomic      Atomic             Coordinates (Angstroms)
 Number     Number       Type             X           Y           Z
 ---------------------------------------------------------------------
      1          1           0        0.000000    0.000000    0.000000
      2          1           0       -1.050000    0.000000    0.000000
      3          9           0        0.500000    0.000000    0.000000
 ---------------------------------------------------------------------

 SCF Done:  E(UB3LYP) =  -100.221693496     a.u. after    7 cycles

 Alpha  occ. eigenvalues --  -24.65255  -1.46169  -0.67250  -0.46565  -0.46565
 Alpha  occ. eigenvalues --   -0.33495
 Alpha virt. eigenvalues --    0.16369   0.20872   0.82465   0.86402   0.86402
 Alpha virt. eigenvalues --    0.86627   1.12026   1.12026   1.51322   1.75288
 Alpha virt. eigenvalues --    1.79218   1.79218   2.23771   2.46757   3.74522

  Beta  occ. eigenvalues --  -24.64972  -1.45159  -0.66098  -0.46360  -0.46360
  Beta virt. eigenvalues --   -0.10886   0.17149   0.28721   0.86095   0.87396
  Beta virt. eigenvalues --    0.87396   0.89417   1.21628   1.21628   1.51849
  Beta virt. eigenvalues --    1.81675   1.84537   1.84537   2.36965   2.61511

 Mulliken charges and spin densities:
               1          2
     1  H    0.164895  -0.006251
     2  H   -0.040750   0.993629
     3  F   -0.124145   0.012622
 Sum of Mulliken charges =   0.00000   1.00000

 Dipole moment (field-independent basis, Debye):
    X=             -0.8654    Y=             -0.0000    Z=             -0.0000  Tot=              0.8654
 Quadrupole moment (field-independent basis, Debye-Ang):
   XX=             -7.0609   YY=             -6.3319   ZZ=             -6.3319
   XY=              0.0000   XZ=             -0.0000   YZ=             -0.0000

  Exact polarizability:       5.871       0.000       2.471      -0.000      -0.000       2.471
 Approx polarizability:       5.539       0.000       2.531       0.000       0.000       2.531

 ******    2 imaginary frequencies (negative Signs) ******

                      1                      2                      3
                      A                      A                      A
 Frequencies --  -9292.7577             -9292.7577              2149.3827
 Red. masses --      1.0288                 1.0288                 1.0539
 Frc consts  --     52.3466                52.3466                 2.8688
 IR Inten    --    187.7308               187.7308                93.9494

                      4
                      A
 Frequencies --  19183.8486
 Red. masses --      1.0576
 Frc consts  --    229.3223
 IR Inten    --     30.0150

 - Thermochemistry -
 -------------------
 Temperature   298.150 Kelvin.  Pressure   1.00000 Atm.
 Atom     1 has atomic number  1 and mass   1.00783

 Molecular mass:    21.01405 amu.
 Principal axes and moments of inertia in atomic units:
                           1         2         3
     Eigenvalues --     0.00000   8.82099   8.82099
           X            1.00000  -0.00000   0.00000
           Y            0.00000   1.00000   0.00000
           Z            0.00000   0.00000   1.00000
 This molecule is a prolate symmetric top.
 Rotational symmetry number  1.
 Rotational temperature (Kelvin)      9.81907
 Rotational constant (GHZ):         204.596229
    2 imaginary frequencies ignored.
 Zero-point vibrational energy     127601.1 (Joules/Mol)
                                   30.49739 (Kcal/Mol)
 Vibrational temperatures:   3092.48 27601.28
          (Kelvin)

 Zero-point correction=                           0.048601 (Hartree/Particle)
 Thermal correction to Energy=                    0.050961
 Thermal correction to Enthalpy=                  0.051906
 Thermal correction to Gibbs Free Energy=         0.030422
 Sum of electronic and zero-point Energies=           -100.173093
 Sum of electronic and thermal Energies=              -100.170732
 Sum of electronic and thermal Enthalpies=            -100.169788
 Sum of electronic and thermal Free Energies=         -100.191272

                     E (Thermal)             CV                S
                      KCal/Mol        Cal/Mol-Kelvin    Cal/Mol-Kelvin
 Total                   31.979              4.975             45.216
 Electronic               0.000              0.000              1.377
 Translational            0.889              2.981             35.068
 Rotational               0.592              1.987              8.770
 Vibrational             30.498              0.007              0.001

 Normal termination of Gaussian 16 at Fri Aug 22 15:36:14 2025.
