 Gaussian 16, Revision C.01,
 Gaussian 16:  ES64L-G16RevC.01  3-Jul-2019

 -----------------------------------------
 # sp b3lyp/6-311g** Force nosymm scf=(qc)
 -----------------------------------------

 -------------------
 Title Card Required
 -------------------
 Symbolic Z-matrix:
 Charge =  0 Multiplicity = 2

                          Input orientation:
 ---------------------------------------------------------------------
 Center     Atomic      Atomic             Coordinates (Angstroms)
 Number     Number       Type             X           Y           Z
 ---------------------------------------------------------------------
      1          1           0        0.000000    0.000000    0.000000
      2          1           0       -3.450000    0.000000    0.000000
      3          9           0        1.200000    0.000000    0.000000
 ---------------------------------------------------------------------

 SCF Done:  E(UB3LYP) =  -100.925587223     a.u. after    6 cycles

 Alpha  occ. eigenvalues --  -24.64344  -1.12265  -0.47740  -0.37522  -0.37522
 Alpha  occ. eigenvalues --   -0.33891
 Alpha virt. eigenvalues --   -0.05717   0.22339   0.29434   0.93181   0.93181
 Alpha virt. eigenvalues --    1.00807   1.23573   1.23626   1.23626   1.26377
 Alpha virt. eigenvalues --    1.34628   1.34628   1.72838   2.13876   2.28519

  Beta  occ. eigenvalues --  -24.64339  -1.12253  -0.47727  -0.37518  -0.37518
  Beta virt. eigenvalues --   -0.07808  -0.04204   0.26915   0.38617   0.93181
  Beta virt. eigenvalues --    0.93181   1.00820   1.26320   1.34618   1.34618
  Beta virt. eigenvalues --    1.47401   1.47401   1.47660   1.72874   2.28227

 Mulliken charges and spin densities:
               1          2
     1  H    0.352823   0.000081
     2  H    0.001410   0.998424
     3  F   -0.354233   0.001495
 Sum of Mulliken charges =   0.00000   1.00000

 Dipole moment (field-independent basis, Debye):
    X=             -2.2994    Y=             -0.0000    Z=             -0.0000  Tot=              2.2994
 Quadrupole moment (field-independent basis, Debye-Ang):
   XX=             -8.8543   YY=             -7.1278   ZZ=             -7.1278
   XY=             -0.0000   XZ=             -0.0000   YZ=             -0.0000

  Exact polarizability:       9.674       0.000       2.324      -0.000      -0.000       2.324
 Approx polarizability:      13.614       0.000       2.279       0.000       0.000       2.279

 ******    1 imaginary frequencies (negative Signs) ******

                      1                      2                      3
                      A                      A                      A
 Frequencies --    -62.7920              1002.7080              1203.7508
 Red. masses --      1.0526                 1.0590                 1.0339
 Frc consts  --      0.0024                 0.6273                 0.8827
 IR Inten    --      0.1504                69.1378               145.8076

                      4
                      A
 Frequencies --   1203.7508
 Red. masses --      1.0339
 Frc consts  --      0.8827
 IR Inten    --    145.8076

 - Thermochemistry -
 -------------------
 Temperature   298.150 Kelvin.  Pressure   1.00000 Atm.
 Atom     1 has atomic number  1 and mass   1.00783

 Molecular mass:    21.01405 amu.
 Principal axes and moments of inertia in atomic units:
                           1         2         3
     Eigenvalues --     0.00000  77.09509  77.09509
           X            1.00000  -0.00000   0.00000
           Y            0.00000   1.00000   0.00000
           Z            0.00000   0.00000   1.00000
 This molecule is a prolate symmetric top.
 Rotational symmetry number  1.
 Rotational temperature (Kelvin)      1.12347
 Rotational constant (GHZ):          23.409287
    1 imaginary frequencies ignored.
 Zero-point vibrational energy      20397.6 (Joules/Mol)
                                    4.87514 (Kcal/Mol)
 Vibrational temperatures:   1442.67  1731.93  1731.93
          (Kelvin)

 Zero-point correction=                           0.007769 (Hartree/Particle)
 Thermal correction to Energy=                    0.010199
 Thermal correction to Enthalpy=                  0.011143
 Thermal correction to Gibbs Free Energy=        -0.012470
 Sum of electronic and zero-point Energies=           -100.917818
 Sum of electronic and thermal Energies=              -100.915388
 Sum of electronic and thermal Enthalpies=            -100.914444
 Sum of electronic and thermal Free Energies=         -100.938057

                     E (Thermal)             CV                S
                      KCal/Mol        Cal/Mol-Kelvin    Cal/Mol-Kelvin
 Total                    6.400              5.747             49.698
 Electronic               0.000              0.000              1.377
 Translational            0.889              2.981             35.068
 Rotational               0.592              1.987             13.078
 Vibrational              4.919              0.779              0.174

 Normal termination of Gaussian 16 at Fri Aug 22 16:11:06 2025.
