 Gaussian 16, Revision C.01,
 Gaussian 16:  ES64L-G16RevC.01  3-Jul-2019

 -----------------------------------------
 # sp b3lyp/6-311g** Force nosymm scf=(qc)
 -----------------------------------------

 -------------------
 Title Card Required
 -------------------
 Symbolic Z-matrix:
 Charge =  0 Multiplicity = 2

                          Input orientation:
 ---------------------------------------------------------------------
 Center     Atomic      Atomic             Coordinates (Angstroms)
 Number     Number       Type             X           Y           Z
 ---------------------------------------------------------------------
      1          1           0        0.000000    0.000000    0.000000
      2          1           0       -3.300000    0.000000    0.000000
      3          9           0        0.800000    0.000000    0.000000
 ---------------------------------------------------------------------

 SCF Done:  E(UB3LYP) =  -100.950340845     a.u. after    6 cycles

 Alpha  occ. eigenvalues --  -24.63670  -1.23034  -0.56185  -0.40644  -0.40644
 Alpha  occ. eigenvalues --   -0.33678
 Alpha virt. eigenvalues --    0.05164   0.24993   0.45791   0.94210   0.94210
 Alpha virt. eigenvalues --    0.97012   1.23384   1.23840   1.23840   1.30958
 Alpha virt. eigenvalues --    1.39824   1.39824   2.02723   2.14615   2.53085

  Beta  occ. eigenvalues --  -24.63669  -1.23030  -0.56181  -0.40643  -0.40643
  Beta virt. eigenvalues --   -0.05732   0.05888   0.39357   0.45773   0.94210
  Beta virt. eigenvalues --    0.94210   0.97000   1.30024   1.39825   1.39825
  Beta virt. eigenvalues --    1.50795   1.50931   1.50931   2.02758   2.44446

 Mulliken charges and spin densities:
               1          2
     1  H    0.274217   0.000867
     2  H    0.001192   0.998471
     3  F   -0.275409   0.000662
 Sum of Mulliken charges =   0.00000   1.00000

 Dipole moment (field-independent basis, Debye):
    X=             -1.7500    Y=              0.0000    Z=              0.0000  Tot=              1.7500
 Quadrupole moment (field-independent basis, Debye-Ang):
   XX=             -7.5697   YY=             -6.7689   ZZ=             -6.7689
   XY=              0.0000   XZ=              0.0000   YZ=             -0.0000

  Exact polarizability:       4.908       0.000       2.446       0.000       0.000       2.446
 Approx polarizability:       5.444      -0.000       2.428       0.000       0.000       2.428

 ******    3 imaginary frequencies (negative Signs) ******

                      1                      2                      3
                      A                      A                      A
 Frequencies --  -1976.9865             -1976.9865               -46.3419
 Red. masses --      1.0394                 1.0394                 1.0532
 Frc consts  --      2.3935                 2.3935                 0.0013
 IR Inten    --    194.4403               194.4403                 0.0577

                      4
                      A
 Frequencies --   6349.6444
 Red. masses --      1.0583
 Frc consts  --     25.1400
 IR Inten    --    108.0620

 - Thermochemistry -
 -------------------
 Temperature   298.150 Kelvin.  Pressure   1.00000 Atm.
 Atom     1 has atomic number  1 and mass   1.00783

 Molecular mass:    21.01405 amu.
 Principal axes and moments of inertia in atomic units:
                           1         2         3
     Eigenvalues --     0.00000  58.65841  58.65841
           X            1.00000  -0.00000   0.00000
           Y            0.00000   1.00000   0.00000
           Z            0.00000   0.00000   1.00000
 This molecule is a prolate symmetric top.
 Rotational symmetry number  1.
 Rotational temperature (Kelvin)      1.47658
 Rotational constant (GHZ):          30.766966
    3 imaginary frequencies ignored.
 Zero-point vibrational energy      37979.3 (Joules/Mol)
                                    9.07727 (Kcal/Mol)
 Vibrational temperatures:   9135.72
          (Kelvin)

 Zero-point correction=                           0.014466 (Hartree/Particle)
 Thermal correction to Energy=                    0.016826
 Thermal correction to Enthalpy=                  0.017770
 Thermal correction to Gibbs Free Energy=        -0.005502
 Sum of electronic and zero-point Energies=           -100.935875
 Sum of electronic and thermal Energies=              -100.933515
 Sum of electronic and thermal Enthalpies=            -100.932571
 Sum of electronic and thermal Free Energies=         -100.955843

                     E (Thermal)             CV                S
                      KCal/Mol        Cal/Mol-Kelvin    Cal/Mol-Kelvin
 Total                   10.558              4.968             48.980
 Electronic               0.000              0.000              1.377
 Translational            0.889              2.981             35.068
 Rotational               0.592              1.987             12.535
 Vibrational              9.077              0.000              0.000

 Normal termination of Gaussian 16 at Fri Aug 22 15:51:57 2025.
