 Gaussian 16, Revision C.01,
 Gaussian 16:  ES64L-G16RevC.01  3-Jul-2019

 -----------------------------------------
 # sp b3lyp/6-311g** Force nosymm scf=(qc)
 -----------------------------------------

 -------------------
 Title Card Required
 -------------------
 Symbolic Z-matrix:
 Charge =  0 Multiplicity = 2

                          Input orientation:
 ---------------------------------------------------------------------
 Center     Atomic      Atomic             Coordinates (Angstroms)
 Number     Number       Type             X           Y           Z
 ---------------------------------------------------------------------
      1          1           0        0.000000    0.000000    0.000000
      2          1           0       -3.150000    0.000000    0.000000
      3          9           0        1.700000    0.000000    0.000000
 ---------------------------------------------------------------------

 SCF Done:  E(UB3LYP) =  -100.817785821     a.u. after   16 cycles

 Alpha  occ. eigenvalues --  -24.65713  -1.11715  -0.44369  -0.37554  -0.37554
 Alpha  occ. eigenvalues --   -0.34259
 Alpha virt. eigenvalues --   -0.15148   0.21634   0.29238   0.94571   0.94571
 Alpha virt. eigenvalues --    0.96391   1.06309   1.23271   1.23271   1.23643
 Alpha virt. eigenvalues --    1.33073   1.33073   1.73174   2.13790   2.23763

  Beta  occ. eigenvalues --  -24.64213  -1.07629  -0.40195  -0.36101  -0.36101
  Beta virt. eigenvalues --   -0.18398  -0.07808   0.22424   0.37212   0.94323
  Beta virt. eigenvalues --    0.94323   0.97105   1.07741   1.25377   1.25377
  Beta virt. eigenvalues --    1.44422   1.44845   1.44845   1.69576   2.13006

 Mulliken charges and spin densities:
               1          2
     1  H    0.288872  -0.466709
     2  H    0.004914   0.994009
     3  F   -0.293787   0.472700
 Sum of Mulliken charges =   0.00000   1.00000

 Dipole moment (field-independent basis, Debye):
    X=             -2.5076    Y=              0.0000    Z=              0.0000  Tot=              2.5076
 Quadrupole moment (field-independent basis, Debye-Ang):
   XX=            -10.0332   YY=             -7.4123   ZZ=             -7.4123
   XY=              0.0000   XZ=              0.0000   YZ=              0.0000

  Exact polarizability:      23.874       0.000       2.121      -0.000       0.000       2.121
 Approx polarizability:      37.081       0.000       2.020      -0.000       0.000       2.020

 ******    2 imaginary frequencies (negative Signs) ******

                      1                      2                      3
                      A                      A                      A
 Frequencies --  -1734.9886              -168.0358               768.3110
 Red. masses --      1.0568                 1.0547                 1.0268
 Frc consts  --      1.8743                 0.0175                 0.3571
 IR Inten    --    105.3228                 1.3355                76.0494

                      4
                      A
 Frequencies --    768.3110
 Red. masses --      1.0268
 Frc consts  --      0.3571
 IR Inten    --     76.0494

 - Thermochemistry -
 -------------------
 Temperature   298.150 Kelvin.  Pressure   1.00000 Atm.
 Atom     1 has atomic number  1 and mass   1.00783

 Molecular mass:    21.01405 amu.
 Principal axes and moments of inertia in atomic units:
                           1         2         3
     Eigenvalues --     0.00000  87.65354  87.65354
           X            1.00000  -0.00000   0.00000
           Y            0.00000   1.00000   0.00000
           Z            0.00000   0.00000   1.00000
 This molecule is a prolate symmetric top.
 Rotational symmetry number  1.
 Rotational temperature (Kelvin)      0.98814
 Rotational constant (GHZ):          20.589483
    2 imaginary frequencies ignored.
 Zero-point vibrational energy       9191.0 (Joules/Mol)
                                    2.19671 (Kcal/Mol)
 Vibrational temperatures:   1105.43  1105.43
          (Kelvin)

 Zero-point correction=                           0.003501 (Hartree/Particle)
 Thermal correction to Energy=                    0.006037
 Thermal correction to Enthalpy=                  0.006981
 Thermal correction to Gibbs Free Energy=        -0.016893
 Sum of electronic and zero-point Energies=           -100.814285
 Sum of electronic and thermal Energies=              -100.811749
 Sum of electronic and thermal Enthalpies=            -100.810804
 Sum of electronic and thermal Free Energies=         -100.834679

                     E (Thermal)             CV                S
                      KCal/Mol        Cal/Mol-Kelvin    Cal/Mol-Kelvin
 Total                    3.788              6.377             50.248
 Electronic               0.000              0.000              1.377
 Translational            0.889              2.981             35.068
 Rotational               0.592              1.987             13.333
 Vibrational              2.307              1.409              0.469

 Normal termination of Gaussian 16 at Fri Aug 22 16:38:31 2025.
