 Gaussian 16, Revision C.01,
 Gaussian 16:  ES64L-G16RevC.01  3-Jul-2019

 -----------------------------------------
 # sp b3lyp/6-311g** Force nosymm scf=(qc)
 -----------------------------------------

 -------------------
 Title Card Required
 -------------------
 Symbolic Z-matrix:
 Charge =  0 Multiplicity = 2

                          Input orientation:
 ---------------------------------------------------------------------
 Center     Atomic      Atomic             Coordinates (Angstroms)
 Number     Number       Type             X           Y           Z
 ---------------------------------------------------------------------
      1          1           0        0.000000    0.000000    0.000000
      2          1           0       -1.350000    0.000000    0.000000
      3          9           0        3.200000    0.000000    0.000000
 ---------------------------------------------------------------------

 SCF Done:  E(UB3LYP) =  -100.845422830     a.u. after  110 cycles

 Alpha  occ. eigenvalues --  -24.76559  -1.22405  -0.55599  -0.46821  -0.46751
 Alpha  occ. eigenvalues --   -0.34729
 Alpha virt. eigenvalues --   -0.07049   0.23981   0.32070   0.85831   0.90706
 Alpha virt. eigenvalues --    0.92836   1.02314   1.13097   1.16722   1.16727
 Alpha virt. eigenvalues --    1.47292   1.47296   1.94793   2.27518   2.52087

  Beta  occ. eigenvalues --  -24.73400  -1.13323  -0.43657  -0.43583  -0.34723
  Beta virt. eigenvalues --   -0.26232  -0.07040   0.23996   0.32124   0.92205
  Beta virt. eigenvalues --    0.94406   0.95292   1.06315   1.13110   1.16721
  Beta virt. eigenvalues --    1.16726   1.47291   1.47296   1.94801   2.27521

 Mulliken charges and spin densities:
               1          2
     1  H   -0.000370   0.000229
     2  H   -0.004969  -0.000908
     3  F    0.005339   1.000679
 Sum of Mulliken charges =   0.00000   1.00000

 Dipole moment (field-independent basis, Debye):
    X=              0.0811    Y=             -0.0000    Z=              0.0000  Tot=              0.0811
 Quadrupole moment (field-independent basis, Debye-Ang):
   XX=             -6.1888   YY=             -7.4603   ZZ=             -6.9625
   XY=             -0.0000   XZ=              0.0000   YZ=             -0.3531

  Exact polarizability:      19.616       0.000       2.165       0.000      -0.189       2.432
 Approx polarizability:      32.895      -0.000       2.201       0.000      -0.237       2.536

 ******    1 imaginary frequencies (negative Signs) ******

                      1                      2                      3
                      A                      A                      A
 Frequencies --  -1086.7577                35.3913              1350.9193
 Red. masses --      1.0078                 1.1085                 1.0108
 Frc consts  --      0.7013                 0.0008                 1.0869
 IR Inten    --      0.5463                 0.3760                 0.0029

                      4
                      A
 Frequencies --   1352.0361
 Red. masses --      1.0108
 Frc consts  --      1.0887
 IR Inten    --      0.0028

 - Thermochemistry -
 -------------------
 Temperature   298.150 Kelvin.  Pressure   1.00000 Atm.
 Atom     1 has atomic number  1 and mass   1.00783

 Molecular mass:    21.01405 amu.
 Principal axes and moments of inertia in atomic units:
                           1         2         3
     Eigenvalues --     0.00000 100.99512 100.99512
           X            1.00000  -0.00000   0.00000
           Y            0.00000   1.00000   0.00000
           Z            0.00000   0.00000   1.00000
 This molecule is a prolate symmetric top.
 Rotational symmetry number  1.
 Rotational temperature (Kelvin)      0.85761
 Rotational constant (GHZ):          17.869588
    1 imaginary frequencies ignored.
 Zero-point vibrational energy      16379.0 (Joules/Mol)
                                    3.91466 (Kcal/Mol)
 Warning -- explicit consideration of   1 degrees of freedom as
           vibrations may cause significant error
 Vibrational temperatures:     50.92  1943.67  1945.28
          (Kelvin)

 Zero-point correction=                           0.006238 (Hartree/Particle)
 Thermal correction to Energy=                    0.009483
 Thermal correction to Enthalpy=                  0.010427
 Thermal correction to Gibbs Free Energy=        -0.015993
 Sum of electronic and zero-point Energies=           -100.839184
 Sum of electronic and thermal Energies=              -100.835940
 Sum of electronic and thermal Enthalpies=            -100.834996
 Sum of electronic and thermal Free Energies=         -100.861416

                     E (Thermal)             CV                S
                      KCal/Mol        Cal/Mol-Kelvin    Cal/Mol-Kelvin
 Total                    5.951              7.200             55.606
 Electronic               0.000              0.000              1.377
 Translational            0.889              2.981             35.068
 Rotational               0.592              1.987             13.615
 Vibrational              4.469              2.232              5.546
 Vibration     1          0.594              1.982              5.502

 Normal termination of Gaussian 16 at Fri Aug 22 20:20:56 2025.
