 Gaussian 16, Revision C.01,
 Gaussian 16:  ES64L-G16RevC.01  3-Jul-2019

 -----------------------------------------
 # sp b3lyp/6-311g** Force nosymm scf=(qc)
 -----------------------------------------

 -------------------
 Title Card Required
 -------------------
 Symbolic Z-matrix:
 Charge =  0 Multiplicity = 2

                          Input orientation:
 ---------------------------------------------------------------------
 Center     Atomic      Atomic             Coordinates (Angstroms)
 Number     Number       Type             X           Y           Z
 ---------------------------------------------------------------------
      1          1           0        0.000000    0.000000    0.000000
      2          1           0       -3.100000    0.000000    0.000000
      3          9           0        0.800000    0.000000    0.000000
 ---------------------------------------------------------------------

 SCF Done:  E(UB3LYP) =  -100.950380784     a.u. after    6 cycles

 Alpha  occ. eigenvalues --  -24.63663  -1.23026  -0.56180  -0.40636  -0.40636
 Alpha  occ. eigenvalues --   -0.33865
 Alpha virt. eigenvalues --    0.05311   0.25239   0.45743   0.94218   0.94218
 Alpha virt. eigenvalues --    0.97014   1.22805   1.23660   1.23660   1.32277
 Alpha virt. eigenvalues --    1.39834   1.39834   2.02866   2.14753   2.53088

  Beta  occ. eigenvalues --  -24.63660  -1.23019  -0.56173  -0.40634  -0.40634
  Beta virt. eigenvalues --   -0.06224   0.06268   0.39204   0.45837   0.94218
  Beta virt. eigenvalues --    0.94218   0.97000   1.30347   1.39834   1.39834
  Beta virt. eigenvalues --    1.50619   1.50619   1.50874   2.02943   2.44256

 Mulliken charges and spin densities:
               1          2
     1  H    0.273727   0.001215
     2  H    0.001736   0.997677
     3  F   -0.275463   0.001107
 Sum of Mulliken charges =   0.00000   1.00000

 Dipole moment (field-independent basis, Debye):
    X=             -1.7584    Y=              0.0000    Z=             -0.0000  Tot=              1.7584
 Quadrupole moment (field-independent basis, Debye-Ang):
   XX=             -7.5374   YY=             -6.7685   ZZ=             -6.7685
   XY=              0.0000   XZ=             -0.0000   YZ=             -0.0000

  Exact polarizability:       5.180      -0.000       2.450      -0.000       0.000       2.450
 Approx polarizability:       5.676      -0.000       2.432       0.000       0.000       2.432

 ******    3 imaginary frequencies (negative Signs) ******

                      1                      2                      3
                      A                      A                      A
 Frequencies --  -1973.5083             -1973.5083               -46.8135
 Red. masses --      1.0385                 1.0385                 1.0532
 Frc consts  --      2.3830                 2.3830                 0.0014
 IR Inten    --    192.4064               192.4064                 0.1008

                      4
                      A
 Frequencies --   6349.3485
 Red. masses --      1.0583
 Frc consts  --     25.1377
 IR Inten    --    110.8674

 - Thermochemistry -
 -------------------
 Temperature   298.150 Kelvin.  Pressure   1.00000 Atm.
 Atom     1 has atomic number  1 and mass   1.00783

 Molecular mass:    21.01405 amu.
 Principal axes and moments of inertia in atomic units:
                           1         2         3
     Eigenvalues --     0.00000  53.23140  53.23140
           X            1.00000  -0.00000   0.00000
           Y            0.00000   1.00000   0.00000
           Z            0.00000   0.00000   1.00000
 This molecule is a prolate symmetric top.
 Rotational symmetry number  1.
 Rotational temperature (Kelvin)      1.62712
 Rotational constant (GHZ):          33.903697
    3 imaginary frequencies ignored.
 Zero-point vibrational energy      37977.5 (Joules/Mol)
                                    9.07685 (Kcal/Mol)
 Vibrational temperatures:   9135.30
          (Kelvin)

 Zero-point correction=                           0.014465 (Hartree/Particle)
 Thermal correction to Energy=                    0.016825
 Thermal correction to Enthalpy=                  0.017770
 Thermal correction to Gibbs Free Energy=        -0.005411
 Sum of electronic and zero-point Energies=           -100.935916
 Sum of electronic and thermal Energies=              -100.933555
 Sum of electronic and thermal Enthalpies=            -100.932611
 Sum of electronic and thermal Free Energies=         -100.955792

                     E (Thermal)             CV                S
                      KCal/Mol        Cal/Mol-Kelvin    Cal/Mol-Kelvin
 Total                   10.558              4.968             48.788
 Electronic               0.000              0.000              1.377
 Translational            0.889              2.981             35.068
 Rotational               0.592              1.987             12.342
 Vibrational              9.077              0.000              0.000

 Normal termination of Gaussian 16 at Fri Aug 22 15:51:49 2025.
