 Gaussian 16, Revision C.01,
 Gaussian 16:  ES64L-G16RevC.01  3-Jul-2019

 -----------------------------------------
 # sp b3lyp/6-311g** Force nosymm scf=(qc)
 -----------------------------------------

 -------------------
 Title Card Required
 -------------------
 Symbolic Z-matrix:
 Charge =  0 Multiplicity = 2

                          Input orientation:
 ---------------------------------------------------------------------
 Center     Atomic      Atomic             Coordinates (Angstroms)
 Number     Number       Type             X           Y           Z
 ---------------------------------------------------------------------
      1          1           0        0.000000    0.000000    0.000000
      2          1           0       -0.700000    0.000000    0.000000
      3          9           0        2.200000    0.000000    0.000000
 ---------------------------------------------------------------------

 SCF Done:  E(UB3LYP) =  -100.932645531     a.u. after    6 cycles

 Alpha  occ. eigenvalues --  -24.75641  -1.21610  -0.55163  -0.46005  -0.46005
 Alpha  occ. eigenvalues --   -0.45161
 Alpha virt. eigenvalues --    0.07709   0.20014   0.47856   0.90426   0.90874
 Alpha virt. eigenvalues --    0.90874   1.07970   1.07970   1.14509   1.59349
 Alpha virt. eigenvalues --    1.84842   1.84842   1.89177   2.39886   3.54904

  Beta  occ. eigenvalues --  -24.72546  -1.12743  -0.45301  -0.42910  -0.42910
  Beta virt. eigenvalues --   -0.25986   0.08324   0.20467   0.48125   0.92312
  Beta virt. eigenvalues --    0.92312   0.98607   1.08293   1.08293   1.18514
  Beta virt. eigenvalues --    1.60016   1.85001   1.85001   1.89454   2.40264

 Mulliken charges and spin densities:
               1          2
     1  H   -0.010606  -0.014790
     2  H    0.023701   0.039186
     3  F   -0.013095   0.975604
 Sum of Mulliken charges =   0.00000   1.00000

 Dipole moment (field-independent basis, Debye):
    X=             -0.2173    Y=             -0.0000    Z=              0.0000  Tot=              0.2173
 Quadrupole moment (field-independent basis, Debye-Ang):
   XX=             -5.7376   YY=             -6.8651   ZZ=             -6.8651
   XY=             -0.0000   XZ=              0.0000   YZ=             -0.0000

  Exact polarizability:      13.650       0.000       2.026      -0.000       0.000       2.026
 Approx polarizability:      14.507      -0.000       2.084       0.000       0.000       2.084

 ******    3 imaginary frequencies (negative Signs) ******

                      1                      2                      3
                      A                      A                      A
 Frequencies --  -1377.0445             -1377.0445              -125.0504
 Red. masses --      1.0097                 1.0097                 1.1085
 Frc consts  --      1.1281                 1.1281                 0.0102
 IR Inten    --      0.0324                 0.0324                 9.3350

                      4
                      A
 Frequencies --   5053.3991
 Red. masses --      1.0078
 Frc consts  --     15.1636
 IR Inten    --     90.7343

 - Thermochemistry -
 -------------------
 Temperature   298.150 Kelvin.  Pressure   1.00000 Atm.
 Atom     1 has atomic number  1 and mass   1.00783

 Molecular mass:    21.01405 amu.
 Principal axes and moments of inertia in atomic units:
                           1         2         3
     Eigenvalues --     0.00000  43.19736  43.19736
           X            1.00000  -0.00000   0.00000
           Y            0.00000   1.00000   0.00000
           Z            0.00000   0.00000   1.00000
 This molecule is a prolate symmetric top.
 Rotational symmetry number  1.
 Rotational temperature (Kelvin)      2.00507
 Rotational constant (GHZ):          41.778973
    3 imaginary frequencies ignored.
 Zero-point vibrational energy      30226.0 (Joules/Mol)
                                    7.22420 (Kcal/Mol)
 Vibrational temperatures:   7270.71
          (Kelvin)

 Zero-point correction=                           0.011512 (Hartree/Particle)
 Thermal correction to Energy=                    0.013873
 Thermal correction to Enthalpy=                  0.014817
 Thermal correction to Gibbs Free Energy=        -0.008166
 Sum of electronic and zero-point Energies=           -100.921133
 Sum of electronic and thermal Energies=              -100.918773
 Sum of electronic and thermal Enthalpies=            -100.917828
 Sum of electronic and thermal Free Energies=         -100.940812

                     E (Thermal)             CV                S
                      KCal/Mol        Cal/Mol-Kelvin    Cal/Mol-Kelvin
 Total                    8.705              4.968             48.372
 Electronic               0.000              0.000              1.377
 Translational            0.889              2.981             35.068
 Rotational               0.592              1.987             11.927
 Vibrational              7.224              0.000              0.000

 Normal termination of Gaussian 16 at Fri Aug 22 17:10:28 2025.
