 Gaussian 16, Revision C.01,
 Gaussian 16:  ES64L-G16RevC.01  3-Jul-2019

 -----------------------------------------
 # sp b3lyp/6-311g** Force nosymm scf=(qc)
 -----------------------------------------

 -------------------
 Title Card Required
 -------------------
 Symbolic Z-matrix:
 Charge =  0 Multiplicity = 2

                          Input orientation:
 ---------------------------------------------------------------------
 Center     Atomic      Atomic             Coordinates (Angstroms)
 Number     Number       Type             X           Y           Z
 ---------------------------------------------------------------------
      1          1           0        0.000000    0.000000    0.000000
      2          1           0       -3.050000    0.000000    0.000000
      3          9           0        3.400000    0.000000    0.000000
 ---------------------------------------------------------------------

 SCF Done:  E(UB3LYP) =  -100.760070630     a.u. after   27 cycles

 Alpha  occ. eigenvalues --  -24.75217  -1.21192  -0.54339  -0.45624  -0.45624
 Alpha  occ. eigenvalues --   -0.32470
 Alpha virt. eigenvalues --   -0.08070   0.24832   0.35886   0.87946   0.91586
 Alpha virt. eigenvalues --    0.91586   1.02102   1.25062   1.25062   1.25701
 Alpha virt. eigenvalues --    1.43816   1.43831   1.43831   2.15623   2.39684

  Beta  occ. eigenvalues --  -24.72114  -1.12280  -0.42515  -0.42515  -0.32997
  Beta virt. eigenvalues --   -0.25398  -0.07403   0.24617   0.36910   0.93071
  Beta virt. eigenvalues --    0.93071   0.97025   1.06084   1.24447   1.24447
  Beta virt. eigenvalues --    1.25043   1.44809   1.44901   1.44901   2.16005

 Mulliken charges and spin densities:
               1          2
     1  H    0.014079  -0.977099
     2  H    0.000709   0.993415
     3  F   -0.014787   0.983684
 Sum of Mulliken charges =  -0.00000   1.00000

 Dipole moment (field-independent basis, Debye):
    X=             -0.2688    Y=              0.0000    Z=              0.0000  Tot=              0.2688
 Quadrupole moment (field-independent basis, Debye-Ang):
   XX=             -7.4764   YY=             -7.6313   ZZ=             -7.6313
   XY=             -0.0000   XZ=             -0.0000   YZ=              0.0000

  Exact polarizability:      28.419      -0.000       2.029      -0.000      -0.000       2.029
 Approx polarizability:      23.007      -0.000       1.930      -0.000      -0.000       1.930

 ******    2 imaginary frequencies (negative Signs) ******

                      1                      2                      3
                      A                      A                      A
 Frequencies --   -352.8170              -140.2380               122.4438
 Red. masses --      1.0137                 1.1015                 1.0167
 Frc consts  --      0.0743                 0.0128                 0.0090
 IR Inten    --     11.4088                 4.6304                 0.1694

                      4
                      A
 Frequencies --    122.4438
 Red. masses --      1.0167
 Frc consts  --      0.0090
 IR Inten    --      0.1694

 - Thermochemistry -
 -------------------
 Temperature   298.150 Kelvin.  Pressure   1.00000 Atm.
 Atom     1 has atomic number  1 and mass   1.00783

 Molecular mass:    21.01405 amu.
 Principal axes and moments of inertia in atomic units:
                           1         2         3
     Eigenvalues --     0.00000 174.58554 174.58554
           X            1.00000  -0.00000   0.00000
           Y            0.00000   1.00000   0.00000
           Z            0.00000   0.00000   1.00000
 This molecule is a prolate symmetric top.
 Rotational symmetry number  1.
 Rotational temperature (Kelvin)      0.49611
 Rotational constant (GHZ):          10.337289
    2 imaginary frequencies ignored.
 Zero-point vibrational energy       1464.8 (Joules/Mol)
                                    0.35008 (Kcal/Mol)
 Warning -- explicit consideration of   2 degrees of freedom as
           vibrations may cause significant error
 Vibrational temperatures:    176.17   176.17
          (Kelvin)

 Zero-point correction=                           0.000558 (Hartree/Particle)
 Thermal correction to Energy=                    0.004303
 Thermal correction to Enthalpy=                  0.005248
 Thermal correction to Gibbs Free Energy=        -0.021964
 Sum of electronic and zero-point Energies=           -100.759513
 Sum of electronic and thermal Energies=              -100.755767
 Sum of electronic and thermal Enthalpies=            -100.754823
 Sum of electronic and thermal Free Energies=         -100.782034

                     E (Thermal)             CV                S
                      KCal/Mol        Cal/Mol-Kelvin    Cal/Mol-Kelvin
 Total                    2.700              8.829             57.271
 Electronic               0.000              0.000              1.377
 Translational            0.889              2.981             35.068
 Rotational               0.592              1.987             14.702
 Vibrational              1.219              3.861              6.123
 Vibration     1          0.610              1.930              3.061
 Vibration     2          0.610              1.930              3.061

 Normal termination of Gaussian 16 at Fri Aug 22 21:18:05 2025.
