 Gaussian 16, Revision C.01,
 Gaussian 16:  ES64L-G16RevC.01  3-Jul-2019

 -----------------------------------------
 # sp b3lyp/6-311g** Force nosymm scf=(qc)
 -----------------------------------------

 -------------------
 Title Card Required
 -------------------
 Symbolic Z-matrix:
 Charge =  0 Multiplicity = 2

                          Input orientation:
 ---------------------------------------------------------------------
 Center     Atomic      Atomic             Coordinates (Angstroms)
 Number     Number       Type             X           Y           Z
 ---------------------------------------------------------------------
      1          1           0        0.000000    0.000000    0.000000
      2          1           0       -2.500000    0.000000    0.000000
      3          9           0        0.700000    0.000000    0.000000
 ---------------------------------------------------------------------

 SCF Done:  E(UB3LYP) =  -100.874949972     a.u. after    6 cycles

 Alpha  occ. eigenvalues --  -24.63148  -1.28176  -0.58574  -0.41710  -0.41710
 Alpha  occ. eigenvalues --   -0.34472
 Alpha virt. eigenvalues --    0.07894   0.25502   0.52364   0.93533   0.93533
 Alpha virt. eigenvalues --    0.95724   1.17874   1.23077   1.23077   1.43430
 Alpha virt. eigenvalues --    1.44111   1.44111   1.97523   2.14612   2.86666

  Beta  occ. eigenvalues --  -24.63139  -1.28151  -0.58542  -0.41704  -0.41704
  Beta virt. eigenvalues --   -0.08358   0.09300   0.38029   0.52227   0.93530
  Beta virt. eigenvalues --    0.93530   0.95854   1.28843   1.44090   1.44090
  Beta virt. eigenvalues --    1.45772   1.45772   1.56552   1.97552   2.43098

 Mulliken charges and spin densities:
               1          2
     1  H    0.257349   0.003542
     2  H    0.004648   0.993259
     3  F   -0.261997   0.003199
 Sum of Mulliken charges =   0.00000   1.00000

 Dipole moment (field-independent basis, Debye):
    X=             -1.6393    Y=             -0.0000    Z=              0.0000  Tot=              1.6393
 Quadrupole moment (field-independent basis, Debye-Ang):
   XX=             -7.1154   YY=             -6.6560   ZZ=             -6.6560
   XY=             -0.0000   XZ=              0.0000   YZ=              0.0000

  Exact polarizability:       5.478       0.000       2.474      -0.000       0.000       2.474
 Approx polarizability:       5.609       0.000       2.459      -0.000       0.000       2.459

 ******    2 imaginary frequencies (negative Signs) ******

                      1                      2                      3
                      A                      A                      A
 Frequencies --  -3528.8109             -3528.8109               106.6602
 Red. masses --      1.0373                 1.0373                 1.0532
 Frc consts  --      7.6102                 7.6102                 0.0071
 IR Inten    --    199.6161               199.6161                 0.2370

                      4
                      A
 Frequencies --   9072.2751
 Red. masses --      1.0583
 Frc consts  --     51.3213
 IR Inten    --    121.5758

 - Thermochemistry -
 -------------------
 Temperature   298.150 Kelvin.  Pressure   1.00000 Atm.
 Atom     1 has atomic number  1 and mass   1.00783

 Molecular mass:    21.01405 amu.
 Principal axes and moments of inertia in atomic units:
                           1         2         3
     Eigenvalues --     0.00000  35.99201  35.99201
           X            1.00000  -0.00000   0.00000
           Y            0.00000   1.00000   0.00000
           Z            0.00000   0.00000   1.00000
 This molecule is a prolate symmetric top.
 Rotational symmetry number  1.
 Rotational temperature (Kelvin)      2.40648
 Rotational constant (GHZ):          50.142828
    2 imaginary frequencies ignored.
 Zero-point vibrational energy      54902.2 (Joules/Mol)
                                   13.12195 (Kcal/Mol)
 Warning -- explicit consideration of   1 degrees of freedom as
           vibrations may cause significant error
 Vibrational temperatures:    153.46 13052.98
          (Kelvin)

 Zero-point correction=                           0.020911 (Hartree/Particle)
 Thermal correction to Energy=                    0.023994
 Thermal correction to Enthalpy=                  0.024938
 Thermal correction to Gibbs Free Energy=         0.000545
 Sum of electronic and zero-point Energies=           -100.854039
 Sum of electronic and thermal Energies=              -100.850956
 Sum of electronic and thermal Enthalpies=            -100.850012
 Sum of electronic and thermal Free Energies=         -100.874405

                     E (Thermal)             CV                S
                      KCal/Mol        Cal/Mol-Kelvin    Cal/Mol-Kelvin
 Total                   15.056              6.912             51.339
 Electronic               0.000              0.000              1.377
 Translational            0.889              2.981             35.068
 Rotational               0.592              1.987             11.564
 Vibrational             13.575              1.944              3.329
 Vibration     1          0.606              1.944              3.329

 Normal termination of Gaussian 16 at Fri Aug 22 15:46:45 2025.
