 Gaussian 16, Revision C.01,
 Gaussian 16:  ES64L-G16RevC.01  3-Jul-2019

 -----------------------------------------
 # sp b3lyp/6-311g** Force nosymm scf=(qc)
 -----------------------------------------

 -------------------
 Title Card Required
 -------------------
 Symbolic Z-matrix:
 Charge =  0 Multiplicity = 2

                          Input orientation:
 ---------------------------------------------------------------------
 Center     Atomic      Atomic             Coordinates (Angstroms)
 Number     Number       Type             X           Y           Z
 ---------------------------------------------------------------------
      1          1           0        0.000000    0.000000    0.000000
      2          1           0       -0.950000    0.000000    0.000000
      3          9           0        0.850000    0.000000    0.000000
 ---------------------------------------------------------------------

 SCF Done:  E(UB3LYP) =  -100.935691284     a.u. after    6 cycles

 Alpha  occ. eigenvalues --  -24.65075  -1.23126  -0.61362  -0.41388  -0.41388
 Alpha  occ. eigenvalues --   -0.35081
 Alpha virt. eigenvalues --    0.15246   0.18559   0.56912   0.89403   0.89403
 Alpha virt. eigenvalues --    0.95519   1.08382   1.08382   1.45151   1.65601
 Alpha virt. eigenvalues --    1.65601   1.75733   2.10276   2.33986   3.40682

  Beta  occ. eigenvalues --  -24.64346  -1.21210  -0.56932  -0.40754  -0.40754
  Beta virt. eigenvalues --   -0.15981   0.16605   0.22500   0.62614   0.91164
  Beta virt. eigenvalues --    0.91164   0.96985   1.14395   1.14395   1.46679
  Beta virt. eigenvalues --    1.71044   1.71044   1.86038   2.11483   2.46775

 Mulliken charges and spin densities:
               1          2
     1  H    0.265866  -0.009540
     2  H   -0.009659   0.848458
     3  F   -0.256207   0.161082
 Sum of Mulliken charges =   0.00000   1.00000

 Dipole moment (field-independent basis, Debye):
    X=             -1.5943    Y=              0.0000    Z=              0.0000  Tot=              1.5943
 Quadrupole moment (field-independent basis, Debye-Ang):
   XX=             -7.5325   YY=             -6.5747   ZZ=             -6.5747
   XY=              0.0000   XZ=              0.0000   YZ=             -0.0000

  Exact polarizability:      11.044      -0.000       2.581       0.000       0.000       2.581
 Approx polarizability:      11.857      -0.000       2.627      -0.000       0.000       2.627

 ******    2 imaginary frequencies (negative Signs) ******

                      1                      2                      3
                      A                      A                      A
 Frequencies --  -1859.7761             -1859.7761              1966.0386
 Red. masses --      1.0193                 1.0193                 1.0569
 Frc consts  --      2.0773                 2.0773                 2.4070
 IR Inten    --     83.6814                83.6814                80.5764

                      4
                      A
 Frequencies --   5019.7778
 Red. masses --      1.0546
 Frc consts  --     15.6571
 IR Inten    --     47.3470

 - Thermochemistry -
 -------------------
 Temperature   298.150 Kelvin.  Pressure   1.00000 Atm.
 Atom     1 has atomic number  1 and mass   1.00783

 Molecular mass:    21.01405 amu.
 Principal axes and moments of inertia in atomic units:
                           1         2         3
     Eigenvalues --     0.00000  13.04894  13.04894
           X            1.00000  -0.00000   0.00000
           Y            0.00000   1.00000   0.00000
           Z            0.00000   0.00000   1.00000
 This molecule is a prolate symmetric top.
 Rotational symmetry number  1.
 Rotational temperature (Kelvin)      6.63762
 Rotational constant (GHZ):         138.305587
    2 imaginary frequencies ignored.
 Zero-point vibrational energy      41784.5 (Joules/Mol)
                                    9.98673 (Kcal/Mol)
 Vibrational temperatures:   2828.69  7222.34
          (Kelvin)

 Zero-point correction=                           0.015915 (Hartree/Particle)
 Thermal correction to Energy=                    0.018276
 Thermal correction to Enthalpy=                  0.019220
 Thermal correction to Gibbs Free Energy=        -0.002634
 Sum of electronic and zero-point Energies=           -100.919776
 Sum of electronic and thermal Energies=              -100.917415
 Sum of electronic and thermal Enthalpies=            -100.916471
 Sum of electronic and thermal Free Energies=         -100.938325

                     E (Thermal)             CV                S
                      KCal/Mol        Cal/Mol-Kelvin    Cal/Mol-Kelvin
 Total                   11.468              4.982             45.995
 Electronic               0.000              0.000              1.377
 Translational            0.889              2.981             35.068
 Rotational               0.592              1.987              9.548
 Vibrational              9.987              0.014              0.002

 Normal termination of Gaussian 16 at Fri Aug 22 15:52:44 2025.
