 Gaussian 16, Revision C.01,
 Gaussian 16:  ES64L-G16RevC.01  3-Jul-2019

 -----------------------------------------
 # sp b3lyp/6-311g** Force nosymm scf=(qc)
 -----------------------------------------

 -------------------
 Title Card Required
 -------------------
 Symbolic Z-matrix:
 Charge =  0 Multiplicity = 2

                          Input orientation:
 ---------------------------------------------------------------------
 Center     Atomic      Atomic             Coordinates (Angstroms)
 Number     Number       Type             X           Y           Z
 ---------------------------------------------------------------------
      1          1           0        0.000000    0.000000    0.000000
      2          1           0       -3.100000    0.000000    0.000000
      3          9           0        0.650000    0.000000    0.000000
 ---------------------------------------------------------------------

 SCF Done:  E(UB3LYP) =  -100.800747710     a.u. after    6 cycles

 Alpha  occ. eigenvalues --  -24.62928  -1.31304  -0.59798  -0.42347  -0.42347
 Alpha  occ. eigenvalues --   -0.33689
 Alpha virt. eigenvalues --    0.07199   0.25427   0.55442   0.92891   0.92891
 Alpha virt. eigenvalues --    0.94691   1.22837   1.23833   1.23833   1.35229
 Alpha virt. eigenvalues --    1.46922   1.46922   1.96207   2.15018   3.09619

  Beta  occ. eigenvalues --  -24.62927  -1.31299  -0.59795  -0.42347  -0.42347
  Beta virt. eigenvalues --   -0.05789   0.08090   0.39411   0.55580   0.92890
  Beta virt. eigenvalues --    0.92890   0.94690   1.32637   1.46924   1.46924
  Beta virt. eigenvalues --    1.50957   1.50957   1.51957   1.96160   2.44777

 Mulliken charges and spin densities:
               1          2
     1  H    0.253678   0.001073
     2  H    0.001568   0.997933
     3  F   -0.255246   0.000994
 Sum of Mulliken charges =   0.00000   1.00000

 Dipole moment (field-independent basis, Debye):
    X=             -1.5278    Y=              0.0000    Z=              0.0000  Tot=              1.5278
 Quadrupole moment (field-independent basis, Debye-Ang):
   XX=             -7.0738   YY=             -6.6075   ZZ=             -6.6075
   XY=              0.0000   XZ=              0.0000   YZ=              0.0000

  Exact polarizability:       4.125      -0.000       2.452      -0.000      -0.000       2.452
 Approx polarizability:       4.349      -0.000       2.433       0.000      -0.000       2.433

 ******    3 imaginary frequencies (negative Signs) ******

                      1                      2                      3
                      A                      A                      A
 Frequencies --  -4586.4210             -4586.4210               -27.6693
 Red. masses --      1.0414                 1.0414                 1.0532
 Frc consts  --     12.9061                12.9061                 0.0005
 IR Inten    --    222.2859               222.2859                 0.0725

                      4
                      A
 Frequencies --  10873.5149
 Red. masses --      1.0583
 Frc consts  --     73.7232
 IR Inten    --    106.4566

 - Thermochemistry -
 -------------------
 Temperature   298.150 Kelvin.  Pressure   1.00000 Atm.
 Atom     1 has atomic number  1 and mass   1.00783

 Molecular mass:    21.01405 amu.
 Principal axes and moments of inertia in atomic units:
                           1         2         3
     Eigenvalues --     0.00000  48.78997  48.78997
           X            1.00000  -0.00000   0.00000
           Y            0.00000   1.00000   0.00000
           Z            0.00000   0.00000   1.00000
 This molecule is a prolate symmetric top.
 Rotational symmetry number  1.
 Rotational temperature (Kelvin)      1.77524
 Rotational constant (GHZ):          36.990005
    3 imaginary frequencies ignored.
 Zero-point vibrational energy      65038.1 (Joules/Mol)
                                   15.54447 (Kcal/Mol)
 Vibrational temperatures:  15644.56
          (Kelvin)

 Zero-point correction=                           0.024772 (Hartree/Particle)
 Thermal correction to Energy=                    0.027132
 Thermal correction to Enthalpy=                  0.028076
 Thermal correction to Gibbs Free Energy=         0.004978
 Sum of electronic and zero-point Energies=           -100.775976
 Sum of electronic and thermal Energies=              -100.773616
 Sum of electronic and thermal Enthalpies=            -100.772671
 Sum of electronic and thermal Free Energies=         -100.795770

                     E (Thermal)             CV                S
                      KCal/Mol        Cal/Mol-Kelvin    Cal/Mol-Kelvin
 Total                   17.026              4.968             48.614
 Electronic               0.000              0.000              1.377
 Translational            0.889              2.981             35.068
 Rotational               0.592              1.987             12.169
 Vibrational             15.544              0.000              0.000

 Normal termination of Gaussian 16 at Fri Aug 22 15:44:47 2025.
