 Gaussian 16, Revision C.01,
 Gaussian 16:  ES64L-G16RevC.01  3-Jul-2019

 -----------------------------------------
 # sp b3lyp/6-311g** Force nosymm scf=(qc)
 -----------------------------------------

 -------------------
 Title Card Required
 -------------------
 Symbolic Z-matrix:
 Charge =  0 Multiplicity = 2

                          Input orientation:
 ---------------------------------------------------------------------
 Center     Atomic      Atomic             Coordinates (Angstroms)
 Number     Number       Type             X           Y           Z
 ---------------------------------------------------------------------
      1          1           0        0.000000    0.000000    0.000000
      2          1           0       -2.150000    0.000000    0.000000
      3          9           0        2.450000    0.000000    0.000000
 ---------------------------------------------------------------------

 SCF Done:  E(UB3LYP) =  -100.778174773     a.u. after   18 cycles

 Alpha  occ. eigenvalues --  -24.71478  -1.17697  -0.50576  -0.42475  -0.42475
 Alpha  occ. eigenvalues --   -0.34615
 Alpha virt. eigenvalues --   -0.12755   0.24853   0.32365   0.89913   0.93779
 Alpha virt. eigenvalues --    0.93779   1.06330   1.23250   1.23250   1.25111
 Alpha virt. eigenvalues --    1.35692   1.35692   1.45381   2.11955   2.33060

  Beta  occ. eigenvalues --  -24.68661  -1.09683  -0.39668  -0.39668  -0.35390
  Beta virt. eigenvalues --   -0.23289  -0.11129   0.26448   0.32895   0.95123
  Beta virt. eigenvalues --    0.95123   0.96514   1.09227   1.22596   1.22596
  Beta virt. eigenvalues --    1.28963   1.38350   1.38350   1.45479   2.12358

 Mulliken charges and spin densities:
               1          2
     1  H    0.070469  -0.807797
     2  H    0.024133   0.917809
     3  F   -0.094602   0.889988
 Sum of Mulliken charges =  -0.00000   1.00000

 Dipole moment (field-independent basis, Debye):
    X=             -1.4262    Y=             -0.0000    Z=             -0.0000  Tot=              1.4262
 Quadrupole moment (field-independent basis, Debye-Ang):
   XX=             -8.4738   YY=             -7.6368   ZZ=             -7.6368
   XY=             -0.0000   XZ=             -0.0000   YZ=             -0.0000

  Exact polarizability:      54.123      -0.000       2.012      -0.000      -0.000       2.012
 Approx polarizability:      56.985      -0.000       1.923       0.000       0.000       1.923

 ******    2 imaginary frequencies (negative Signs) ******

                      1                      2                      3
                      A                      A                      A
 Frequencies --  -1174.0226              -403.6677               468.3597
 Red. masses --      1.0112                 1.1044                 1.0164
 Frc consts  --      0.8212                 0.1060                 0.1314
 IR Inten    --     54.6880                46.6435                 3.2582

                      4
                      A
 Frequencies --    468.3597
 Red. masses --      1.0164
 Frc consts  --      0.1314
 IR Inten    --      3.2582

 - Thermochemistry -
 -------------------
 Temperature   298.150 Kelvin.  Pressure   1.00000 Atm.
 Atom     1 has atomic number  1 and mass   1.00783

 Molecular mass:    21.01405 amu.
 Principal axes and moments of inertia in atomic units:
                           1         2         3
     Eigenvalues --     0.00000  89.17907  89.17907
           X            1.00000  -0.00000   0.00000
           Y            0.00000   1.00000   0.00000
           Z            0.00000   0.00000   1.00000
 This molecule is a prolate symmetric top.
 Rotational symmetry number  1.
 Rotational temperature (Kelvin)      0.97124
 Rotational constant (GHZ):          20.237272
    2 imaginary frequencies ignored.
 Zero-point vibrational energy       5602.8 (Joules/Mol)
                                    1.33911 (Kcal/Mol)
 Warning -- explicit consideration of   2 degrees of freedom as
           vibrations may cause significant error
 Vibrational temperatures:    673.87   673.87
          (Kelvin)

 Zero-point correction=                           0.002134 (Hartree/Particle)
 Thermal correction to Energy=                    0.004992
 Thermal correction to Enthalpy=                  0.005936
 Thermal correction to Gibbs Free Energy=        -0.018437
 Sum of electronic and zero-point Energies=           -100.776041
 Sum of electronic and thermal Energies=              -100.773183
 Sum of electronic and thermal Enthalpies=            -100.772239
 Sum of electronic and thermal Free Energies=         -100.796612

                     E (Thermal)             CV                S
                      KCal/Mol        Cal/Mol-Kelvin    Cal/Mol-Kelvin
 Total                    3.132              7.608             51.297
 Electronic               0.000              0.000              1.377
 Translational            0.889              2.981             35.068
 Rotational               0.592              1.987             13.367
 Vibrational              1.651              2.640              1.484
 Vibration     1          0.826              1.320              0.742
 Vibration     2          0.826              1.320              0.742

 Normal termination of Gaussian 16 at Fri Aug 22 17:38:28 2025.
