 Gaussian 16, Revision C.01,
 Gaussian 16:  ES64L-G16RevC.01  3-Jul-2019

 -----------------------------------------
 # sp b3lyp/6-311g** Force nosymm scf=(qc)
 -----------------------------------------

 -------------------
 Title Card Required
 -------------------
 Symbolic Z-matrix:
 Charge =  0 Multiplicity = 2

                          Input orientation:
 ---------------------------------------------------------------------
 Center     Atomic      Atomic             Coordinates (Angstroms)
 Number     Number       Type             X           Y           Z
 ---------------------------------------------------------------------
      1          1           0        0.000000    0.000000    0.000000
      2          1           0       -2.900000    0.000000    0.000000
      3          9           0        3.300000    0.000000    0.000000
 ---------------------------------------------------------------------

 SCF Done:  E(UB3LYP) =  -100.760821174     a.u. after   24 cycles

 Alpha  occ. eigenvalues --  -24.75007  -1.20998  -0.54128  -0.45447  -0.45447
 Alpha  occ. eigenvalues --   -0.32570
 Alpha virt. eigenvalues --   -0.08622   0.25027   0.35246   0.88319   0.91715
 Alpha virt. eigenvalues --    0.91715   1.02454   1.24979   1.24979   1.25931
 Alpha virt. eigenvalues --    1.42995   1.42995   1.43197   2.15757   2.39068

  Beta  occ. eigenvalues --  -24.71918  -1.12129  -0.42353  -0.42353  -0.33167
  Beta virt. eigenvalues --   -0.25289  -0.07819   0.24843   0.36399   0.93196
  Beta virt. eigenvalues --    0.93196   0.97335   1.06406   1.24277   1.24277
  Beta virt. eigenvalues --    1.25161   1.44282   1.44282   1.44399   2.16283

 Mulliken charges and spin densities:
               1          2
     1  H    0.017571  -0.969463
     2  H    0.001253   0.990258
     3  F   -0.018824   0.979205
 Sum of Mulliken charges =  -0.00000   1.00000

 Dipole moment (field-independent basis, Debye):
    X=             -0.3365    Y=             -0.0000    Z=              0.0000  Tot=              0.3365
 Quadrupole moment (field-independent basis, Debye-Ang):
   XX=             -7.5999   YY=             -7.6356   ZZ=             -7.6356
   XY=             -0.0000   XZ=              0.0000   YZ=             -0.0000

  Exact polarizability:      32.112      -0.000       2.025       0.000       0.000       2.025
 Approx polarizability:      26.790      -0.000       1.928       0.000      -0.000       1.928

 ******    2 imaginary frequencies (negative Signs) ******

                      1                      2                      3
                      A                      A                      A
 Frequencies --   -422.2657              -162.8351               150.2729
 Red. masses --      1.0126                 1.1028                 1.0165
 Frc consts  --      0.1064                 0.0172                 0.0135
 IR Inten    --     14.5784                 6.9232                 0.2607

                      4
                      A
 Frequencies --    150.2729
 Red. masses --      1.0165
 Frc consts  --      0.0135
 IR Inten    --      0.2607

 - Thermochemistry -
 -------------------
 Temperature   298.150 Kelvin.  Pressure   1.00000 Atm.
 Atom     1 has atomic number  1 and mass   1.00783

 Molecular mass:    21.01405 amu.
 Principal axes and moments of inertia in atomic units:
                           1         2         3
     Eigenvalues --     0.00000 161.96132 161.96132
           X            1.00000  -0.00000   0.00000
           Y            0.00000   1.00000   0.00000
           Z            0.00000   0.00000   1.00000
 This molecule is a prolate symmetric top.
 Rotational symmetry number  1.
 Rotational temperature (Kelvin)      0.53478
 Rotational constant (GHZ):          11.143039
    2 imaginary frequencies ignored.
 Zero-point vibrational energy       1797.7 (Joules/Mol)
                                    0.42965 (Kcal/Mol)
 Warning -- explicit consideration of   2 degrees of freedom as
           vibrations may cause significant error
 Vibrational temperatures:    216.21   216.21
          (Kelvin)

 Zero-point correction=                           0.000685 (Hartree/Particle)
 Thermal correction to Energy=                    0.004331
 Thermal correction to Enthalpy=                  0.005275
 Thermal correction to Gibbs Free Energy=        -0.021492
 Sum of electronic and zero-point Energies=           -100.760136
 Sum of electronic and thermal Energies=              -100.756490
 Sum of electronic and thermal Enthalpies=            -100.755546
 Sum of electronic and thermal Free Energies=         -100.782313

                     E (Thermal)             CV                S
                      KCal/Mol        Cal/Mol-Kelvin    Cal/Mol-Kelvin
 Total                    2.718              8.773             56.336
 Electronic               0.000              0.000              1.377
 Translational            0.889              2.981             35.068
 Rotational               0.592              1.987             14.553
 Vibrational              1.236              3.805              5.338
 Vibration     1          0.618              1.902              2.669
 Vibration     2          0.618              1.902              2.669

 Normal termination of Gaussian 16 at Fri Aug 22 20:49:19 2025.
