 Gaussian 16, Revision C.01,
 Gaussian 16:  ES64L-G16RevC.01  3-Jul-2019

 -----------------------------------------
 # sp b3lyp/6-311g** Force nosymm scf=(qc)
 -----------------------------------------

 -------------------
 Title Card Required
 -------------------
 Symbolic Z-matrix:
 Charge =  0 Multiplicity = 2

                          Input orientation:
 ---------------------------------------------------------------------
 Center     Atomic      Atomic             Coordinates (Angstroms)
 Number     Number       Type             X           Y           Z
 ---------------------------------------------------------------------
      1          1           0        0.000000    0.000000    0.000000
      2          1           0       -2.750000    0.000000    0.000000
      3          9           0        3.400000    0.000000    0.000000
 ---------------------------------------------------------------------

 SCF Done:  E(UB3LYP) =  -100.761228407     a.u. after   26 cycles

 Alpha  occ. eigenvalues --  -24.75239  -1.21213  -0.54361  -0.45643  -0.45643
 Alpha  occ. eigenvalues --   -0.32586
 Alpha virt. eigenvalues --   -0.08886   0.25313   0.34938   0.87950   0.91571
 Alpha virt. eigenvalues --    0.91571   1.02089   1.24990   1.24990   1.26272
 Alpha virt. eigenvalues --    1.42533   1.42533   1.43015   2.15915   2.38394

  Beta  occ. eigenvalues --  -24.72136  -1.12298  -0.42533  -0.42533  -0.33041
  Beta virt. eigenvalues --   -0.25414  -0.08239   0.25112   0.35885   0.93057
  Beta virt. eigenvalues --    0.93057   0.97045   1.06087   1.24452   1.24452
  Beta virt. eigenvalues --    1.25654   1.43561   1.43561   1.44030   2.16427

 Mulliken charges and spin densities:
               1          2
     1  H    0.012920  -0.969262
     2  H    0.001517   0.985288
     3  F   -0.014437   0.983974
 Sum of Mulliken charges =  -0.00000   1.00000

 Dipole moment (field-independent basis, Debye):
    X=             -0.2721    Y=             -0.0000    Z=             -0.0000  Tot=              0.2721
 Quadrupole moment (field-independent basis, Debye-Ang):
   XX=             -7.3793   YY=             -7.6453   ZZ=             -7.6453
   XY=              0.0000   XZ=              0.0000   YZ=              0.0000

  Exact polarizability:      31.677       0.000       2.025       0.000      -0.000       2.025
 Approx polarizability:      24.979       0.000       1.929       0.000      -0.000       1.929

 ******    2 imaginary frequencies (negative Signs) ******

                      1                      2                      3
                      A                      A                      A
 Frequencies --   -487.3354              -151.4109               174.5948
 Red. masses --      1.0092                 1.1069                 1.0156
 Frc consts  --      0.1412                 0.0150                 0.0182
 IR Inten    --      9.3010                 6.9796                 0.1330

                      4
                      A
 Frequencies --    174.5948
 Red. masses --      1.0156
 Frc consts  --      0.0182
 IR Inten    --      0.1330

 - Thermochemistry -
 -------------------
 Temperature   298.150 Kelvin.  Pressure   1.00000 Atm.
 Atom     1 has atomic number  1 and mass   1.00783

 Molecular mass:    21.01405 amu.
 Principal axes and moments of inertia in atomic units:
                           1         2         3
     Eigenvalues --     0.00000 161.98586 161.98586
           X            1.00000  -0.00000   0.00000
           Y            0.00000   1.00000   0.00000
           Z            0.00000   0.00000   1.00000
 This molecule is a prolate symmetric top.
 Rotational symmetry number  1.
 Rotational temperature (Kelvin)      0.53470
 Rotational constant (GHZ):          11.141350
    2 imaginary frequencies ignored.
 Zero-point vibrational energy       2088.6 (Joules/Mol)
                                    0.49919 (Kcal/Mol)
 Warning -- explicit consideration of   2 degrees of freedom as
           vibrations may cause significant error
 Vibrational temperatures:    251.20   251.20
          (Kelvin)

 Zero-point correction=                           0.000796 (Hartree/Particle)
 Thermal correction to Energy=                    0.004359
 Thermal correction to Enthalpy=                  0.005303
 Thermal correction to Gibbs Free Energy=        -0.021195
 Sum of electronic and zero-point Energies=           -100.760433
 Sum of electronic and thermal Energies=              -100.756869
 Sum of electronic and thermal Enthalpies=            -100.755925
 Sum of electronic and thermal Free Energies=         -100.782423

                     E (Thermal)             CV                S
                      KCal/Mol        Cal/Mol-Kelvin    Cal/Mol-Kelvin
 Total                    2.735              8.715             55.770
 Electronic               0.000              0.000              1.377
 Translational            0.889              2.981             35.068
 Rotational               0.592              1.987             14.554
 Vibrational              1.254              3.747              4.771
 Vibration     1          0.627              1.874              2.385
 Vibration     2          0.627              1.874              2.385

 Normal termination of Gaussian 16 at Fri Aug 22 21:17:43 2025.
