 Gaussian 16, Revision C.01,
 Gaussian 16:  ES64L-G16RevC.01  3-Jul-2019

 -----------------------------------------
 # sp b3lyp/6-311g** Force nosymm scf=(qc)
 -----------------------------------------

 -------------------
 Title Card Required
 -------------------
 Symbolic Z-matrix:
 Charge =  0 Multiplicity = 2

                          Input orientation:
 ---------------------------------------------------------------------
 Center     Atomic      Atomic             Coordinates (Angstroms)
 Number     Number       Type             X           Y           Z
 ---------------------------------------------------------------------
      1          1           0        0.000000    0.000000    0.000000
      2          1           0       -0.900000    0.000000    0.000000
      3          9           0        3.700000    0.000000    0.000000
 ---------------------------------------------------------------------

 SCF Done:  E(UB3LYP) =  -100.921906333     a.u. after  111 cycles

 Alpha  occ. eigenvalues --  -24.76270  -1.22151  -0.55353  -0.46537  -0.46508
 Alpha  occ. eigenvalues --   -0.40407
 Alpha virt. eigenvalues --    0.02614   0.20760   0.41567   0.86033   0.90910
 Alpha virt. eigenvalues --    0.92034   1.01276   1.08381   1.08383   1.45385
 Alpha virt. eigenvalues --    1.72267   1.72270   2.17285   2.37371   2.74188

  Beta  occ. eigenvalues --  -24.73114  -1.13075  -0.43376  -0.43344  -0.40403
  Beta virt. eigenvalues --   -0.25998   0.02621   0.20766   0.41598   0.92410
  Beta virt. eigenvalues --    0.93530   0.95498   1.05394   1.08380   1.08383
  Beta virt. eigenvalues --    1.45389   1.72267   1.72270   2.17293   2.37372

 Mulliken charges and spin densities:
               1          2
     1  H   -0.000016  -0.000215
     2  H   -0.002238  -0.000036
     3  F    0.002254   1.000251
 Sum of Mulliken charges =   0.00000   1.00000

 Dipole moment (field-independent basis, Debye):
    X=              0.0332    Y=             -0.0000    Z=             -0.0000  Tot=              0.0332
 Quadrupole moment (field-independent basis, Debye-Ang):
   XX=             -6.2845   YY=             -6.2865   ZZ=             -7.1505
   XY=              0.0000   XZ=              0.0000   YZ=              0.0134

  Exact polarizability:      10.373       0.000       2.491      -0.000       0.007       2.026
 Approx polarizability:      12.903       0.000       2.671       0.000       0.009       2.089

 ******    1 imaginary frequencies (negative Signs) ******

                      1                      2                      3
                      A                      A                      A
 Frequencies --    -60.0907              1453.1919              1454.0209
 Red. masses --      1.1085                 1.0090                 1.0090
 Frc consts  --      0.0024                 1.2554                 1.2568
 IR Inten    --      0.0882                 0.0001                 0.0001

                      4
                      A
 Frequencies --   2642.3990
 Red. masses --      1.0078
 Frc consts  --      4.1460
 IR Inten    --      0.0650

 - Thermochemistry -
 -------------------
 Temperature   298.150 Kelvin.  Pressure   1.00000 Atm.
 Atom     1 has atomic number  1 and mass   1.00783

 Molecular mass:    21.01405 amu.
 Principal axes and moments of inertia in atomic units:
                           1         2         3
     Eigenvalues --     0.00000 113.53456 113.53456
           X            1.00000  -0.00000   0.00000
           Y            0.00000   1.00000   0.00000
           Z            0.00000   0.00000   1.00000
 This molecule is a prolate symmetric top.
 Rotational symmetry number  1.
 Rotational temperature (Kelvin)      0.76289
 Rotational constant (GHZ):          15.895964
    1 imaginary frequencies ignored.
 Zero-point vibrational energy      33194.0 (Joules/Mol)
                                    7.93357 (Kcal/Mol)
 Vibrational temperatures:   2090.82  2092.01  3801.82
          (Kelvin)

 Zero-point correction=                           0.012643 (Hartree/Particle)
 Thermal correction to Energy=                    0.015015
 Thermal correction to Enthalpy=                  0.015960
 Thermal correction to Gibbs Free Energy=        -0.007950
 Sum of electronic and zero-point Energies=           -100.909263
 Sum of electronic and thermal Energies=              -100.906891
 Sum of electronic and thermal Enthalpies=            -100.905947
 Sum of electronic and thermal Free Energies=         -100.929856

                     E (Thermal)             CV                S
                      KCal/Mol        Cal/Mol-Kelvin    Cal/Mol-Kelvin
 Total                    9.422              5.145             50.321
 Electronic               0.000              0.000              1.377
 Translational            0.889              2.981             35.068
 Rotational               0.592              1.987             13.847
 Vibrational              7.941              0.177              0.029

 Normal termination of Gaussian 16 at Fri Aug 22 23:43:08 2025.
