 Gaussian 16, Revision C.01,
 Gaussian 16:  ES64L-G16RevC.01  3-Jul-2019

 -----------------------------------------
 # sp b3lyp/6-311g** Force nosymm scf=(qc)
 -----------------------------------------

 -------------------
 Title Card Required
 -------------------
 Symbolic Z-matrix:
 Charge =  0 Multiplicity = 2

                          Input orientation:
 ---------------------------------------------------------------------
 Center     Atomic      Atomic             Coordinates (Angstroms)
 Number     Number       Type             X           Y           Z
 ---------------------------------------------------------------------
      1          1           0        0.000000    0.000000    0.000000
      2          1           0       -0.650000    0.000000    0.000000
      3          9           0        0.850000    0.000000    0.000000
 ---------------------------------------------------------------------

 SCF Done:  E(UB3LYP) =  -100.858448218     a.u. after    6 cycles

 Alpha  occ. eigenvalues --  -24.67238  -1.26616  -0.67607  -0.43449  -0.43449
 Alpha  occ. eigenvalues --   -0.32063
 Alpha virt. eigenvalues --    0.15617   0.17805   0.70689   0.86357   0.86357
 Alpha virt. eigenvalues --    0.93313   1.10743   1.10743   1.44320   1.72655
 Alpha virt. eigenvalues --    1.83863   1.83863   1.96015   2.69299   3.77493

  Beta  occ. eigenvalues --  -24.65926  -1.23141  -0.61227  -0.42291  -0.42291
  Beta virt. eigenvalues --   -0.14132   0.17573   0.19939   0.75657   0.88417
  Beta virt. eigenvalues --    0.88417   0.95978   1.15267   1.15267   1.46484
  Beta virt. eigenvalues --    1.80028   1.88731   1.88731   1.99177   2.76008

 Mulliken charges and spin densities:
               1          2
     1  H    0.274957  -0.028768
     2  H   -0.079217   0.746131
     3  F   -0.195740   0.282637
 Sum of Mulliken charges =   0.00000   1.00000

 Dipole moment (field-independent basis, Debye):
    X=             -1.1229    Y=              0.0000    Z=              0.0000  Tot=              1.1229
 Quadrupole moment (field-independent basis, Debye-Ang):
   XX=             -7.4636   YY=             -6.4432   ZZ=             -6.4432
   XY=              0.0000   XZ=              0.0000   YZ=             -0.0000

  Exact polarizability:      10.568      -0.000       2.518      -0.000       0.000       2.518
 Approx polarizability:      11.575      -0.000       2.598      -0.000       0.000       2.598

 ******    2 imaginary frequencies (negative Signs) ******

                      1                      2                      3
                      A                      A                      A
 Frequencies --  -3400.9254             -3400.9254              3480.4878
 Red. masses --      1.0150                 1.0150                 1.1004
 Frc consts  --      6.9170                 6.9170                 7.8537
 IR Inten    --     60.5542                60.5542               164.3231

                      4
                      A
 Frequencies --   6498.8628
 Red. masses --      1.0146
 Frc consts  --     25.2486
 IR Inten    --      0.6856

 - Thermochemistry -
 -------------------
 Temperature   298.150 Kelvin.  Pressure   1.00000 Atm.
 Atom     1 has atomic number  1 and mass   1.00783

 Molecular mass:    21.01405 amu.
 Principal axes and moments of inertia in atomic units:
                           1         2         3
     Eigenvalues --     0.00000   9.74483   9.74483
           X            1.00000  -0.00000   0.00000
           Y            0.00000   1.00000   0.00000
           Z            0.00000   0.00000   1.00000
 This molecule is a prolate symmetric top.
 Rotational symmetry number  1.
 Rotational temperature (Kelvin)      8.88819
 Rotational constant (GHZ):         185.199843
    2 imaginary frequencies ignored.
 Zero-point vibrational energy      59689.8 (Joules/Mol)
                                   14.26620 (Kcal/Mol)
 Vibrational temperatures:   5007.65  9350.41
          (Kelvin)

 Zero-point correction=                           0.022735 (Hartree/Particle)
 Thermal correction to Energy=                    0.025095
 Thermal correction to Enthalpy=                  0.026039
 Thermal correction to Gibbs Free Energy=         0.004462
 Sum of electronic and zero-point Energies=           -100.835714
 Sum of electronic and thermal Energies=              -100.833353
 Sum of electronic and thermal Enthalpies=            -100.832409
 Sum of electronic and thermal Free Energies=         -100.853986

                     E (Thermal)             CV                S
                      KCal/Mol        Cal/Mol-Kelvin    Cal/Mol-Kelvin
 Total                   15.747              4.968             45.413
 Electronic               0.000              0.000              1.377
 Translational            0.889              2.981             35.068
 Rotational               0.592              1.987              8.968
 Vibrational             14.266              0.000              0.000

 Normal termination of Gaussian 16 at Fri Aug 22 15:52:31 2025.
