 Gaussian 16, Revision C.01,
 Gaussian 16:  ES64L-G16RevC.01  3-Jul-2019

 -----------------------------------------
 # sp b3lyp/6-311g** Force nosymm scf=(qc)
 -----------------------------------------

 -------------------
 Title Card Required
 -------------------
 Symbolic Z-matrix:
 Charge =  0 Multiplicity = 2

                          Input orientation:
 ---------------------------------------------------------------------
 Center     Atomic      Atomic             Coordinates (Angstroms)
 Number     Number       Type             X           Y           Z
 ---------------------------------------------------------------------
      1          1           0        0.000000    0.000000    0.000000
      2          1           0       -3.950000    0.000000    0.000000
      3          9           0        2.850000    0.000000    0.000000
 ---------------------------------------------------------------------

 SCF Done:  E(UB3LYP) =  -100.762057982     a.u. after   21 cycles

 Alpha  occ. eigenvalues --  -24.73488  -1.19592  -0.52606  -0.44175  -0.44175
 Alpha  occ. eigenvalues --   -0.32529
 Alpha virt. eigenvalues --   -0.08315   0.23788   0.36064   0.89736   0.92631
 Alpha virt. eigenvalues --    0.92631   1.04727   1.24968   1.24968   1.24989
 Alpha virt. eigenvalues --    1.43341   1.43341   1.44774   2.14295   2.40315

  Beta  occ. eigenvalues --  -24.70503  -1.11050  -0.41190  -0.41190  -0.34128
  Beta virt. eigenvalues --   -0.24426  -0.05980   0.23778   0.38125   0.94077
  Beta virt. eigenvalues --    0.94077   0.98101   1.08204   1.23179   1.23179
  Beta virt. eigenvalues --    1.24291   1.46577   1.46711   1.46711   2.13966

 Mulliken charges and spin densities:
               1          2
     1  H    0.049563  -0.944624
     2  H    0.000173   0.999320
     3  F   -0.049736   0.945304
 Sum of Mulliken charges =  -0.00000   1.00000

 Dipole moment (field-independent basis, Debye):
    X=             -0.7301    Y=              0.0000    Z=             -0.0000  Tot=              0.7301
 Quadrupole moment (field-independent basis, Debye-Ang):
   XX=             -8.6578   YY=             -7.5970   ZZ=             -7.5970
   XY=              0.0000   XZ=             -0.0000   YZ=             -0.0000

  Exact polarizability:      31.285       0.000       2.026      -0.000       0.000       2.026
 Approx polarizability:      34.720       0.000       1.924      -0.000       0.000       1.924

 ******    2 imaginary frequencies (negative Signs) ******

                      1                      2                      3
                      A                      A                      A
 Frequencies --   -424.8501               -72.9556               153.0857
 Red. masses --      1.0552                 1.0564                 1.0223
 Frc consts  --      0.1122                 0.0033                 0.0141
 IR Inten    --     51.0040                 0.0644                 2.3854

                      4
                      A
 Frequencies --    153.0857
 Red. masses --      1.0223
 Frc consts  --      0.0141
 IR Inten    --      2.3854

 - Thermochemistry -
 -------------------
 Temperature   298.150 Kelvin.  Pressure   1.00000 Atm.
 Atom     1 has atomic number  1 and mass   1.00783

 Molecular mass:    21.01405 amu.
 Principal axes and moments of inertia in atomic units:
                           1         2         3
     Eigenvalues --     0.00000 179.57751 179.57751
           X            1.00000  -0.00000   0.00000
           Y            0.00000   1.00000   0.00000
           Z            0.00000   0.00000   1.00000
 This molecule is a prolate symmetric top.
 Rotational symmetry number  1.
 Rotational temperature (Kelvin)      0.48232
 Rotational constant (GHZ):          10.049929
    2 imaginary frequencies ignored.
 Zero-point vibrational energy       1831.3 (Joules/Mol)
                                    0.43769 (Kcal/Mol)
 Warning -- explicit consideration of   2 degrees of freedom as
           vibrations may cause significant error
 Vibrational temperatures:    220.26   220.26
          (Kelvin)

 Zero-point correction=                           0.000698 (Hartree/Particle)
 Thermal correction to Energy=                    0.004334
 Thermal correction to Enthalpy=                  0.005278
 Thermal correction to Gibbs Free Energy=        -0.021553
 Sum of electronic and zero-point Energies=           -100.761360
 Sum of electronic and thermal Energies=              -100.757724
 Sum of electronic and thermal Enthalpies=            -100.756780
 Sum of electronic and thermal Free Energies=         -100.783611

                     E (Thermal)             CV                S
                      KCal/Mol        Cal/Mol-Kelvin    Cal/Mol-Kelvin
 Total                    2.720              8.766             56.471
 Electronic               0.000              0.000              1.377
 Translational            0.889              2.981             35.068
 Rotational               0.592              1.987             14.758
 Vibrational              1.238              3.798              5.267
 Vibration     1          0.619              1.899              2.634
 Vibration     2          0.619              1.899              2.634

 Normal termination of Gaussian 16 at Fri Aug 22 18:55:23 2025.
