 Gaussian 16, Revision C.01,
 Gaussian 16:  ES64L-G16RevC.01  3-Jul-2019

 -----------------------------------------
 # sp b3lyp/6-311g** Force nosymm scf=(qc)
 -----------------------------------------

 -------------------
 Title Card Required
 -------------------
 Symbolic Z-matrix:
 Charge =  0 Multiplicity = 2

                          Input orientation:
 ---------------------------------------------------------------------
 Center     Atomic      Atomic             Coordinates (Angstroms)
 Number     Number       Type             X           Y           Z
 ---------------------------------------------------------------------
      1          1           0        0.000000    0.000000    0.000000
      2          1           0       -1.250000    0.000000    0.000000
      3          9           0        1.550000    0.000000    0.000000
 ---------------------------------------------------------------------

 SCF Done:  E(UB3LYP) =  -100.892681044     a.u. after   13 cycles

 Alpha  occ. eigenvalues --  -24.67250  -1.14103  -0.49749  -0.39542  -0.39262
 Alpha  occ. eigenvalues --   -0.39262
 Alpha virt. eigenvalues --   -0.03123   0.20387   0.30939   0.91962   0.91962
 Alpha virt. eigenvalues --    0.98445   1.06144   1.10704   1.10704   1.49430
 Alpha virt. eigenvalues --    1.49430   1.53479   2.03445   2.23961   2.50079

  Beta  occ. eigenvalues --  -24.65235  -1.08615  -0.41828  -0.37312  -0.37312
  Beta virt. eigenvalues --   -0.23067  -0.00119   0.22666   0.32159   0.92524
  Beta virt. eigenvalues --    0.92524   1.04054   1.09044   1.14800   1.14800
  Beta virt. eigenvalues --    1.51232   1.51232   1.57703   2.07085   2.27748

 Mulliken charges and spin densities:
               1          2
     1  H    0.180440  -0.179269
     2  H    0.068436   0.558678
     3  F   -0.248875   0.620592
 Sum of Mulliken charges =   0.00000   1.00000

 Dipole moment (field-independent basis, Debye):
    X=             -2.2894    Y=             -0.0000    Z=              0.0000  Tot=              2.2894
 Quadrupole moment (field-independent basis, Debye-Ang):
   XX=             -7.7378   YY=             -7.1919   ZZ=             -7.1919
   XY=             -0.0000   XZ=              0.0000   YZ=              0.0000

  Exact polarizability:      35.280      -0.000       2.330       0.000       0.000       2.330
 Approx polarizability:      54.155      -0.000       2.290       0.000      -0.000       2.290

 ******    1 imaginary frequencies (negative Signs) ******

                      1                      2                      3
                      A                      A                      A
 Frequencies --  -2533.8983               152.2412              1212.6330
 Red. masses --      1.0221                 1.0917                 1.0155
 Frc consts  --      3.8667                 0.0149                 0.8798
 IR Inten    --    953.5590                14.7574                 9.9089

                      4
                      A
 Frequencies --   1212.6330
 Red. masses --      1.0155
 Frc consts  --      0.8798
 IR Inten    --      9.9089

 - Thermochemistry -
 -------------------
 Temperature   298.150 Kelvin.  Pressure   1.00000 Atm.
 Atom     1 has atomic number  1 and mass   1.00783

 Molecular mass:    21.01405 amu.
 Principal axes and moments of inertia in atomic units:
                           1         2         3
     Eigenvalues --     0.00000  33.59669  33.59669
           X            1.00000  -0.00000   0.00000
           Y            0.00000   1.00000   0.00000
           Z            0.00000   0.00000   1.00000
 This molecule is a prolate symmetric top.
 Rotational symmetry number  1.
 Rotational temperature (Kelvin)      2.57805
 Rotational constant (GHZ):          53.717827
    1 imaginary frequencies ignored.
 Zero-point vibrational energy      15416.9 (Joules/Mol)
                                    3.68473 (Kcal/Mol)
 Warning -- explicit consideration of   1 degrees of freedom as
           vibrations may cause significant error
 Vibrational temperatures:    219.04  1744.71  1744.71
          (Kelvin)

 Zero-point correction=                           0.005872 (Hartree/Particle)
 Thermal correction to Energy=                    0.008904
 Thermal correction to Enthalpy=                  0.009848
 Thermal correction to Gibbs Free Energy=        -0.014192
 Sum of electronic and zero-point Energies=           -100.886809
 Sum of electronic and thermal Energies=              -100.883777
 Sum of electronic and thermal Enthalpies=            -100.882833
 Sum of electronic and thermal Free Energies=         -100.906873

                     E (Thermal)             CV                S
                      KCal/Mol        Cal/Mol-Kelvin    Cal/Mol-Kelvin
 Total                    5.587              7.262             50.596
 Electronic               0.000              0.000              1.377
 Translational            0.889              2.981             35.068
 Rotational               0.592              1.987             11.428
 Vibrational              4.106              2.294              2.723
 Vibration     1          0.619              1.900              2.644

 Normal termination of Gaussian 16 at Fri Aug 22 16:27:35 2025.
