 Gaussian 16, Revision C.01,
 Gaussian 16:  ES64L-G16RevC.01  3-Jul-2019

 -----------------------------------------
 # sp b3lyp/6-311g** Force nosymm scf=(qc)
 -----------------------------------------

 -------------------
 Title Card Required
 -------------------
 Symbolic Z-matrix:
 Charge =  0 Multiplicity = 2

                          Input orientation:
 ---------------------------------------------------------------------
 Center     Atomic      Atomic             Coordinates (Angstroms)
 Number     Number       Type             X           Y           Z
 ---------------------------------------------------------------------
      1          1           0        0.000000    0.000000    0.000000
      2          1           0       -3.000000    0.000000    0.000000
      3          9           0        2.000000    0.000000    0.000000
 ---------------------------------------------------------------------

 SCF Done:  E(UB3LYP) =  -100.788041977     a.u. after   16 cycles

 Alpha  occ. eigenvalues --  -24.68214  -1.14532  -0.47195  -0.39745  -0.39745
 Alpha  occ. eigenvalues --   -0.33941
 Alpha virt. eigenvalues --   -0.13722   0.22973   0.31626   0.89245   0.94873
 Alpha virt. eigenvalues --    0.94873   1.05952   1.23605   1.23605   1.24363
 Alpha virt. eigenvalues --    1.35352   1.35352   1.60465   2.14304   2.29603

  Beta  occ. eigenvalues --  -24.65843  -1.07903  -0.37891  -0.37408  -0.37408
  Beta virt. eigenvalues --   -0.20767  -0.08180   0.23476   0.36744   0.90869
  Beta virt. eigenvalues --    0.95513   0.95513   1.08345   1.22049   1.22049
  Beta virt. eigenvalues --    1.43756   1.44272   1.44272   1.53917   2.12705

 Mulliken charges and spin densities:
               1          2
     1  H    0.187717  -0.737412
     2  H    0.005619   0.991622
     3  F   -0.193336   0.745790
 Sum of Mulliken charges =  -0.00000   1.00000

 Dipole moment (field-independent basis, Debye):
    X=             -1.9920    Y=             -0.0000    Z=              0.0000  Tot=              1.9920
 Quadrupole moment (field-independent basis, Debye-Ang):
   XX=             -9.8215   YY=             -7.5001   ZZ=             -7.5001
   XY=              0.0000   XZ=             -0.0000   YZ=              0.0000

  Exact polarizability:      29.486      -0.000       2.060      -0.000      -0.000       2.060
 Approx polarizability:      39.780       0.000       1.948      -0.000       0.000       1.948

 ******    2 imaginary frequencies (negative Signs) ******

                      1                      2                      3
                      A                      A                      A
 Frequencies --  -1145.7704              -218.7603               482.0154
 Red. masses --      1.0542                 1.0574                 1.0235
 Frc consts  --      0.8154                 0.0298                 0.1401
 IR Inten    --    115.0040                 2.2946                31.6995

                      4
                      A
 Frequencies --    482.0154
 Red. masses --      1.0235
 Frc consts  --      0.1401
 IR Inten    --     31.6995

 - Thermochemistry -
 -------------------
 Temperature   298.150 Kelvin.  Pressure   1.00000 Atm.
 Atom     1 has atomic number  1 and mass   1.00783

 Molecular mass:    21.01405 amu.
 Principal axes and moments of inertia in atomic units:
                           1         2         3
     Eigenvalues --     0.00000  95.91351  95.91351
           X            1.00000  -0.00000   0.00000
           Y            0.00000   1.00000   0.00000
           Z            0.00000   0.00000   1.00000
 This molecule is a prolate symmetric top.
 Rotational symmetry number  1.
 Rotational temperature (Kelvin)      0.90304
 Rotational constant (GHZ):          18.816340
    2 imaginary frequencies ignored.
 Zero-point vibrational energy       5766.2 (Joules/Mol)
                                    1.37815 (Kcal/Mol)
 Warning -- explicit consideration of   2 degrees of freedom as
           vibrations may cause significant error
 Vibrational temperatures:    693.51   693.51
          (Kelvin)

 Zero-point correction=                           0.002196 (Hartree/Particle)
 Thermal correction to Energy=                    0.005032
 Thermal correction to Enthalpy=                  0.005976
 Thermal correction to Gibbs Free Energy=        -0.018430
 Sum of electronic and zero-point Energies=           -100.785846
 Sum of electronic and thermal Energies=              -100.783010
 Sum of electronic and thermal Enthalpies=            -100.782066
 Sum of electronic and thermal Free Energies=         -100.806472

                     E (Thermal)             CV                S
                      KCal/Mol        Cal/Mol-Kelvin    Cal/Mol-Kelvin
 Total                    3.158              7.548             51.367
 Electronic               0.000              0.000              1.377
 Translational            0.889              2.981             35.068
 Rotational               0.592              1.987             13.512
 Vibrational              1.677              2.580              1.409
 Vibration     1          0.838              1.290              0.705
 Vibration     2          0.838              1.290              0.705

 Normal termination of Gaussian 16 at Fri Aug 22 16:57:21 2025.
