 Gaussian 16, Revision C.01,
 Gaussian 16:  ES64L-G16RevC.01  3-Jul-2019

 -----------------------------------------
 # sp b3lyp/6-311g** Force nosymm scf=(qc)
 -----------------------------------------

 -------------------
 Title Card Required
 -------------------
 Symbolic Z-matrix:
 Charge =  0 Multiplicity = 2

                          Input orientation:
 ---------------------------------------------------------------------
 Center     Atomic      Atomic             Coordinates (Angstroms)
 Number     Number       Type             X           Y           Z
 ---------------------------------------------------------------------
      1          1           0        0.000000    0.000000    0.000000
      2          1           0       -2.500000    0.000000    0.000000
      3          9           0        1.650000    0.000000    0.000000
 ---------------------------------------------------------------------

 SCF Done:  E(UB3LYP) =  -100.827741988     a.u. after   15 cycles

 Alpha  occ. eigenvalues --  -24.65086  -1.11029  -0.43871  -0.37010  -0.37010
 Alpha  occ. eigenvalues --   -0.35691
 Alpha virt. eigenvalues --   -0.14512   0.23190   0.27935   0.94587   0.94587
 Alpha virt. eigenvalues --    0.98846   1.07122   1.21891   1.21891   1.24690
 Alpha virt. eigenvalues --    1.33018   1.33018   1.74709   2.12879   2.23182

  Beta  occ. eigenvalues --  -24.63810  -1.07576  -0.40435  -0.35779  -0.35779
  Beta virt. eigenvalues --   -0.18191  -0.09317   0.24197   0.34861   0.94301
  Beta virt. eigenvalues --    0.94301   1.00138   1.08153   1.26737   1.26737
  Beta virt. eigenvalues --    1.41324   1.41324   1.42639   1.72094   2.14067

 Mulliken charges and spin densities:
               1          2
     1  H    0.290445  -0.374645
     2  H    0.021034   0.972565
     3  F   -0.311479   0.402079
 Sum of Mulliken charges =   0.00000   1.00000

 Dipole moment (field-independent basis, Debye):
    X=             -2.7567    Y=              0.0000    Z=              0.0000  Tot=              2.7567
 Quadrupole moment (field-independent basis, Debye-Ang):
   XX=             -9.5111   YY=             -7.4048   ZZ=             -7.4048
   XY=              0.0000   XZ=              0.0000   YZ=             -0.0000

  Exact polarizability:      29.700       0.000       2.143       0.000       0.000       2.143
 Approx polarizability:      41.796       0.000       2.051       0.000       0.000       2.051

 ******    2 imaginary frequencies (negative Signs) ******

                      1                      2                      3
                      A                      A                      A
 Frequencies --  -1853.6281              -337.0689               825.7073
 Red. masses --      1.0513                 1.0603                 1.0237
 Frc consts  --      2.1282                 0.0710                 0.4112
 IR Inten    --     51.4840                 8.7700                70.8577

                      4
                      A
 Frequencies --    825.7073
 Red. masses --      1.0237
 Frc consts  --      0.4112
 IR Inten    --     70.8577

 - Thermochemistry -
 -------------------
 Temperature   298.150 Kelvin.  Pressure   1.00000 Atm.
 Atom     1 has atomic number  1 and mass   1.00783

 Molecular mass:    21.01405 amu.
 Principal axes and moments of inertia in atomic units:
                           1         2         3
     Eigenvalues --     0.00000  65.97573  65.97573
           X            1.00000  -0.00000   0.00000
           Y            0.00000   1.00000   0.00000
           Z            0.00000   0.00000   1.00000
 This molecule is a prolate symmetric top.
 Rotational symmetry number  1.
 Rotational temperature (Kelvin)      1.31281
 Rotational constant (GHZ):          27.354623
    2 imaginary frequencies ignored.
 Zero-point vibrational energy       9877.7 (Joules/Mol)
                                    2.36082 (Kcal/Mol)
 Vibrational temperatures:   1188.01  1188.01
          (Kelvin)

 Zero-point correction=                           0.003762 (Hartree/Particle)
 Thermal correction to Energy=                    0.006265
 Thermal correction to Enthalpy=                  0.007209
 Thermal correction to Gibbs Free Energy=        -0.016352
 Sum of electronic and zero-point Energies=           -100.823980
 Sum of electronic and thermal Energies=              -100.821477
 Sum of electronic and thermal Enthalpies=            -100.820533
 Sum of electronic and thermal Free Energies=         -100.844094

                     E (Thermal)             CV                S
                      KCal/Mol        Cal/Mol-Kelvin    Cal/Mol-Kelvin
 Total                    3.932              6.187             49.589
 Electronic               0.000              0.000              1.377
 Translational            0.889              2.981             35.068
 Rotational               0.592              1.987             12.769
 Vibrational              2.450              1.219              0.375

 Normal termination of Gaussian 16 at Fri Aug 22 16:34:46 2025.
