 Gaussian 16, Revision C.01,
 Gaussian 16:  ES64L-G16RevC.01  3-Jul-2019

 -----------------------------------------
 # sp b3lyp/6-311g** Force nosymm scf=(qc)
 -----------------------------------------

 -------------------
 Title Card Required
 -------------------
 Symbolic Z-matrix:
 Charge =  0 Multiplicity = 2

                          Input orientation:
 ---------------------------------------------------------------------
 Center     Atomic      Atomic             Coordinates (Angstroms)
 Number     Number       Type             X           Y           Z
 ---------------------------------------------------------------------
      1          1           0        0.000000    0.000000    0.000000
      2          1           0       -1.800000    0.000000    0.000000
      3          9           0        0.650000    0.000000    0.000000
 ---------------------------------------------------------------------

 SCF Done:  E(UB3LYP) =  -100.799054665     a.u. after    7 cycles

 Alpha  occ. eigenvalues --  -24.62862  -1.31309  -0.60024  -0.42297  -0.42297
 Alpha  occ. eigenvalues --   -0.35526
 Alpha virt. eigenvalues --    0.11805   0.23332   0.52551   0.92888   0.92888
 Alpha virt. eigenvalues --    0.95068   1.21337   1.21337   1.24400   1.47540
 Alpha virt. eigenvalues --    1.47540   1.58347   1.99838   2.17162   3.13733

  Beta  occ. eigenvalues --  -24.62810  -1.31158  -0.59776  -0.42262  -0.42262
  Beta virt. eigenvalues --   -0.10907   0.13201   0.33217   0.54912   0.92905
  Beta virt. eigenvalues --    0.92905   0.95198   1.32667   1.39411   1.39411
  Beta virt. eigenvalues --    1.49067   1.49067   1.66387   2.02291   2.41096

 Mulliken charges and spin densities:
               1          2
     1  H    0.236050   0.012746
     2  H    0.011641   0.980360
     3  F   -0.247690   0.006893
 Sum of Mulliken charges =   0.00000   1.00000

 Dipole moment (field-independent basis, Debye):
    X=             -1.5896    Y=              0.0000    Z=             -0.0000  Tot=              1.5896
 Quadrupole moment (field-independent basis, Debye-Ang):
   XX=             -6.8857   YY=             -6.5584   ZZ=             -6.5584
   XY=              0.0000   XZ=             -0.0000   YZ=             -0.0000

  Exact polarizability:       6.414       0.000       2.504      -0.000       0.000       2.504
 Approx polarizability:       6.228      -0.000       2.503      -0.000       0.000       2.503

 ******    2 imaginary frequencies (negative Signs) ******

                      1                      2                      3
                      A                      A                      A
 Frequencies --  -4508.5897             -4508.5897               513.0526
 Red. masses --      1.0333                 1.0333                 1.0533
 Frc consts  --     12.3756                12.3756                 0.1634
 IR Inten    --    179.8877               179.8877                 0.1076

                      4
                      A
 Frequencies --  10870.1132
 Red. masses --      1.0582
 Frc consts  --     73.6713
 IR Inten    --    133.6767

 - Thermochemistry -
 -------------------
 Temperature   298.150 Kelvin.  Pressure   1.00000 Atm.
 Atom     1 has atomic number  1 and mass   1.00783

 Molecular mass:    21.01405 amu.
 Principal axes and moments of inertia in atomic units:
                           1         2         3
     Eigenvalues --     0.00000  21.46488  21.46488
           X            1.00000  -0.00000   0.00000
           Y            0.00000   1.00000   0.00000
           Z            0.00000   0.00000   1.00000
 This molecule is a prolate symmetric top.
 Rotational symmetry number  1.
 Rotational temperature (Kelvin)      4.03515
 Rotational constant (GHZ):          84.078803
    2 imaginary frequencies ignored.
 Zero-point vibrational energy      68086.5 (Joules/Mol)
                                   16.27305 (Kcal/Mol)
 Warning -- explicit consideration of   1 degrees of freedom as
           vibrations may cause significant error
 Vibrational temperatures:    738.17 15639.67
          (Kelvin)

 Zero-point correction=                           0.025933 (Hartree/Particle)
 Thermal correction to Energy=                    0.028508
 Thermal correction to Enthalpy=                  0.029452
 Thermal correction to Gibbs Free Energy=         0.006831
 Sum of electronic and zero-point Energies=           -100.773122
 Sum of electronic and thermal Energies=              -100.770547
 Sum of electronic and thermal Enthalpies=            -100.769603
 Sum of electronic and thermal Free Energies=         -100.792223

                     E (Thermal)             CV                S
                      KCal/Mol        Cal/Mol-Kelvin    Cal/Mol-Kelvin
 Total                   17.889              6.189             47.609
 Electronic               0.000              0.000              1.377
 Translational            0.889              2.981             35.068
 Rotational               0.592              1.987             10.537
 Vibrational             16.408              1.221              0.626
 Vibration     1          0.868              1.221              0.626

 Normal termination of Gaussian 16 at Fri Aug 22 15:43:56 2025.
