 Gaussian 16, Revision C.01,
 Gaussian 16:  ES64L-G16RevC.01  3-Jul-2019

 -----------------------------------------
 # sp b3lyp/6-311g** Force nosymm scf=(qc)
 -----------------------------------------

 -------------------
 Title Card Required
 -------------------
 Symbolic Z-matrix:
 Charge =  0 Multiplicity = 2

                          Input orientation:
 ---------------------------------------------------------------------
 Center     Atomic      Atomic             Coordinates (Angstroms)
 Number     Number       Type             X           Y           Z
 ---------------------------------------------------------------------
      1          1           0        0.000000    0.000000    0.000000
      2          1           0       -1.400000    0.000000    0.000000
      3          9           0        1.100000    0.000000    0.000000
 ---------------------------------------------------------------------

 SCF Done:  E(UB3LYP) =  -100.952861715     a.u. after    6 cycles

 Alpha  occ. eigenvalues --  -24.63573  -1.13719  -0.51822  -0.37616  -0.37616
 Alpha  occ. eigenvalues --   -0.37459
 Alpha virt. eigenvalues --    0.05635   0.20266   0.32198   0.93454   0.93454
 Alpha virt. eigenvalues --    0.99854   1.13361   1.13361   1.16681   1.44006
 Alpha virt. eigenvalues --    1.44006   1.54074   2.01181   2.33316   2.42572

  Beta  occ. eigenvalues --  -24.63068  -1.12452  -0.48640  -0.37161  -0.37161
  Beta virt. eigenvalues --   -0.18091   0.08506   0.24637   0.35909   0.93794
  Beta virt. eigenvalues --    0.93794   1.00964   1.22439   1.22439   1.24435
  Beta virt. eigenvalues --    1.48754   1.48754   1.56638   2.13146   2.32629

 Mulliken charges and spin densities:
               1          2
     1  H    0.298927  -0.023271
     2  H    0.045829   0.881710
     3  F   -0.344756   0.141561
 Sum of Mulliken charges =   0.00000   1.00000

 Dipole moment (field-independent basis, Debye):
    X=             -2.4870    Y=              0.0000    Z=             -0.0000  Tot=              2.4870
 Quadrupole moment (field-independent basis, Debye-Ang):
   XX=             -7.8002   YY=             -6.8899   ZZ=             -6.8899
   XY=              0.0000   XZ=             -0.0000   YZ=             -0.0000

  Exact polarizability:      16.684       0.000       2.500      -0.000       0.000       2.500
 Approx polarizability:      19.662      -0.000       2.490      -0.000       0.000       2.490

 ******    1 imaginary frequencies (negative Signs) ******

                      1                      2                      3
                      A                      A                      A
 Frequencies --   -832.0135              1053.0789              1053.0789
 Red. masses --      1.0133                 1.0211                 1.0211
 Frc consts  --      0.4133                 0.6672                 0.6672
 IR Inten    --      9.1940                76.0123                76.0123

                      4
                      A
 Frequencies --   1365.9274
 Red. masses --      1.1019
 Frc consts  --      1.2113
 IR Inten    --    105.1569

 - Thermochemistry -
 -------------------
 Temperature   298.150 Kelvin.  Pressure   1.00000 Atm.
 Atom     1 has atomic number  1 and mass   1.00783

 Molecular mass:    21.01405 amu.
 Principal axes and moments of inertia in atomic units:
                           1         2         3
     Eigenvalues --     0.00000  24.61162  24.61162
           X            1.00000  -0.00000   0.00000
           Y            0.00000   1.00000   0.00000
           Z            0.00000   0.00000   1.00000
 This molecule is a prolate symmetric top.
 Rotational symmetry number  1.
 Rotational temperature (Kelvin)      3.51923
 Rotational constant (GHZ):          73.328832
    1 imaginary frequencies ignored.
 Zero-point vibrational energy      20767.7 (Joules/Mol)
                                    4.96359 (Kcal/Mol)
 Vibrational temperatures:   1515.15  1515.15  1965.26
          (Kelvin)

 Zero-point correction=                           0.007910 (Hartree/Particle)
 Thermal correction to Energy=                    0.010339
 Thermal correction to Enthalpy=                  0.011283
 Thermal correction to Gibbs Free Energy=        -0.011251
 Sum of electronic and zero-point Energies=           -100.944952
 Sum of electronic and thermal Energies=              -100.942523
 Sum of electronic and thermal Enthalpies=            -100.941579
 Sum of electronic and thermal Free Energies=         -100.964112

                     E (Thermal)             CV                S
                      KCal/Mol        Cal/Mol-Kelvin    Cal/Mol-Kelvin
 Total                    6.488              5.732             47.426
 Electronic               0.000              0.000              1.377
 Translational            0.889              2.981             35.068
 Rotational               0.592              1.987             10.809
 Vibrational              5.007              0.764              0.172

 Normal termination of Gaussian 16 at Fri Aug 22 16:04:55 2025.
