 Gaussian 16, Revision C.01,
 Gaussian 16:  ES64L-G16RevC.01  3-Jul-2019

 -----------------------------------------
 # sp b3lyp/6-311g** Force nosymm scf=(qc)
 -----------------------------------------

 -------------------
 Title Card Required
 -------------------
 Symbolic Z-matrix:
 Charge =  0 Multiplicity = 2

                          Input orientation:
 ---------------------------------------------------------------------
 Center     Atomic      Atomic             Coordinates (Angstroms)
 Number     Number       Type             X           Y           Z
 ---------------------------------------------------------------------
      1          1           0        0.000000    0.000000    0.000000
      2          1           0       -3.950000    0.000000    0.000000
      3          9           0        0.850000    0.000000    0.000000
 ---------------------------------------------------------------------

 SCF Done:  E(UB3LYP) =  -100.965465794     a.u. after    6 cycles

 Alpha  occ. eigenvalues --  -24.63864  -1.20915  -0.55019  -0.40145  -0.40145
 Alpha  occ. eigenvalues --   -0.33280
 Alpha virt. eigenvalues --    0.04174   0.24024   0.42706   0.94327   0.94327
 Alpha virt. eigenvalues --    0.97373   1.24148   1.24225   1.24225   1.28959
 Alpha virt. eigenvalues --    1.38343   1.38343   2.02442   2.14379   2.42850

  Beta  occ. eigenvalues --  -24.63864  -1.20914  -0.55018  -0.40145  -0.40145
  Beta virt. eigenvalues --   -0.04843   0.04344   0.38632   0.43058   0.94327
  Beta virt. eigenvalues --    0.94327   0.97372   1.28879   1.38343   1.38343
  Beta virt. eigenvalues --    1.50619   1.50999   1.50999   2.02680   2.42769

 Mulliken charges and spin densities:
               1          2
     1  H    0.284587   0.000276
     2  H    0.000339   0.999621
     3  F   -0.284927   0.000103
 Sum of Mulliken charges =   0.00000   1.00000

 Dipole moment (field-independent basis, Debye):
    X=             -1.8100    Y=              0.0000    Z=             -0.0000  Tot=              1.8100
 Quadrupole moment (field-independent basis, Debye-Ang):
   XX=             -7.7964   YY=             -6.8200   ZZ=             -6.8200
   XY=              0.0000   XZ=             -0.0000   YZ=              0.0000

  Exact polarizability:       4.812      -0.000       2.432       0.000       0.000       2.432
 Approx polarizability:       5.569      -0.000       2.411      -0.000       0.000       2.411

 ******    3 imaginary frequencies (negative Signs) ******

                      1                      2                      3
                      A                      A                      A
 Frequencies --  -1329.8507             -1329.8507               -28.7964
 Red. masses --      1.0410                 1.0410                 1.0532
 Frc consts  --      1.0847                 1.0847                 0.0005
 IR Inten    --    190.7560               190.7560                 0.0094

                      4
                      A
 Frequencies --   5311.7967
 Red. masses --      1.0583
 Frc consts  --     17.5933
 IR Inten    --    100.6725

 - Thermochemistry -
 -------------------
 Temperature   298.150 Kelvin.  Pressure   1.00000 Atm.
 Atom     1 has atomic number  1 and mass   1.00783

 Molecular mass:    21.01405 amu.
 Principal axes and moments of inertia in atomic units:
                           1         2         3
     Eigenvalues --     0.00000  80.01140  80.01140
           X            1.00000  -0.00000   0.00000
           Y            0.00000   1.00000   0.00000
           Z            0.00000   0.00000   1.00000
 This molecule is a prolate symmetric top.
 Rotational symmetry number  1.
 Rotational temperature (Kelvin)      1.08252
 Rotational constant (GHZ):          22.556052
    3 imaginary frequencies ignored.
 Zero-point vibrational energy      31771.6 (Joules/Mol)
                                    7.59359 (Kcal/Mol)
 Vibrational temperatures:   7642.49
          (Kelvin)

 Zero-point correction=                           0.012101 (Hartree/Particle)
 Thermal correction to Energy=                    0.014462
 Thermal correction to Enthalpy=                  0.015406
 Thermal correction to Gibbs Free Energy=        -0.008159
 Sum of electronic and zero-point Energies=           -100.953365
 Sum of electronic and thermal Energies=              -100.951004
 Sum of electronic and thermal Enthalpies=            -100.950060
 Sum of electronic and thermal Free Energies=         -100.973625

                     E (Thermal)             CV                S
                      KCal/Mol        Cal/Mol-Kelvin    Cal/Mol-Kelvin
 Total                    9.075              4.968             49.597
 Electronic               0.000              0.000              1.377
 Translational            0.889              2.981             35.068
 Rotational               0.592              1.987             13.152
 Vibrational              7.594              0.000              0.000

 Normal termination of Gaussian 16 at Fri Aug 22 15:54:42 2025.
