 Gaussian 16, Revision C.01,
 Gaussian 16:  ES64L-G16RevC.01  3-Jul-2019

 -----------------------------------------
 # sp b3lyp/6-311g** Force nosymm scf=(qc)
 -----------------------------------------

 -------------------
 Title Card Required
 -------------------
 Symbolic Z-matrix:
 Charge =  0 Multiplicity = 2

                          Input orientation:
 ---------------------------------------------------------------------
 Center     Atomic      Atomic             Coordinates (Angstroms)
 Number     Number       Type             X           Y           Z
 ---------------------------------------------------------------------
      1          1           0        0.000000    0.000000    0.000000
      2          1           0       -3.100000    0.000000    0.000000
      3          9           0        1.450000    0.000000    0.000000
 ---------------------------------------------------------------------

 SCF Done:  E(UB3LYP) =  -100.866020779     a.u. after    8 cycles

 Alpha  occ. eigenvalues --  -24.64303  -1.09929  -0.43865  -0.36510  -0.36510
 Alpha  occ. eigenvalues --   -0.34457
 Alpha virt. eigenvalues --   -0.13070   0.21178   0.27729   0.93337   0.93337
 Alpha virt. eigenvalues --    1.03524   1.12566   1.23060   1.23060   1.23428
 Alpha virt. eigenvalues --    1.32026   1.32026   1.72833   2.13753   2.20040

  Beta  occ. eigenvalues --  -24.64258  -1.09812  -0.43743  -0.36468  -0.36468
  Beta virt. eigenvalues --   -0.13841  -0.06976   0.24194   0.37596   0.93322
  Beta virt. eigenvalues --    0.93322   1.03644   1.12663   1.31844   1.31844
  Beta virt. eigenvalues --    1.44927   1.45337   1.45337   1.72849   2.19786

 Mulliken charges and spin densities:
               1          2
     1  H    0.350578  -0.009128
     2  H    0.004613   0.994989
     3  F   -0.355191   0.014138
 Sum of Mulliken charges =  -0.00000   1.00000

 Dipole moment (field-independent basis, Debye):
    X=             -2.6111    Y=             -0.0000    Z=              0.0000  Tot=              2.6111
 Quadrupole moment (field-independent basis, Debye-Ang):
   XX=             -9.5784   YY=             -7.2950   ZZ=             -7.2950
   XY=             -0.0000   XZ=              0.0000   YZ=              0.0000

  Exact polarizability:      15.884       0.000       2.213      -0.000      -0.000       2.213
 Approx polarizability:      26.937       0.000       2.144      -0.000      -0.000       2.144

 ******    2 imaginary frequencies (negative Signs) ******

                      1                      2                      3
                      A                      A                      A
 Frequencies --  -1117.6535              -122.1726              1046.6707
 Red. masses --      1.0560                 1.0555                 1.0291
 Frc consts  --      0.7772                 0.0093                 0.6643
 IR Inten    --     63.8300                 0.6691               117.4990

                      4
                      A
 Frequencies --   1046.6707
 Red. masses --      1.0291
 Frc consts  --      0.6643
 IR Inten    --    117.4990

 - Thermochemistry -
 -------------------
 Temperature   298.150 Kelvin.  Pressure   1.00000 Atm.
 Atom     1 has atomic number  1 and mass   1.00783

 Molecular mass:    21.01405 amu.
 Principal axes and moments of inertia in atomic units:
                           1         2         3
     Eigenvalues --     0.00000  75.86154  75.86154
           X            1.00000  -0.00000   0.00000
           Y            0.00000   1.00000   0.00000
           Z            0.00000   0.00000   1.00000
 This molecule is a prolate symmetric top.
 Rotational symmetry number  1.
 Rotational temperature (Kelvin)      1.14174
 Rotational constant (GHZ):          23.789936
    2 imaginary frequencies ignored.
 Zero-point vibrational energy      12521.0 (Joules/Mol)
                                    2.99258 (Kcal/Mol)
 Vibrational temperatures:   1505.93  1505.93
          (Kelvin)

 Zero-point correction=                           0.004769 (Hartree/Particle)
 Thermal correction to Energy=                    0.007191
 Thermal correction to Enthalpy=                  0.008135
 Thermal correction to Gibbs Free Energy=        -0.015454
 Sum of electronic and zero-point Energies=           -100.861252
 Sum of electronic and thermal Energies=              -100.858830
 Sum of electronic and thermal Enthalpies=            -100.857886
 Sum of electronic and thermal Free Energies=         -100.881474

                     E (Thermal)             CV                S
                      KCal/Mol        Cal/Mol-Kelvin    Cal/Mol-Kelvin
 Total                    4.512              5.626             49.646
 Electronic               0.000              0.000              1.377
 Translational            0.889              2.981             35.068
 Rotational               0.592              1.987             13.046
 Vibrational              3.031              0.658              0.155

 Normal termination of Gaussian 16 at Fri Aug 22 16:23:36 2025.
