 Gaussian 16, Revision C.01,
 Gaussian 16:  ES64L-G16RevC.01  3-Jul-2019

 -----------------------------------------
 # sp b3lyp/6-311g** Force nosymm scf=(qc)
 -----------------------------------------

 -------------------
 Title Card Required
 -------------------
 Symbolic Z-matrix:
 Charge =  0 Multiplicity = 2

                          Input orientation:
 ---------------------------------------------------------------------
 Center     Atomic      Atomic             Coordinates (Angstroms)
 Number     Number       Type             X           Y           Z
 ---------------------------------------------------------------------
      1          1           0        0.000000    0.000000    0.000000
      2          1           0       -1.000000    0.000000    0.000000
      3          9           0        2.100000    0.000000    0.000000
 ---------------------------------------------------------------------

 SCF Done:  E(UB3LYP) =  -100.909582734     a.u. after    9 cycles

 Alpha  occ. eigenvalues --  -24.74196  -1.20306  -0.53786  -0.44829  -0.44829
 Alpha  occ. eigenvalues --   -0.40738
 Alpha virt. eigenvalues --    0.00590   0.21255   0.38426   0.89627   0.91398
 Alpha virt. eigenvalues --    0.91398   1.07500   1.07500   1.10474   1.45780
 Alpha virt. eigenvalues --    1.64073   1.64073   2.20801   2.34526   2.59178

  Beta  occ. eigenvalues --  -24.71222  -1.11832  -0.41863  -0.41863  -0.40618
  Beta virt. eigenvalues --   -0.25509   0.01621   0.21835   0.38881   0.92758
  Beta virt. eigenvalues --    0.92758   0.97414   1.08247   1.08247   1.13627
  Beta virt. eigenvalues --    1.47717   1.64583   1.64583   2.21808   2.35272

 Mulliken charges and spin densities:
               1          2
     1  H    0.011788  -0.045201
     2  H    0.036444   0.110351
     3  F   -0.048231   0.934850
 Sum of Mulliken charges =   0.00000   1.00000

 Dipole moment (field-independent basis, Debye):
    X=             -0.6659    Y=              0.0000    Z=             -0.0000  Tot=              0.6659
 Quadrupole moment (field-independent basis, Debye-Ang):
   XX=             -6.3219   YY=             -7.2179   ZZ=             -7.2179
   XY=              0.0000   XZ=             -0.0000   YZ=             -0.0000

  Exact polarizability:      29.303       0.000       2.145       0.000       0.000       2.145
 Approx polarizability:      36.322       0.000       2.173       0.000       0.000       2.173

 ******    1 imaginary frequencies (negative Signs) ******

                      1                      2                      3
                      A                      A                      A
 Frequencies --   -379.9994              1461.6252              1461.6252
 Red. masses --      1.1069                 1.0114                 1.0114
 Frc consts  --      0.0942                 1.2731                 1.2731
 IR Inten    --     86.7099                 0.0522                 0.0522

                      4
                      A
 Frequencies --   1584.3998
 Red. masses --      1.0092
 Frc consts  --      1.4926
 IR Inten    --    414.3019

 - Thermochemistry -
 -------------------
 Temperature   298.150 Kelvin.  Pressure   1.00000 Atm.
 Atom     1 has atomic number  1 and mass   1.00783

 Molecular mass:    21.01405 amu.
 Principal axes and moments of inertia in atomic units:
                           1         2         3
     Eigenvalues --     0.00000  45.79081  45.79081
           X            1.00000  -0.00000   0.00000
           Y            0.00000   1.00000   0.00000
           Z            0.00000   0.00000   1.00000
 This molecule is a prolate symmetric top.
 Rotational symmetry number  1.
 Rotational temperature (Kelvin)      1.89151
 Rotational constant (GHZ):          39.412739
    1 imaginary frequencies ignored.
 Zero-point vibrational energy      26961.7 (Joules/Mol)
                                    6.44401 (Kcal/Mol)
 Vibrational temperatures:   2102.95  2102.95  2279.60
          (Kelvin)

 Zero-point correction=                           0.010269 (Hartree/Particle)
 Thermal correction to Energy=                    0.012645
 Thermal correction to Enthalpy=                  0.013589
 Thermal correction to Gibbs Free Energy=        -0.009467
 Sum of electronic and zero-point Energies=           -100.899314
 Sum of electronic and thermal Energies=              -100.896938
 Sum of electronic and thermal Enthalpies=            -100.895994
 Sum of electronic and thermal Free Energies=         -100.919049

                     E (Thermal)             CV                S
                      KCal/Mol        Cal/Mol-Kelvin    Cal/Mol-Kelvin
 Total                    7.935              5.195             48.524
 Electronic               0.000              0.000              1.377
 Translational            0.889              2.981             35.068
 Rotational               0.592              1.987             12.043
 Vibrational              6.453              0.227              0.036

 Normal termination of Gaussian 16 at Fri Aug 22 17:02:53 2025.
