 Gaussian 16, Revision C.01,
 Gaussian 16:  ES64L-G16RevC.01  3-Jul-2019

 -----------------------------------------
 # sp b3lyp/6-311g** Force nosymm scf=(qc)
 -----------------------------------------

 -------------------
 Title Card Required
 -------------------
 Symbolic Z-matrix:
 Charge =  0 Multiplicity = 2

                          Input orientation:
 ---------------------------------------------------------------------
 Center     Atomic      Atomic             Coordinates (Angstroms)
 Number     Number       Type             X           Y           Z
 ---------------------------------------------------------------------
      1          1           0        0.000000    0.000000    0.000000
      2          1           0       -0.550000    0.000000    0.000000
      3          9           0        2.800000    0.000000    0.000000
 ---------------------------------------------------------------------

 SCF Done:  E(UB3LYP) =  -100.894771777     a.u. after  116 cycles

 Alpha  occ. eigenvalues --  -24.76665  -1.22449  -0.55639  -0.48023  -0.46787
 Alpha  occ. eigenvalues --   -0.46519
 Alpha virt. eigenvalues --    0.09925   0.18986   0.54848   0.85841   0.90711
 Alpha virt. eigenvalues --    0.93865   1.09782   1.11267   1.11278   1.61955
 Alpha virt. eigenvalues --    1.83372   1.96397   1.96411   2.37756   3.64635

  Beta  occ. eigenvalues --  -24.73502  -1.13358  -0.47788  -0.43615  -0.43578
  Beta virt. eigenvalues --   -0.26255   0.10004   0.19037   0.54969   0.92209
  Beta virt. eigenvalues --    0.95294   0.95801   1.11267   1.11277   1.13281
  Beta virt. eigenvalues --    1.61976   1.83399   1.96396   1.96410   2.37765

 Mulliken charges and spin densities:
               1          2
     1  H   -0.010251  -0.002189
     2  H   -0.002213   0.000374
     3  F    0.012465   1.001815
 Sum of Mulliken charges =   0.00000   1.00000

 Dipole moment (field-independent basis, Debye):
    X=              0.1076    Y=              0.0000    Z=             -0.0000  Tot=              0.1076
 Quadrupole moment (field-independent basis, Debye-Ang):
   XX=             -5.9674   YY=             -6.6494   ZZ=             -5.8337
   XY=             -0.0000   XZ=              0.0000   YZ=             -0.1414

  Exact polarizability:       6.398       0.000       1.862       0.000      -0.075       2.292
 Approx polarizability:       6.756      -0.000       1.949       0.000      -0.094       2.488

 ******    2 imaginary frequencies (negative Signs) ******

                      1                      2                      3
                      A                      A                      A
 Frequencies --  -3686.3737             -3685.5269               105.0802
 Red. masses --      1.0086                 1.0086                 1.1085
 Frc consts  --      8.0757                 8.0720                 0.0072
 IR Inten    --      0.0795                 0.0813                 0.1942

                      4
                      A
 Frequencies --   8342.7345
 Red. masses --      1.0078
 Frc consts  --     41.3287
 IR Inten    --      0.6013

 - Thermochemistry -
 -------------------
 Temperature   298.150 Kelvin.  Pressure   1.00000 Atm.
 Atom     1 has atomic number  1 and mass   1.00783

 Molecular mass:    21.01405 amu.
 Principal axes and moments of inertia in atomic units:
                           1         2         3
     Eigenvalues --     0.00000  62.07768  62.07768
           X            1.00000  -0.00000   0.00000
           Y            0.00000   1.00000   0.00000
           Z            0.00000   0.00000   1.00000
 This molecule is a prolate symmetric top.
 Rotational symmetry number  1.
 Rotational temperature (Kelvin)      1.39525
 Rotational constant (GHZ):          29.072307
    2 imaginary frequencies ignored.
 Zero-point vibrational energy      50529.2 (Joules/Mol)
                                   12.07676 (Kcal/Mol)
 Warning -- explicit consideration of   1 degrees of freedom as
           vibrations may cause significant error
 Vibrational temperatures:    151.19 12003.33
          (Kelvin)

 Zero-point correction=                           0.019246 (Hartree/Particle)
 Thermal correction to Energy=                    0.022331
 Thermal correction to Enthalpy=                  0.023275
 Thermal correction to Gibbs Free Energy=        -0.001646
 Sum of electronic and zero-point Energies=           -100.875526
 Sum of electronic and thermal Energies=              -100.872441
 Sum of electronic and thermal Enthalpies=            -100.871497
 Sum of electronic and thermal Free Energies=         -100.896418

                     E (Thermal)             CV                S
                      KCal/Mol        Cal/Mol-Kelvin    Cal/Mol-Kelvin
 Total                   14.013              6.913             52.451
 Electronic               0.000              0.000              1.377
 Translational            0.889              2.981             35.068
 Rotational               0.592              1.987             12.648
 Vibrational             12.532              1.945              3.358
 Vibration     1          0.605              1.945              3.358

 Normal termination of Gaussian 16 at Fri Aug 22 18:36:48 2025.
