 Gaussian 16, Revision C.01,
 Gaussian 16:  ES64L-G16RevC.01  3-Jul-2019

 -----------------------------------------
 # sp b3lyp/6-311g** Force nosymm scf=(qc)
 -----------------------------------------

 -------------------
 Title Card Required
 -------------------
 Symbolic Z-matrix:
 Charge =  0 Multiplicity = 2

                          Input orientation:
 ---------------------------------------------------------------------
 Center     Atomic      Atomic             Coordinates (Angstroms)
 Number     Number       Type             X           Y           Z
 ---------------------------------------------------------------------
      1          1           0        0.000000    0.000000    0.000000
      2          1           0       -1.350000    0.000000    0.000000
      3          9           0        3.250000    0.000000    0.000000
 ---------------------------------------------------------------------

 SCF Done:  E(UB3LYP) =  -100.845380508     a.u. after  156 cycles

 Alpha  occ. eigenvalues --  -24.76527  -1.22377  -0.55572  -0.46789  -0.46725
 Alpha  occ. eigenvalues --   -0.34740
 Alpha virt. eigenvalues --   -0.07066   0.23965   0.32035   0.85852   0.90726
 Alpha virt. eigenvalues --    0.92715   1.02082   1.13090   1.16712   1.16716
 Alpha virt. eigenvalues --    1.47282   1.47286   1.94721   2.27473   2.51992

  Beta  occ. eigenvalues --  -24.73368  -1.13297  -0.43624  -0.43558  -0.34735
  Beta virt. eigenvalues --   -0.26207  -0.07058   0.23979   0.32084   0.92226
  Beta virt. eigenvalues --    0.94268   0.95313   1.06105   1.13105   1.16712
  Beta virt. eigenvalues --    1.16716   1.47281   1.47285   1.94730   2.27476

 Mulliken charges and spin densities:
               1          2
     1  H   -0.000242   0.000191
     2  H   -0.004613  -0.000801
     3  F    0.004854   1.000609
 Sum of Mulliken charges =  -0.00000   1.00000

 Dipole moment (field-independent basis, Debye):
    X=              0.0749    Y=             -0.0000    Z=              0.0000  Tot=              0.0749
 Quadrupole moment (field-independent basis, Debye-Ang):
   XX=             -6.1992   YY=             -6.9509   ZZ=             -7.4706
   XY=             -0.0000   XZ=             -0.0000   YZ=              0.3451

  Exact polarizability:      19.562      -0.000       2.438      -0.000       0.185       2.159
 Approx polarizability:      32.849      -0.000       2.543      -0.000       0.232       2.193

 ******    2 imaginary frequencies (negative Signs) ******

                      1                      2                      3
                      A                      A                      A
 Frequencies --  -1087.1547               -21.2315              1351.2368
 Red. masses --      1.0078                 1.1085                 1.0107
 Frc consts  --      0.7018                 0.0003                 1.0873
 IR Inten    --      0.4741                 0.3389                 0.0026

                      4
                      A
 Frequencies --   1352.3106
 Red. masses --      1.0107
 Frc consts  --      1.0890
 IR Inten    --      0.0025

 - Thermochemistry -
 -------------------
 Temperature   298.150 Kelvin.  Pressure   1.00000 Atm.
 Atom     1 has atomic number  1 and mass   1.00783

 Molecular mass:    21.01405 amu.
 Principal axes and moments of inertia in atomic units:
                           1         2         3
     Eigenvalues --     0.00000 103.53308 103.53308
           X            1.00000  -0.00000   0.00000
           Y            0.00000   1.00000   0.00000
           Z            0.00000   0.00000   1.00000
 This molecule is a prolate symmetric top.
 Rotational symmetry number  1.
 Rotational temperature (Kelvin)      0.83658
 Rotational constant (GHZ):          17.431542
    2 imaginary frequencies ignored.
 Zero-point vibrational energy      16170.8 (Joules/Mol)
                                    3.86492 (Kcal/Mol)
 Vibrational temperatures:   1944.13  1945.67
          (Kelvin)

 Zero-point correction=                           0.006159 (Hartree/Particle)
 Thermal correction to Energy=                    0.008538
 Thermal correction to Enthalpy=                  0.009482
 Thermal correction to Gibbs Free Energy=        -0.014348
 Sum of electronic and zero-point Energies=           -100.839221
 Sum of electronic and thermal Energies=              -100.836843
 Sum of electronic and thermal Enthalpies=            -100.835899
 Sum of electronic and thermal Free Energies=         -100.859728

                     E (Thermal)             CV                S
                      KCal/Mol        Cal/Mol-Kelvin    Cal/Mol-Kelvin
 Total                    5.357              5.217             50.153
 Electronic               0.000              0.000              1.377
 Translational            0.889              2.981             35.068
 Rotational               0.592              1.987             13.664
 Vibrational              3.876              0.249              0.044

 Normal termination of Gaussian 16 at Fri Aug 22 20:30:52 2025.
