 Gaussian 16, Revision C.01,
 Gaussian 16:  ES64L-G16RevC.01  3-Jul-2019

 -----------------------------------------
 # sp b3lyp/6-311g** Force nosymm scf=(qc)
 -----------------------------------------

 -------------------
 Title Card Required
 -------------------
 Symbolic Z-matrix:
 Charge =  0 Multiplicity = 2

                          Input orientation:
 ---------------------------------------------------------------------
 Center     Atomic      Atomic             Coordinates (Angstroms)
 Number     Number       Type             X           Y           Z
 ---------------------------------------------------------------------
      1          1           0        0.000000    0.000000    0.000000
      2          1           0       -1.150000    0.000000    0.000000
      3          9           0        1.050000    0.000000    0.000000
 ---------------------------------------------------------------------

 SCF Done:  E(UB3LYP) =  -100.960244571     a.u. after    7 cycles

 Alpha  occ. eigenvalues --  -24.64254  -1.15649  -0.55193  -0.38629  -0.38629
 Alpha  occ. eigenvalues --   -0.37102
 Alpha virt. eigenvalues --    0.10022   0.19210   0.37597   0.91662   0.91662
 Alpha virt. eigenvalues --    0.98556   1.09136   1.09136   1.32724   1.53953
 Alpha virt. eigenvalues --    1.53953   1.58189   2.17692   2.30228   2.67524

  Beta  occ. eigenvalues --  -24.63468  -1.13673  -0.50419  -0.37922  -0.37922
  Beta virt. eigenvalues --   -0.18880   0.12328   0.22544   0.42370   0.92697
  Beta virt. eigenvalues --    0.92697   1.00223   1.15871   1.15871   1.38091
  Beta virt. eigenvalues --    1.58701   1.58701   1.62956   2.25476   2.36381

 Mulliken charges and spin densities:
               1          2
     1  H    0.285349  -0.026677
     2  H    0.035546   0.814755
     3  F   -0.320895   0.211923
 Sum of Mulliken charges =   0.00000   1.00000

 Dipole moment (field-independent basis, Debye):
    X=             -2.2194    Y=              0.0000    Z=             -0.0000  Tot=              2.2194
 Quadrupole moment (field-independent basis, Debye-Ang):
   XX=             -7.7030   YY=             -6.7783   ZZ=             -6.7783
   XY=              0.0000   XZ=             -0.0000   YZ=             -0.0000

  Exact polarizability:      16.206       0.000       2.554       0.000      -0.000       2.554
 Approx polarizability:      19.290      -0.000       2.563       0.000      -0.000       2.563

 ******    1 imaginary frequencies (negative Signs) ******

                      1                      2                      3
                      A                      A                      A
 Frequencies --   -534.2149               801.5546               801.5546
 Red. masses --      1.0116                 1.0191                 1.0191
 Frc consts  --      0.1701                 0.3858                 0.3858
 IR Inten    --     16.5650                61.4027                61.4027

                      4
                      A
 Frequencies --   1693.0731
 Red. masses --      1.1040
 Frc consts  --      1.8646
 IR Inten    --     48.7075

 - Thermochemistry -
 -------------------
 Temperature   298.150 Kelvin.  Pressure   1.00000 Atm.
 Atom     1 has atomic number  1 and mass   1.00783

 Molecular mass:    21.01405 amu.
 Principal axes and moments of inertia in atomic units:
                           1         2         3
     Eigenvalues --     0.00000  19.56395  19.56395
           X            1.00000  -0.00000   0.00000
           Y            0.00000   1.00000   0.00000
           Z            0.00000   0.00000   1.00000
 This molecule is a prolate symmetric top.
 Rotational symmetry number  1.
 Rotational temperature (Kelvin)      4.42722
 Rotational constant (GHZ):          92.248315
    1 imaginary frequencies ignored.
 Zero-point vibrational energy      19715.5 (Joules/Mol)
                                    4.71213 (Kcal/Mol)
 Vibrational temperatures:   1153.26  1153.26  2435.95
          (Kelvin)

 Zero-point correction=                           0.007509 (Hartree/Particle)
 Thermal correction to Energy=                    0.010028
 Thermal correction to Enthalpy=                  0.010972
 Thermal correction to Gibbs Free Energy=        -0.011462
 Sum of electronic and zero-point Energies=           -100.952735
 Sum of electronic and thermal Energies=              -100.950217
 Sum of electronic and thermal Enthalpies=            -100.949273
 Sum of electronic and thermal Free Energies=         -100.971706

                     E (Thermal)             CV                S
                      KCal/Mol        Cal/Mol-Kelvin    Cal/Mol-Kelvin
 Total                    6.293              6.302             47.216
 Electronic               0.000              0.000              1.377
 Translational            0.889              2.981             35.068
 Rotational               0.592              1.987             10.353
 Vibrational              4.811              1.334              0.417

 Normal termination of Gaussian 16 at Fri Aug 22 16:02:20 2025.
