 Gaussian 16, Revision C.01,
 Gaussian 16:  ES64L-G16RevC.01  3-Jul-2019

 -----------------------------------------
 # sp b3lyp/6-311g** Force nosymm scf=(qc)
 -----------------------------------------

 -------------------
 Title Card Required
 -------------------
 Symbolic Z-matrix:
 Charge =  0 Multiplicity = 2

                          Input orientation:
 ---------------------------------------------------------------------
 Center     Atomic      Atomic             Coordinates (Angstroms)
 Number     Number       Type             X           Y           Z
 ---------------------------------------------------------------------
      1          1           0        0.000000    0.000000    0.000000
      2          1           0       -1.800000    0.000000    0.000000
      3          9           0        3.750000    0.000000    0.000000
 ---------------------------------------------------------------------

 SCF Done:  E(UB3LYP) =  -100.786087634     a.u. after  164 cycles

 Alpha  occ. eigenvalues --  -24.76207  -1.22104  -0.55308  -0.46482  -0.46465
 Alpha  occ. eigenvalues --   -0.32909
 Alpha virt. eigenvalues --   -0.10656   0.25960   0.31547   0.86060   0.90937
 Alpha virt. eigenvalues --    0.91522   1.00998   1.10164   1.24727   1.24728
 Alpha virt. eigenvalues --    1.37840   1.37843   1.61510   2.15073   2.39552

  Beta  occ. eigenvalues --  -24.73053  -1.13033  -0.43325  -0.43302  -0.32892
  Beta virt. eigenvalues --   -0.25959  -0.10702   0.25939   0.31598   0.92439
  Beta virt. eigenvalues --    0.92977   0.95528   1.05121   1.10150   1.24728
  Beta virt. eigenvalues --    1.24731   1.37820   1.37821   1.61524   2.15294

 Mulliken charges and spin densities:
               1          2
     1  H    0.000572  -0.720989
     2  H   -0.001762   0.721012
     3  F    0.001190   0.999977
 Sum of Mulliken charges =   0.00000   1.00000

 Dipole moment (field-independent basis, Debye):
    X=              0.0284    Y=              0.0000    Z=              0.0000  Tot=              0.0284
 Quadrupole moment (field-independent basis, Debye-Ang):
   XX=             -6.7370   YY=             -6.8952   ZZ=             -7.7598
   XY=              0.0001   XZ=              0.0000   YZ=              0.0035

  Exact polarizability:      23.566       0.000       2.478      -0.000       0.002       2.013
 Approx polarizability:      33.547       0.000       2.544       0.000       0.002       1.961

 ******    2 imaginary frequencies (negative Signs) ******

                      1                      2                      3
                      A                      A                      A
 Frequencies --  -1726.8714               -41.4950               774.0975
 Red. masses --      1.0078                 1.1085                 1.0115
 Frc consts  --      1.7707                 0.0011                 0.3571
 IR Inten    --      0.0085                 0.0631                 0.0013

                      4
                      A
 Frequencies --    774.6400
 Red. masses --      1.0115
 Frc consts  --      0.3576
 IR Inten    --      0.0008

 - Thermochemistry -
 -------------------
 Temperature   298.150 Kelvin.  Pressure   1.00000 Atm.
 Atom     1 has atomic number  1 and mass   1.00783

 Molecular mass:    21.01405 amu.
 Principal axes and moments of inertia in atomic units:
                           1         2         3
     Eigenvalues --     0.00000 146.54075 146.54075
           X            1.00000  -0.00000   0.00000
           Y            0.00000   1.00000   0.00000
           Z            0.00000   0.00000   1.00000
 This molecule is a prolate symmetric top.
 Rotational symmetry number  1.
 Rotational temperature (Kelvin)      0.59106
 Rotational constant (GHZ):          12.315627
    2 imaginary frequencies ignored.
 Zero-point vibrational energy       9263.5 (Joules/Mol)
                                    2.21403 (Kcal/Mol)
 Vibrational temperatures:   1113.75  1114.53
          (Kelvin)

 Zero-point correction=                           0.003528 (Hartree/Particle)
 Thermal correction to Energy=                    0.006061
 Thermal correction to Enthalpy=                  0.007005
 Thermal correction to Gibbs Free Energy=        -0.017349
 Sum of electronic and zero-point Energies=           -100.782559
 Sum of electronic and thermal Energies=              -100.780027
 Sum of electronic and thermal Enthalpies=            -100.779082
 Sum of electronic and thermal Free Energies=         -100.803437

                     E (Thermal)             CV                S
                      KCal/Mol        Cal/Mol-Kelvin    Cal/Mol-Kelvin
 Total                    3.803              6.356             51.258
 Electronic               0.000              0.000              1.377
 Translational            0.889              2.981             35.068
 Rotational               0.592              1.987             14.354
 Vibrational              2.322              1.388              0.458

 Normal termination of Gaussian 16 at Sat Aug 23 00:22:08 2025.
