 Gaussian 16, Revision C.01,
 Gaussian 16:  ES64L-G16RevC.01  3-Jul-2019

 -----------------------------------------
 # sp b3lyp/6-311g** Force nosymm scf=(qc)
 -----------------------------------------

 -------------------
 Title Card Required
 -------------------
 Symbolic Z-matrix:
 Charge =  0 Multiplicity = 2

                          Input orientation:
 ---------------------------------------------------------------------
 Center     Atomic      Atomic             Coordinates (Angstroms)
 Number     Number       Type             X           Y           Z
 ---------------------------------------------------------------------
      1          1           0        0.000000    0.000000    0.000000
      2          1           0       -1.250000    0.000000    0.000000
      3          9           0        0.700000    0.000000    0.000000
 ---------------------------------------------------------------------

 SCF Done:  E(UB3LYP) =  -100.859471469     a.u. after    6 cycles

 Alpha  occ. eigenvalues --  -24.63656  -1.29194  -0.60784  -0.42266  -0.42266
 Alpha  occ. eigenvalues --   -0.35717
 Alpha virt. eigenvalues --    0.14926   0.20451   0.58883   0.91897   0.91897
 Alpha virt. eigenvalues --    0.94021   1.12356   1.12356   1.44156   1.55938
 Alpha virt. eigenvalues --    1.55938   1.67410   1.97876   2.27942   3.41638

  Beta  occ. eigenvalues --  -24.63413  -1.28491  -0.59300  -0.42072  -0.42072
  Beta virt. eigenvalues --   -0.13316   0.15959   0.27335   0.64147   0.92498
  Beta virt. eigenvalues --    0.92498   0.94545   1.22500   1.22500   1.45959
  Beta virt. eigenvalues --    1.61557   1.61557   1.78716   1.98455   2.47846

 Mulliken charges and spin densities:
               1          2
     1  H    0.251061   0.009659
     2  H    0.005662   0.951800
     3  F   -0.256723   0.038542
 Sum of Mulliken charges =   0.00000   1.00000

 Dipole moment (field-independent basis, Debye):
    X=             -1.5260    Y=             -0.0000    Z=             -0.0000  Tot=              1.5260
 Quadrupole moment (field-independent basis, Debye-Ang):
   XX=             -7.2089   YY=             -6.5337   ZZ=             -6.5337
   XY=             -0.0000   XZ=             -0.0000   YZ=             -0.0000

  Exact polarizability:       7.738      -0.000       2.558      -0.000       0.000       2.558
 Approx polarizability:       7.570      -0.000       2.587       0.000       0.000       2.587

 ******    2 imaginary frequencies (negative Signs) ******

                      1                      2                      3
                      A                      A                      A
 Frequencies --  -3490.3877             -3490.3877              1276.2199
 Red. masses --      1.0262                 1.0262                 1.0539
 Frc consts  --      7.3662                 7.3662                 1.0113
 IR Inten    --    136.1699               136.1699                21.3590

                      4
                      A
 Frequencies --   9028.0016
 Red. masses --      1.0577
 Frc consts  --     50.7897
 IR Inten    --    120.3738

 - Thermochemistry -
 -------------------
 Temperature   298.150 Kelvin.  Pressure   1.00000 Atm.
 Atom     1 has atomic number  1 and mass   1.00783

 Molecular mass:    21.01405 amu.
 Principal axes and moments of inertia in atomic units:
                           1         2         3
     Eigenvalues --     0.00000  14.23661  14.23661
           X            1.00000  -0.00000   0.00000
           Y            0.00000   1.00000   0.00000
           Z            0.00000   0.00000   1.00000
 This molecule is a prolate symmetric top.
 Rotational symmetry number  1.
 Rotational temperature (Kelvin)      6.08389
 Rotational constant (GHZ):         126.767604
    2 imaginary frequencies ignored.
 Zero-point vibrational energy      61632.9 (Joules/Mol)
                                   14.73062 (Kcal/Mol)
 Vibrational temperatures:   1836.20 12989.28
          (Kelvin)

 Zero-point correction=                           0.023475 (Hartree/Particle)
 Thermal correction to Energy=                    0.025848
 Thermal correction to Enthalpy=                  0.026792
 Thermal correction to Gibbs Free Energy=         0.004842
 Sum of electronic and zero-point Energies=           -100.835997
 Sum of electronic and thermal Energies=              -100.833624
 Sum of electronic and thermal Enthalpies=            -100.832680
 Sum of electronic and thermal Free Energies=         -100.854629

                     E (Thermal)             CV                S
                      KCal/Mol        Cal/Mol-Kelvin    Cal/Mol-Kelvin
 Total                   16.220              5.128             46.197
 Electronic               0.000              0.000              1.377
 Translational            0.889              2.981             35.068
 Rotational               0.592              1.987              9.721
 Vibrational             14.738              0.160              0.030

 Normal termination of Gaussian 16 at Fri Aug 22 15:45:54 2025.
