 Gaussian 16, Revision C.01,
 Gaussian 16:  ES64L-G16RevC.01  3-Jul-2019

 -----------------------------------------
 # sp b3lyp/6-311g** Force nosymm scf=(qc)
 -----------------------------------------

 -------------------
 Title Card Required
 -------------------
 Symbolic Z-matrix:
 Charge =  0 Multiplicity = 2

                          Input orientation:
 ---------------------------------------------------------------------
 Center     Atomic      Atomic             Coordinates (Angstroms)
 Number     Number       Type             X           Y           Z
 ---------------------------------------------------------------------
      1          1           0        0.000000    0.000000    0.000000
      2          1           0       -3.900000    0.000000    0.000000
      3          9           0        3.900000    0.000000    0.000000
 ---------------------------------------------------------------------

 SCF Done:  E(UB3LYP) =  -100.758451942     a.u. after   35 cycles

 Alpha  occ. eigenvalues --  -24.75822  -1.21754  -0.54947  -0.46134  -0.46134
 Alpha  occ. eigenvalues --   -0.32236
 Alpha virt. eigenvalues --   -0.06080   0.24191   0.37819   0.86689   0.91207
 Alpha virt. eigenvalues --    0.91207   1.01161   1.25259   1.25259   1.25291
 Alpha virt. eigenvalues --    1.46393   1.46393   1.46443   2.14652   2.42247

  Beta  occ. eigenvalues --  -24.72680  -1.12719  -0.42984  -0.42984  -0.32474
  Beta virt. eigenvalues --   -0.25702  -0.05893   0.24009   0.38215   0.92705
  Beta virt. eigenvalues --    0.92705   0.96036   1.05274   1.25000   1.25000
  Beta virt. eigenvalues --    1.25017   1.46606   1.46721   1.46721   2.14641

 Mulliken charges and spin densities:
               1          2
     1  H    0.003404  -0.995394
     2  H    0.000027   0.999196
     3  F   -0.003431   0.996198
 Sum of Mulliken charges =  -0.00000   1.00000

 Dipole moment (field-independent basis, Debye):
    X=             -0.0698    Y=             -0.0000    Z=             -0.0000  Tot=              0.0698
 Quadrupole moment (field-independent basis, Debye-Ang):
   XX=             -6.9873   YY=             -7.6195   ZZ=             -7.6195
   XY=             -0.0000   XZ=             -0.0000   YZ=              0.0000

  Exact polarizability:      12.261      -0.000       2.034      -0.000      -0.000       2.034
 Approx polarizability:       9.046      -0.000       1.937      -0.000       0.000       1.937

 ******    2 imaginary frequencies (negative Signs) ******

                      1                      2                      3
                      A                      A                      A
 Frequencies --   -146.0054               -62.3622                46.5077
 Red. masses --      1.0238                 1.0898                 1.0179
 Frc consts  --      0.0129                 0.0025                 0.0013
 IR Inten    --      1.7284                 0.2825                 0.0114

                      4
                      A
 Frequencies --     46.5077
 Red. masses --      1.0179
 Frc consts  --      0.0013
 IR Inten    --      0.0114

 - Thermochemistry -
 -------------------
 Temperature   298.150 Kelvin.  Pressure   1.00000 Atm.
 Atom     1 has atomic number  1 and mass   1.00783

 Molecular mass:    21.01405 amu.
 Principal axes and moments of inertia in atomic units:
                           1         2         3
     Eigenvalues --     0.00000 250.07644 250.07644
           X            1.00000  -0.00000   0.00000
           Y            0.00000   1.00000   0.00000
           Z            0.00000   0.00000   1.00000
 This molecule is a prolate symmetric top.
 Rotational symmetry number  1.
 Rotational temperature (Kelvin)      0.34635
 Rotational constant (GHZ):           7.216758
    2 imaginary frequencies ignored.
 Zero-point vibrational energy        556.4 (Joules/Mol)
                                    0.13297 (Kcal/Mol)
 Warning -- explicit consideration of   2 degrees of freedom as
           vibrations may cause significant error
 Vibrational temperatures:     66.91    66.91
          (Kelvin)

 Zero-point correction=                           0.000212 (Hartree/Particle)
 Thermal correction to Energy=                    0.004257
 Thermal correction to Enthalpy=                  0.005201
 Thermal correction to Gibbs Free Energy=        -0.024154
 Sum of electronic and zero-point Energies=           -100.758240
 Sum of electronic and thermal Energies=              -100.754195
 Sum of electronic and thermal Enthalpies=            -100.753251
 Sum of electronic and thermal Free Energies=         -100.782606

                     E (Thermal)             CV                S
                      KCal/Mol        Cal/Mol-Kelvin    Cal/Mol-Kelvin
 Total                    2.671              8.926             61.783
 Electronic               0.000              0.000              1.377
 Translational            0.889              2.981             35.068
 Rotational               0.592              1.987             15.417
 Vibrational              1.190              3.958              9.921
 Vibration     1          0.595              1.979              4.961
 Vibration     2          0.595              1.979              4.961

 Normal termination of Gaussian 16 at Sat Aug 23 01:27:59 2025.
