 Gaussian 16, Revision C.01,
 Gaussian 16:  ES64L-G16RevC.01  3-Jul-2019

 -----------------------------------------
 # sp b3lyp/6-311g** Force nosymm scf=(qc)
 -----------------------------------------

 -------------------
 Title Card Required
 -------------------
 Symbolic Z-matrix:
 Charge =  0 Multiplicity = 2

                          Input orientation:
 ---------------------------------------------------------------------
 Center     Atomic      Atomic             Coordinates (Angstroms)
 Number     Number       Type             X           Y           Z
 ---------------------------------------------------------------------
      1          1           0        0.000000    0.000000    0.000000
      2          1           0       -3.150000    0.000000    0.000000
      3          9           0        2.850000    0.000000    0.000000
 ---------------------------------------------------------------------

 SCF Done:  E(UB3LYP) =  -100.762777057     a.u. after   19 cycles

 Alpha  occ. eigenvalues --  -24.73509  -1.19610  -0.52626  -0.44192  -0.44192
 Alpha  occ. eigenvalues --   -0.32761
 Alpha virt. eigenvalues --   -0.09202   0.24298   0.35310   0.89855   0.92619
 Alpha virt. eigenvalues --    0.92619   1.04826   1.24764   1.24764   1.25310
 Alpha virt. eigenvalues --    1.42466   1.42466   1.43114   2.15205   2.38437

  Beta  occ. eigenvalues --  -24.70523  -1.11066  -0.41206  -0.41206  -0.34150
  Beta virt. eigenvalues --   -0.24443  -0.07321   0.24453   0.37149   0.94065
  Beta virt. eigenvalues --    0.94065   0.98277   1.08408   1.23190   1.23190
  Beta virt. eigenvalues --    1.24574   1.44980   1.45158   1.45158   2.15241

 Mulliken charges and spin densities:
               1          2
     1  H    0.047880  -0.940602
     2  H    0.001380   0.995015
     3  F   -0.049260   0.945587
 Sum of Mulliken charges =  -0.00000   1.00000

 Dipole moment (field-independent basis, Debye):
    X=             -0.7409    Y=             -0.0000    Z=             -0.0000  Tot=              0.7409
 Quadrupole moment (field-independent basis, Debye-Ang):
   XX=             -8.5403   YY=             -7.6090   ZZ=             -7.6090
   XY=              0.0000   XZ=              0.0000   YZ=             -0.0000

  Exact polarizability:      34.261       0.000       2.022       0.000      -0.000       2.022
 Approx polarizability:      36.521       0.000       1.923       0.000       0.000       1.923

 ******    2 imaginary frequencies (negative Signs) ******

                      1                      2                      3
                      A                      A                      A
 Frequencies --   -465.5500              -172.1631               171.9228
 Red. masses --      1.0390                 1.0731                 1.0192
 Frc consts  --      0.1327                 0.0187                 0.0177
 IR Inten    --     48.6692                 2.5703                 2.0999

                      4
                      A
 Frequencies --    171.9228
 Red. masses --      1.0192
 Frc consts  --      0.0177
 IR Inten    --      2.0999

 - Thermochemistry -
 -------------------
 Temperature   298.150 Kelvin.  Pressure   1.00000 Atm.
 Atom     1 has atomic number  1 and mass   1.00783

 Molecular mass:    21.01405 amu.
 Principal axes and moments of inertia in atomic units:
                           1         2         3
     Eigenvalues --     0.00000 145.27825 145.27825
           X            1.00000  -0.00000   0.00000
           Y            0.00000   1.00000   0.00000
           Z            0.00000   0.00000   1.00000
 This molecule is a prolate symmetric top.
 Rotational symmetry number  1.
 Rotational temperature (Kelvin)      0.59619
 Rotational constant (GHZ):          12.422652
    2 imaginary frequencies ignored.
 Zero-point vibrational energy       2056.7 (Joules/Mol)
                                    0.49155 (Kcal/Mol)
 Warning -- explicit consideration of   2 degrees of freedom as
           vibrations may cause significant error
 Vibrational temperatures:    247.36   247.36
          (Kelvin)

 Zero-point correction=                           0.000783 (Hartree/Particle)
 Thermal correction to Energy=                    0.004356
 Thermal correction to Enthalpy=                  0.005300
 Thermal correction to Gibbs Free Energy=        -0.021123
 Sum of electronic and zero-point Energies=           -100.761994
 Sum of electronic and thermal Energies=              -100.758421
 Sum of electronic and thermal Enthalpies=            -100.757477
 Sum of electronic and thermal Free Energies=         -100.783900

                     E (Thermal)             CV                S
                      KCal/Mol        Cal/Mol-Kelvin    Cal/Mol-Kelvin
 Total                    2.733              8.722             55.611
 Electronic               0.000              0.000              1.377
 Translational            0.889              2.981             35.068
 Rotational               0.592              1.987             14.337
 Vibrational              1.252              3.754              4.829
 Vibration     1          0.626              1.877              2.414
 Vibration     2          0.626              1.877              2.414

 Normal termination of Gaussian 16 at Fri Aug 22 18:54:34 2025.
