 Gaussian 16, Revision C.01,
 Gaussian 16:  ES64L-G16RevC.01  3-Jul-2019

 -----------------------------------------
 # sp b3lyp/6-311g** Force nosymm scf=(qc)
 -----------------------------------------

 -------------------
 Title Card Required
 -------------------
 Symbolic Z-matrix:
 Charge =  0 Multiplicity = 2

                          Input orientation:
 ---------------------------------------------------------------------
 Center     Atomic      Atomic             Coordinates (Angstroms)
 Number     Number       Type             X           Y           Z
 ---------------------------------------------------------------------
      1          1           0        0.000000    0.000000    0.000000
      2          1           0       -1.050000    0.000000    0.000000
      3          9           0        1.550000    0.000000    0.000000
 ---------------------------------------------------------------------

 SCF Done:  E(UB3LYP) =  -100.915847764     a.u. after    8 cycles

 Alpha  occ. eigenvalues --  -24.69096  -1.16020  -0.52110  -0.40885  -0.40885
 Alpha  occ. eigenvalues --   -0.40597
 Alpha virt. eigenvalues --    0.01620   0.20189   0.33942   0.90438   0.90438
 Alpha virt. eigenvalues --    0.98290   1.07943   1.07943   1.14334   1.60445
 Alpha virt. eigenvalues --    1.60445   1.61481   2.19192   2.29703   2.51132

  Beta  occ. eigenvalues --  -24.66770  -1.09641  -0.43290  -0.38624  -0.38624
  Beta virt. eigenvalues --   -0.23541   0.04093   0.21783   0.35582   0.91353
  Beta virt. eigenvalues --    0.91353   1.04208   1.10988   1.10988   1.17536
  Beta virt. eigenvalues --    1.62168   1.62168   1.65196   2.21789   2.33990

 Mulliken charges and spin densities:
               1          2
     1  H    0.146255  -0.113149
     2  H    0.054759   0.400885
     3  F   -0.201014   0.712264
 Sum of Mulliken charges =  -0.00000   1.00000

 Dipole moment (field-independent basis, Debye):
    X=             -1.7856    Y=             -0.0000    Z=              0.0000  Tot=              1.7856
 Quadrupole moment (field-independent basis, Debye-Ang):
   XX=             -7.3595   YY=             -7.0779   ZZ=             -7.0779
   XY=             -0.0000   XZ=              0.0000   YZ=              0.0000

  Exact polarizability:      30.388       0.000       2.347      -0.000      -0.000       2.347
 Approx polarizability:      44.717       0.000       2.336      -0.000      -0.000       2.336

 ******    1 imaginary frequencies (negative Signs) ******

                      1                      2                      3
                      A                      A                      A
 Frequencies --  -1846.7211               809.1695              1290.9640
 Red. masses --      1.0377                 1.0745                 1.0139
 Frc consts  --      2.0851                 0.4145                 0.9956
 IR Inten    --   1020.1870               110.6228                 3.9355

                      4
                      A
 Frequencies --   1290.9640
 Red. masses --      1.0139
 Frc consts  --      0.9956
 IR Inten    --      3.9355

 - Thermochemistry -
 -------------------
 Temperature   298.150 Kelvin.  Pressure   1.00000 Atm.
 Atom     1 has atomic number  1 and mass   1.00783

 Molecular mass:    21.01405 amu.
 Principal axes and moments of inertia in atomic units:
                           1         2         3
     Eigenvalues --     0.00000  30.00319  30.00319
           X            1.00000  -0.00000   0.00000
           Y            0.00000   1.00000   0.00000
           Z            0.00000   0.00000   1.00000
 This molecule is a prolate symmetric top.
 Rotational symmetry number  1.
 Rotational temperature (Kelvin)      2.88682
 Rotational constant (GHZ):          60.151638
    1 imaginary frequencies ignored.
 Zero-point vibrational energy      20283.3 (Joules/Mol)
                                    4.84782 (Kcal/Mol)
 Vibrational temperatures:   1164.21  1857.41  1857.41
          (Kelvin)

 Zero-point correction=                           0.007725 (Hartree/Particle)
 Thermal correction to Energy=                    0.010185
 Thermal correction to Enthalpy=                  0.011129
 Thermal correction to Gibbs Free Energy=        -0.011632
 Sum of electronic and zero-point Energies=           -100.908122
 Sum of electronic and thermal Energies=              -100.905663
 Sum of electronic and thermal Enthalpies=            -100.904719
 Sum of electronic and thermal Free Energies=         -100.927480

                     E (Thermal)             CV                S
                      KCal/Mol        Cal/Mol-Kelvin    Cal/Mol-Kelvin
 Total                    6.391              5.909             47.905
 Electronic               0.000              0.000              1.377
 Translational            0.889              2.981             35.068
 Rotational               0.592              1.987             11.203
 Vibrational              4.910              0.941              0.257

 Normal termination of Gaussian 16 at Fri Aug 22 16:27:23 2025.
