 Gaussian 16, Revision C.01,
 Gaussian 16:  ES64L-G16RevC.01  3-Jul-2019

 -----------------------------------------
 # sp b3lyp/6-311g** Force nosymm scf=(qc)
 -----------------------------------------

 -------------------
 Title Card Required
 -------------------
 Symbolic Z-matrix:
 Charge =  0 Multiplicity = 2

                          Input orientation:
 ---------------------------------------------------------------------
 Center     Atomic      Atomic             Coordinates (Angstroms)
 Number     Number       Type             X           Y           Z
 ---------------------------------------------------------------------
      1          1           0        0.000000    0.000000    0.000000
      2          1           0       -4.000000    0.000000    0.000000
      3          9           0        1.800000    0.000000    0.000000
 ---------------------------------------------------------------------

 SCF Done:  E(UB3LYP) =  -100.797031655     a.u. after   10 cycles

 Alpha  occ. eigenvalues --  -24.64210  -1.08642  -0.40068  -0.35889  -0.35889
 Alpha  occ. eigenvalues --   -0.33639
 Alpha virt. eigenvalues --   -0.20503   0.20064   0.26539   0.92826   0.95649
 Alpha virt. eigenvalues --    0.95649   1.07792   1.23824   1.23864   1.23864
 Alpha virt. eigenvalues --    1.25972   1.25972   1.65533   2.11814   2.16459

  Beta  occ. eigenvalues --  -24.64213  -1.08650  -0.40072  -0.35892  -0.35892
  Beta virt. eigenvalues --   -0.20522  -0.06305   0.22397   0.38028   0.92839
  Beta virt. eigenvalues --    0.95650   0.95650   1.07793   1.26005   1.26005
  Beta virt. eigenvalues --    1.46247   1.46527   1.46527   1.65561   2.14600

 Mulliken charges and spin densities:
               1          2
     1  H    0.314741   0.001754
     2  H    0.000783   0.999177
     3  F   -0.315524  -0.000931
 Sum of Mulliken charges =   0.00000   1.00000

 Dipole moment (field-independent basis, Debye):
    X=             -2.8349    Y=              0.0000    Z=             -0.0000  Tot=              2.8349
 Quadrupole moment (field-independent basis, Debye-Ang):
   XX=            -11.1133   YY=             -7.4583   ZZ=             -7.4583
   XY=              0.0000   XZ=             -0.0000   YZ=             -0.0000

  Exact polarizability:      21.416      -0.000       2.067       0.000      -0.000       2.067
 Approx polarizability:      57.837       0.000       1.975      -0.000       0.000       1.975

 ******    2 imaginary frequencies (negative Signs) ******

                      1                      2                      3
                      A                      A                      A
 Frequencies --  -1156.7313               -54.3784               803.8192
 Red. masses --      1.0580                 1.0535                 1.0298
 Frc consts  --      0.8341                 0.0018                 0.3920
 IR Inten    --     27.6306                 0.0797                97.3281

                      4
                      A
 Frequencies --    803.8192
 Red. masses --      1.0298
 Frc consts  --      0.3920
 IR Inten    --     97.3281

 - Thermochemistry -
 -------------------
 Temperature   298.150 Kelvin.  Pressure   1.00000 Atm.
 Atom     1 has atomic number  1 and mass   1.00783

 Molecular mass:    21.01405 amu.
 Principal axes and moments of inertia in atomic units:
                           1         2         3
     Eigenvalues --     0.00000 122.76166 122.76166
           X            1.00000  -0.00000   0.00000
           Y            0.00000   1.00000   0.00000
           Z            0.00000   0.00000   1.00000
 This molecule is a prolate symmetric top.
 Rotational symmetry number  1.
 Rotational temperature (Kelvin)      0.70555
 Rotational constant (GHZ):          14.701180
    2 imaginary frequencies ignored.
 Zero-point vibrational energy       9615.8 (Joules/Mol)
                                    2.29823 (Kcal/Mol)
 Vibrational temperatures:   1156.52  1156.52
          (Kelvin)

 Zero-point correction=                           0.003662 (Hartree/Particle)
 Thermal correction to Energy=                    0.006178
 Thermal correction to Enthalpy=                  0.007122
 Thermal correction to Gibbs Free Energy=        -0.017042
 Sum of electronic and zero-point Energies=           -100.793369
 Sum of electronic and thermal Energies=              -100.790854
 Sum of electronic and thermal Enthalpies=            -100.789910
 Sum of electronic and thermal Free Energies=         -100.814073

                     E (Thermal)             CV                S
                      KCal/Mol        Cal/Mol-Kelvin    Cal/Mol-Kelvin
 Total                    3.876              6.257             50.856
 Electronic               0.000              0.000              1.377
 Translational            0.889              2.981             35.068
 Rotational               0.592              1.987             14.003
 Vibrational              2.395              1.289              0.408

 Normal termination of Gaussian 16 at Fri Aug 22 16:45:22 2025.
