 Gaussian 16, Revision C.01,
 Gaussian 16:  ES64L-G16RevC.01  3-Jul-2019

 -----------------------------------------
 # sp b3lyp/6-311g** Force nosymm scf=(qc)
 -----------------------------------------

 -------------------
 Title Card Required
 -------------------
 Symbolic Z-matrix:
 Charge =  0 Multiplicity = 2

                          Input orientation:
 ---------------------------------------------------------------------
 Center     Atomic      Atomic             Coordinates (Angstroms)
 Number     Number       Type             X           Y           Z
 ---------------------------------------------------------------------
      1          1           0        0.000000    0.000000    0.000000
      2          1           0       -0.950000    0.000000    0.000000
      3          9           0        1.700000    0.000000    0.000000
 ---------------------------------------------------------------------

 SCF Done:  E(UB3LYP) =  -100.922633100     a.u. after    9 cycles

 Alpha  occ. eigenvalues --  -24.71544  -1.18103  -0.53044  -0.42790  -0.42790
 Alpha  occ. eigenvalues --   -0.41859
 Alpha virt. eigenvalues --    0.03156   0.20500   0.36919   0.90350   0.90350
 Alpha virt. eigenvalues --    0.95846   1.07112   1.07112   1.13823   1.62567
 Alpha virt. eigenvalues --    1.66889   1.66889   2.19714   2.33559   2.64349

  Beta  occ. eigenvalues --  -24.68858  -1.10603  -0.43197  -0.40147  -0.40147
  Beta virt. eigenvalues --   -0.24362   0.04915   0.21564   0.38097   0.91465
  Beta virt. eigenvalues --    0.91465   1.02793   1.09038   1.09038   1.16714
  Beta virt. eigenvalues --    1.65585   1.68038   1.68038   2.21491   2.35799

 Mulliken charges and spin densities:
               1          2
     1  H    0.082497  -0.075456
     2  H    0.045381   0.244829
     3  F   -0.127878   0.830627
 Sum of Mulliken charges =   0.00000   1.00000

 Dipole moment (field-independent basis, Debye):
    X=             -1.2451    Y=             -0.0000    Z=             -0.0000  Tot=              1.2451
 Quadrupole moment (field-independent basis, Debye-Ang):
   XX=             -6.9158   YY=             -7.0641   ZZ=             -7.0641
   XY=             -0.0000   XZ=             -0.0000   YZ=              0.0000

  Exact polarizability:      28.339      -0.000       2.266       0.000       0.000       2.266
 Approx polarizability:      38.713      -0.000       2.281       0.000      -0.000       2.281

 ******    1 imaginary frequencies (negative Signs) ******

                      1                      2                      3
                      A                      A                      A
 Frequencies --   -767.4088              1322.5256              1322.5256
 Red. masses --      1.0986                 1.0124                 1.0124
 Frc consts  --      0.3812                 1.0433                 1.0433
 IR Inten    --    313.5538                 0.4383                 0.4383

                      4
                      A
 Frequencies --   1698.4706
 Red. masses --      1.0162
 Frc consts  --      1.7271
 IR Inten    --    655.3989

 - Thermochemistry -
 -------------------
 Temperature   298.150 Kelvin.  Pressure   1.00000 Atm.
 Atom     1 has atomic number  1 and mass   1.00783

 Molecular mass:    21.01405 amu.
 Principal axes and moments of inertia in atomic units:
                           1         2         3
     Eigenvalues --     0.00000  32.40902  32.40902
           X            1.00000  -0.00000   0.00000
           Y            0.00000   1.00000   0.00000
           Z            0.00000   0.00000   1.00000
 This molecule is a prolate symmetric top.
 Rotational symmetry number  1.
 Rotational temperature (Kelvin)      2.67253
 Rotational constant (GHZ):          55.686390
    1 imaginary frequencies ignored.
 Zero-point vibrational energy      25980.0 (Joules/Mol)
                                    6.20938 (Kcal/Mol)
 Vibrational temperatures:   1902.82  1902.82  2443.72
          (Kelvin)

 Zero-point correction=                           0.009895 (Hartree/Particle)
 Thermal correction to Energy=                    0.012278
 Thermal correction to Enthalpy=                  0.013222
 Thermal correction to Gibbs Free Energy=        -0.009516
 Sum of electronic and zero-point Energies=           -100.912738
 Sum of electronic and thermal Energies=              -100.910355
 Sum of electronic and thermal Enthalpies=            -100.909411
 Sum of electronic and thermal Free Energies=         -100.932149

                     E (Thermal)             CV                S
                      KCal/Mol        Cal/Mol-Kelvin    Cal/Mol-Kelvin
 Total                    7.705              5.280             47.856
 Electronic               0.000              0.000              1.377
 Translational            0.889              2.981             35.068
 Rotational               0.592              1.987             11.356
 Vibrational              6.224              0.312              0.055

 Normal termination of Gaussian 16 at Fri Aug 22 16:36:28 2025.
