 Gaussian 16, Revision C.01,
 Gaussian 16:  ES64L-G16RevC.01  3-Jul-2019

 -----------------------------------------
 # sp b3lyp/6-311g** Force nosymm scf=(qc)
 -----------------------------------------

 -------------------
 Title Card Required
 -------------------
 Symbolic Z-matrix:
 Charge =  0 Multiplicity = 2

                          Input orientation:
 ---------------------------------------------------------------------
 Center     Atomic      Atomic             Coordinates (Angstroms)
 Number     Number       Type             X           Y           Z
 ---------------------------------------------------------------------
      1          1           0        0.000000    0.000000    0.000000
      2          1           0       -1.300000    0.000000    0.000000
      3          9           0        3.100000    0.000000    0.000000
 ---------------------------------------------------------------------

 SCF Done:  E(UB3LYP) =  -100.854251252     a.u. after   27 cycles

 Alpha  occ. eigenvalues --  -24.76625  -1.22459  -0.55651  -0.46886  -0.46802
 Alpha  occ. eigenvalues --   -0.35173
 Alpha virt. eigenvalues --   -0.06009   0.23669   0.32849   0.85793   0.90666
 Alpha virt. eigenvalues --    0.93102   1.02968   1.15466   1.15471   1.15819
 Alpha virt. eigenvalues --    1.49566   1.49572   1.99300   2.29216   2.53603

  Beta  occ. eigenvalues --  -24.73465  -1.13376  -0.43723  -0.43634  -0.35164
  Beta virt. eigenvalues --   -0.26280  -0.05997   0.23687   0.32913   0.92165
  Beta virt. eigenvalues --    0.94722   0.95252   1.06910   1.15465   1.15471
  Beta virt. eigenvalues --    1.15828   1.49565   1.49571   1.99309   2.29219

 Mulliken charges and spin densities:
               1          2
     1  H   -0.000779   0.000057
     2  H   -0.005719  -0.000901
     3  F    0.006498   1.000844
 Sum of Mulliken charges =   0.00000   1.00000

 Dipole moment (field-independent basis, Debye):
    X=              0.0937    Y=              0.0000    Z=              0.0000  Tot=              0.0937
 Quadrupole moment (field-independent basis, Debye-Ang):
   XX=             -6.1687   YY=             -7.1667   ZZ=             -7.1669
   XY=              0.0000   XZ=              0.0000   YZ=              0.4319

  Exact polarizability:      18.592       0.000       2.305       0.000       0.231       2.305
 Approx polarizability:      29.868       0.000       2.381       0.000       0.290       2.381

 ******    1 imaginary frequencies (negative Signs) ******

                      1                      2                      3
                      A                      A                      A
 Frequencies --   -969.7941                27.8217              1392.9590
 Red. masses --      1.0078                 1.1085                 1.0108
 Frc consts  --      0.5585                 0.0005                 1.1555
 IR Inten    --      0.7841                 0.4903                 0.0027

                      4
                      A
 Frequencies --   1393.1218
 Red. masses --      1.0108
 Frc consts  --      1.1558
 IR Inten    --      0.0029

 - Thermochemistry -
 -------------------
 Temperature   298.150 Kelvin.  Pressure   1.00000 Atm.
 Atom     1 has atomic number  1 and mass   1.00783

 Molecular mass:    21.01405 amu.
 Principal axes and moments of inertia in atomic units:
                           1         2         3
     Eigenvalues --     0.00000  94.55414  94.55414
           X            1.00000  -0.00000   0.00000
           Y            0.00000   1.00000   0.00000
           Z            0.00000   0.00000   1.00000
 This molecule is a prolate symmetric top.
 Rotational symmetry number  1.
 Rotational temperature (Kelvin)      0.91602
 Rotational constant (GHZ):          19.086856
    1 imaginary frequencies ignored.
 Zero-point vibrational energy      16830.9 (Joules/Mol)
                                    4.02268 (Kcal/Mol)
 Warning -- explicit consideration of   1 degrees of freedom as
           vibrations may cause significant error
 Vibrational temperatures:     40.03  2004.16  2004.39
          (Kelvin)

 Zero-point correction=                           0.006411 (Hartree/Particle)
 Thermal correction to Energy=                    0.009669
 Thermal correction to Enthalpy=                  0.010613
 Thermal correction to Gibbs Free Energy=        -0.015969
 Sum of electronic and zero-point Energies=           -100.847841
 Sum of electronic and thermal Energies=              -100.844583
 Sum of electronic and thermal Enthalpies=            -100.843639
 Sum of electronic and thermal Free Energies=         -100.870220

                     E (Thermal)             CV                S
                      KCal/Mol        Cal/Mol-Kelvin    Cal/Mol-Kelvin
 Total                    6.067              7.169             55.945
 Electronic               0.000              0.000              1.377
 Translational            0.889              2.981             35.068
 Rotational               0.592              1.987             13.484
 Vibrational              4.586              2.201              6.016
 Vibration     1          0.593              1.984              5.979

 Normal termination of Gaussian 16 at Fri Aug 22 19:51:32 2025.
