 Gaussian 16, Revision C.01,
 Gaussian 16:  ES64L-G16RevC.01  3-Jul-2019

 -----------------------------------------
 # sp b3lyp/6-311g** Force nosymm scf=(qc)
 -----------------------------------------

 -------------------
 Title Card Required
 -------------------
 Symbolic Z-matrix:
 Charge =  0 Multiplicity = 2

                          Input orientation:
 ---------------------------------------------------------------------
 Center     Atomic      Atomic             Coordinates (Angstroms)
 Number     Number       Type             X           Y           Z
 ---------------------------------------------------------------------
      1          1           0        0.000000    0.000000    0.000000
      2          1           0       -1.700000    0.000000    0.000000
      3          9           0        3.650000    0.000000    0.000000
 ---------------------------------------------------------------------

 SCF Done:  E(UB3LYP) =  -100.794866201     a.u. after  255 cycles

 Alpha  occ. eigenvalues --  -24.76264  -1.22155  -0.55358  -0.46537  -0.46513
 Alpha  occ. eigenvalues --   -0.33052
 Alpha virt. eigenvalues --   -0.10531   0.25749   0.30957   0.86018   0.90895
 Alpha virt. eigenvalues --    0.91679   1.01074   1.07665   1.23864   1.23865
 Alpha virt. eigenvalues --    1.38303   1.38306   1.67750   2.16963   2.41679

  Beta  occ. eigenvalues --  -24.73110  -1.13083  -0.43380  -0.43350  -0.33039
  Beta virt. eigenvalues --   -0.26006  -0.10571   0.25724   0.31028   0.92397
  Beta virt. eigenvalues --    0.93130   0.95486   1.05183   1.07656   1.23859
  Beta virt. eigenvalues --    1.23862   1.38291   1.38292   1.67779   2.17187

 Mulliken charges and spin densities:
               1          2
     1  H    0.000625  -0.611874
     2  H   -0.002263   0.611868
     3  F    0.001638   1.000006
 Sum of Mulliken charges =   0.00000   1.00000

 Dipole moment (field-independent basis, Debye):
    X=              0.0359    Y=             -0.0000    Z=              0.0000  Tot=              0.0359
 Quadrupole moment (field-independent basis, Debye-Ang):
   XX=             -6.5783   YY=             -7.7693   ZZ=             -6.9049
   XY=             -0.0000   XZ=              0.0001   YZ=             -0.0071

  Exact polarizability:      23.894      -0.000       2.018       0.000      -0.004       2.482
 Approx polarizability:      37.864      -0.000       1.980       0.000      -0.005       2.562

 ******    2 imaginary frequencies (negative Signs) ******

                      1                      2                      3
                      A                      A                      A
 Frequencies --  -1906.3112               -53.4639               907.5324
 Red. masses --      1.0078                 1.1085                 1.0113
 Frc consts  --      2.1579                 0.0019                 0.4907
 IR Inten    --      0.0233                 0.1021                 0.0019

                      4
                      A
 Frequencies --    908.3515
 Red. masses --      1.0113
 Frc consts  --      0.4916
 IR Inten    --      0.0010

 - Thermochemistry -
 -------------------
 Temperature   298.150 Kelvin.  Pressure   1.00000 Atm.
 Atom     1 has atomic number  1 and mass   1.00783

 Molecular mass:    21.01405 amu.
 Principal axes and moments of inertia in atomic units:
                           1         2         3
     Eigenvalues --     0.00000 136.97925 136.97925
           X            1.00000  -0.00000   0.00000
           Y            0.00000   1.00000   0.00000
           Z            0.00000   0.00000   1.00000
 This molecule is a prolate symmetric top.
 Rotational symmetry number  1.
 Rotational temperature (Kelvin)      0.63231
 Rotational constant (GHZ):          13.175289
    2 imaginary frequencies ignored.
 Zero-point vibrational energy      10861.4 (Joules/Mol)
                                    2.59594 (Kcal/Mol)
 Vibrational temperatures:   1305.74  1306.92
          (Kelvin)

 Zero-point correction=                           0.004137 (Hartree/Particle)
 Thermal correction to Energy=                    0.006602
 Thermal correction to Enthalpy=                  0.007546
 Thermal correction to Gibbs Free Energy=        -0.016655
 Sum of electronic and zero-point Energies=           -100.790729
 Sum of electronic and thermal Energies=              -100.788264
 Sum of electronic and thermal Enthalpies=            -100.787320
 Sum of electronic and thermal Free Energies=         -100.811521

                     E (Thermal)             CV                S
                      KCal/Mol        Cal/Mol-Kelvin    Cal/Mol-Kelvin
 Total                    4.143              5.947             50.936
 Electronic               0.000              0.000              1.377
 Translational            0.889              2.981             35.068
 Rotational               0.592              1.987             14.220
 Vibrational              2.662              0.979              0.271

 Normal termination of Gaussian 16 at Fri Aug 22 23:33:14 2025.
