 Gaussian 16, Revision C.01,
 Gaussian 16:  ES64L-G16RevC.01  3-Jul-2019

 -----------------------------------------
 # sp b3lyp/6-311g** Force nosymm scf=(qc)
 -----------------------------------------

 -------------------
 Title Card Required
 -------------------
 Symbolic Z-matrix:
 Charge =  0 Multiplicity = 2

                          Input orientation:
 ---------------------------------------------------------------------
 Center     Atomic      Atomic             Coordinates (Angstroms)
 Number     Number       Type             X           Y           Z
 ---------------------------------------------------------------------
      1          1           0        0.000000    0.000000    0.000000
      2          1           0       -2.300000    0.000000    0.000000
      3          9           0        0.600000    0.000000    0.000000
 ---------------------------------------------------------------------

 SCF Done:  E(UB3LYP) =  -100.687936440     a.u. after    6 cycles

 Alpha  occ. eigenvalues --  -24.62685  -1.34678  -0.61030  -0.42927  -0.42927
 Alpha  occ. eigenvalues --   -0.34602
 Alpha virt. eigenvalues --    0.09591   0.25321   0.56725   0.92176   0.92176
 Alpha virt. eigenvalues --    0.93357   1.16799   1.22949   1.22949   1.50306
 Alpha virt. eigenvalues --    1.50306   1.50855   1.94662   2.16592   3.36694

  Beta  occ. eigenvalues --  -24.62672  -1.34640  -0.60990  -0.42921  -0.42921
  Beta virt. eigenvalues --   -0.08654   0.11014   0.37714   0.56445   0.92165
  Beta virt. eigenvalues --    0.92165   0.93502   1.28772   1.44647   1.44647
  Beta virt. eigenvalues --    1.50297   1.50297   1.61585   1.96308   2.44660

 Mulliken charges and spin densities:
               1          2
     1  H    0.228653   0.005467
     2  H    0.006122   0.991510
     3  F   -0.234775   0.003022
 Sum of Mulliken charges =   0.00000   1.00000

 Dipole moment (field-independent basis, Debye):
    X=             -1.4954    Y=              0.0000    Z=             -0.0000  Tot=              1.4954
 Quadrupole moment (field-independent basis, Debye-Ang):
   XX=             -6.7771   YY=             -6.5391   ZZ=             -6.5391
   XY=              0.0000   XZ=             -0.0000   YZ=             -0.0000

  Exact polarizability:       5.208      -0.000       2.469      -0.000      -0.000       2.469
 Approx polarizability:       5.160       0.000       2.456       0.000       0.000       2.456

 ******    2 imaginary frequencies (negative Signs) ******

                      1                      2                      3
                      A                      A                      A
 Frequencies --  -5825.9693             -5825.9693               204.4244
 Red. masses --      1.0383                 1.0383                 1.0533
 Frc consts  --     20.7641                20.7641                 0.0259
 IR Inten    --    217.7736               217.7736                 0.1397

                      4
                      A
 Frequencies --  13070.4878
 Red. masses --      1.0583
 Frc consts  --    106.5231
 IR Inten    --    112.0119

 - Thermochemistry -
 -------------------
 Temperature   298.150 Kelvin.  Pressure   1.00000 Atm.
 Atom     1 has atomic number  1 and mass   1.00783

 Molecular mass:    21.01405 amu.
 Principal axes and moments of inertia in atomic units:
                           1         2         3
     Eigenvalues --     0.00000  29.44887  29.44887
           X            1.00000  -0.00000   0.00000
           Y            0.00000   1.00000   0.00000
           Z            0.00000   0.00000   1.00000
 This molecule is a prolate symmetric top.
 Rotational symmetry number  1.
 Rotational temperature (Kelvin)      2.94116
 Rotational constant (GHZ):          61.283886
    2 imaginary frequencies ignored.
 Zero-point vibrational energy      79401.6 (Joules/Mol)
                                   18.97744 (Kcal/Mol)
 Warning -- explicit consideration of   1 degrees of freedom as
           vibrations may cause significant error
 Vibrational temperatures:    294.12 18805.52
          (Kelvin)

 Zero-point correction=                           0.030242 (Hartree/Particle)
 Thermal correction to Energy=                    0.033157
 Thermal correction to Enthalpy=                  0.034101
 Thermal correction to Gibbs Free Energy=         0.010485
 Sum of electronic and zero-point Energies=           -100.657694
 Sum of electronic and thermal Energies=              -100.654780
 Sum of electronic and thermal Enthalpies=            -100.653835
 Sum of electronic and thermal Free Energies=         -100.677451

                     E (Thermal)             CV                S
                      KCal/Mol        Cal/Mol-Kelvin    Cal/Mol-Kelvin
 Total                   20.806              6.802             49.704
 Electronic               0.000              0.000              1.377
 Translational            0.889              2.981             35.068
 Rotational               0.592              1.987             11.166
 Vibrational             19.325              1.834              2.093
 Vibration     1          0.640              1.834              2.093

 Normal termination of Gaussian 16 at Fri Aug 22 15:41:54 2025.
