 Gaussian 16, Revision C.01,
 Gaussian 16:  ES64L-G16RevC.01  3-Jul-2019

 -----------------------------------------
 # sp b3lyp/6-311g** Force nosymm scf=(qc)
 -----------------------------------------

 -------------------
 Title Card Required
 -------------------
 Symbolic Z-matrix:
 Charge =  0 Multiplicity = 2

                          Input orientation:
 ---------------------------------------------------------------------
 Center     Atomic      Atomic             Coordinates (Angstroms)
 Number     Number       Type             X           Y           Z
 ---------------------------------------------------------------------
      1          1           0        0.000000    0.000000    0.000000
      2          1           0       -3.200000    0.000000    0.000000
      3          9           0        1.650000    0.000000    0.000000
 ---------------------------------------------------------------------

 SCF Done:  E(UB3LYP) =  -100.825026033     a.u. after   14 cycles

 Alpha  occ. eigenvalues --  -24.64006  -1.07846  -0.40780  -0.35935  -0.35935
 Alpha  occ. eigenvalues --   -0.34204
 Alpha virt. eigenvalues --   -0.17696   0.19846   0.27211   0.94137   0.94137
 Alpha virt. eigenvalues --    0.99081   1.07515   1.23271   1.23271   1.23514
 Alpha virt. eigenvalues --    1.26415   1.26415   1.71122   2.13287   2.13889

  Beta  occ. eigenvalues --  -24.65160  -1.10968  -0.43640  -0.37049  -0.37049
  Beta virt. eigenvalues --   -0.15778  -0.06385   0.25315   0.38338   0.94463
  Beta virt. eigenvalues --    0.94463   0.98510   1.06757   1.32537   1.32537
  Beta virt. eigenvalues --    1.45412   1.45849   1.45849   1.74123   2.22213

 Mulliken charges and spin densities:
               1          2
     1  H    0.311682   0.368233
     2  H    0.004087   0.995981
     3  F   -0.315769  -0.364214
 Sum of Mulliken charges =   0.00000   1.00000

 Dipole moment (field-independent basis, Debye):
    X=             -2.6050    Y=             -0.0000    Z=              0.0000  Tot=              2.6050
 Quadrupole moment (field-independent basis, Debye-Ang):
   XX=            -10.1301   YY=             -7.3856   ZZ=             -7.3856
   XY=             -0.0000   XZ=              0.0000   YZ=             -0.0000

  Exact polarizability:      22.674       0.000       2.134      -0.000       0.000       2.134
 Approx polarizability:      37.328      -0.000       2.041       0.000       0.000       2.041

 ******    2 imaginary frequencies (negative Signs) ******

                      1                      2                      3
                      A                      A                      A
 Frequencies --  -1831.2191               -72.2755               838.6454
 Red. masses --      1.0590                 1.0526                 1.0276
 Frc consts  --      2.0923                 0.0032                 0.4258
 IR Inten    --     86.7134                 1.6100                89.6320

                      4
                      A
 Frequencies --    838.6454
 Red. masses --      1.0276
 Frc consts  --      0.4258
 IR Inten    --     89.6320

 - Thermochemistry -
 -------------------
 Temperature   298.150 Kelvin.  Pressure   1.00000 Atm.
 Atom     1 has atomic number  1 and mass   1.00783

 Molecular mass:    21.01405 amu.
 Principal axes and moments of inertia in atomic units:
                           1         2         3
     Eigenvalues --     0.00000  87.16334  87.16334
           X            1.00000  -0.00000   0.00000
           Y            0.00000   1.00000   0.00000
           Z            0.00000   0.00000   1.00000
 This molecule is a prolate symmetric top.
 Rotational symmetry number  1.
 Rotational temperature (Kelvin)      0.99370
 Rotational constant (GHZ):          20.705279
    2 imaginary frequencies ignored.
 Zero-point vibrational energy      10032.4 (Joules/Mol)
                                    2.39781 (Kcal/Mol)
 Vibrational temperatures:   1206.62  1206.62
          (Kelvin)

 Zero-point correction=                           0.003821 (Hartree/Particle)
 Thermal correction to Energy=                    0.006318
 Thermal correction to Enthalpy=                  0.007262
 Thermal correction to Gibbs Free Energy=        -0.016554
 Sum of electronic and zero-point Energies=           -100.821205
 Sum of electronic and thermal Energies=              -100.818709
 Sum of electronic and thermal Enthalpies=            -100.817764
 Sum of electronic and thermal Free Energies=         -100.841580

                     E (Thermal)             CV                S
                      KCal/Mol        Cal/Mol-Kelvin    Cal/Mol-Kelvin
 Total                    3.964              6.146             50.124
 Electronic               0.000              0.000              1.377
 Translational            0.889              2.981             35.068
 Rotational               0.592              1.987             13.322
 Vibrational              2.483              1.178              0.356

 Normal termination of Gaussian 16 at Fri Aug 22 16:35:25 2025.
