 Gaussian 16, Revision C.01,
 Gaussian 16:  ES64L-G16RevC.01  3-Jul-2019

 -----------------------------------------
 # sp b3lyp/6-311g** Force nosymm scf=(qc)
 -----------------------------------------

 -------------------
 Title Card Required
 -------------------
 Symbolic Z-matrix:
 Charge =  0 Multiplicity = 2

                          Input orientation:
 ---------------------------------------------------------------------
 Center     Atomic      Atomic             Coordinates (Angstroms)
 Number     Number       Type             X           Y           Z
 ---------------------------------------------------------------------
      1          1           0        0.000000    0.000000    0.000000
      2          1           0       -3.250000    0.000000    0.000000
      3          9           0        3.150000    0.000000    0.000000
 ---------------------------------------------------------------------

 SCF Done:  E(UB3LYP) =  -100.760526798     a.u. after   24 cycles

 Alpha  occ. eigenvalues --  -24.74584  -1.20607  -0.53705  -0.45093  -0.45093
 Alpha  occ. eigenvalues --   -0.32529
 Alpha virt. eigenvalues --   -0.08120   0.24399   0.35950   0.88873   0.91974
 Alpha virt. eigenvalues --    0.91974   1.03118   1.24989   1.24989   1.25358
 Alpha virt. eigenvalues --    1.43816   1.43816   1.43991   2.15245   2.40076

  Beta  occ. eigenvalues --  -24.71523  -1.11825  -0.42027  -0.42027  -0.33409
  Beta virt. eigenvalues --   -0.25056  -0.07005   0.24261   0.37429   0.93446
  Beta virt. eigenvalues --    0.93446   0.97746   1.06973   1.23967   1.23967
  Beta virt. eigenvalues --    1.24375   1.45283   1.45511   1.45511   2.15639

 Mulliken charges and spin densities:
               1          2
     1  H    0.026363  -0.966418
     2  H    0.000668   0.996111
     3  F   -0.027031   0.970307
 Sum of Mulliken charges =  -0.00000   1.00000

 Dipole moment (field-independent basis, Debye):
    X=             -0.4479    Y=              0.0000    Z=              0.0000  Tot=              0.4479
 Quadrupole moment (field-independent basis, Debye-Ang):
   XX=             -7.9657   YY=             -7.6199   ZZ=             -7.6199
   XY=             -0.0000   XZ=             -0.0000   YZ=             -0.0000

  Exact polarizability:      31.688      -0.000       2.026      -0.000      -0.000       2.026
 Approx polarizability:      29.360      -0.000       1.928      -0.000       0.000       1.928

 ******    2 imaginary frequencies (negative Signs) ******

                      1                      2                      3
                      A                      A                      A
 Frequencies --   -353.1570              -144.1074               125.0782
 Red. masses --      1.0313                 1.0814                 1.0183
 Frc consts  --      0.0758                 0.0132                 0.0094
 IR Inten    --     27.3598                 2.5982                 0.6283

                      4
                      A
 Frequencies --    125.0783
 Red. masses --      1.0183
 Frc consts  --      0.0094
 IR Inten    --      0.6283

 - Thermochemistry -
 -------------------
 Temperature   298.150 Kelvin.  Pressure   1.00000 Atm.
 Atom     1 has atomic number  1 and mass   1.00783

 Molecular mass:    21.01405 amu.
 Principal axes and moments of inertia in atomic units:
                           1         2         3
     Eigenvalues --     0.00000 167.38437 167.38437
           X            1.00000  -0.00000   0.00000
           Y            0.00000   1.00000   0.00000
           Z            0.00000   0.00000   1.00000
 This molecule is a prolate symmetric top.
 Rotational symmetry number  1.
 Rotational temperature (Kelvin)      0.51746
 Rotational constant (GHZ):          10.782017
    2 imaginary frequencies ignored.
 Zero-point vibrational energy       1496.3 (Joules/Mol)
                                    0.35762 (Kcal/Mol)
 Warning -- explicit consideration of   2 degrees of freedom as
           vibrations may cause significant error
 Vibrational temperatures:    179.96   179.96
          (Kelvin)

 Zero-point correction=                           0.000570 (Hartree/Particle)
 Thermal correction to Energy=                    0.004306
 Thermal correction to Enthalpy=                  0.005250
 Thermal correction to Gibbs Free Energy=        -0.021882
 Sum of electronic and zero-point Energies=           -100.759957
 Sum of electronic and thermal Energies=              -100.756221
 Sum of electronic and thermal Enthalpies=            -100.755277
 Sum of electronic and thermal Free Energies=         -100.782409

                     E (Thermal)             CV                S
                      KCal/Mol        Cal/Mol-Kelvin    Cal/Mol-Kelvin
 Total                    2.702              8.824             57.105
 Electronic               0.000              0.000              1.377
 Translational            0.889              2.981             35.068
 Rotational               0.592              1.987             14.619
 Vibrational              1.221              3.856              6.041
 Vibration     1          0.610              1.928              3.020
 Vibration     2          0.610              1.928              3.020

 Normal termination of Gaussian 16 at Fri Aug 22 20:11:30 2025.
