 Gaussian 16, Revision C.01,
 Gaussian 16:  ES64L-G16RevC.01  3-Jul-2019

 -----------------------------------------
 # sp b3lyp/6-311g** Force nosymm scf=(qc)
 -----------------------------------------

 -------------------
 Title Card Required
 -------------------
 Symbolic Z-matrix:
 Charge =  0 Multiplicity = 2

                          Input orientation:
 ---------------------------------------------------------------------
 Center     Atomic      Atomic             Coordinates (Angstroms)
 Number     Number       Type             X           Y           Z
 ---------------------------------------------------------------------
      1          1           0        0.000000    0.000000    0.000000
      2          1           0       -1.400000    0.000000    0.000000
      3          9           0        2.650000    0.000000    0.000000
 ---------------------------------------------------------------------

 SCF Done:  E(UB3LYP) =  -100.837791616     a.u. after   27 cycles

 Alpha  occ. eigenvalues --  -24.74761  -1.20781  -0.53938  -0.45266  -0.45266
 Alpha  occ. eigenvalues --   -0.35738
 Alpha virt. eigenvalues --   -0.08955   0.23646   0.31530   0.89692   0.91771
 Alpha virt. eigenvalues --    0.91771   1.05981   1.11647   1.16523   1.16523
 Alpha virt. eigenvalues --    1.43813   1.43813   1.88960   2.24276   2.50031

  Beta  occ. eigenvalues --  -24.71718  -1.12060  -0.42221  -0.42221  -0.35434
  Beta virt. eigenvalues --   -0.25595  -0.08416   0.24083   0.31975   0.93221
  Beta virt. eigenvalues --    0.93221   0.97743   1.08411   1.14192   1.16884
  Beta virt. eigenvalues --    1.16884   1.44126   1.44126   1.89407   2.24859

 Mulliken charges and spin densities:
               1          2
     1  H    0.002219  -0.116997
     2  H    0.026978   0.154145
     3  F   -0.029197   0.962852
 Sum of Mulliken charges =   0.00000   1.00000

 Dipole moment (field-independent basis, Debye):
    X=             -0.5711    Y=             -0.0000    Z=             -0.0000  Tot=              0.5711
 Quadrupole moment (field-independent basis, Debye-Ang):
   XX=             -6.2630   YY=             -7.6446   ZZ=             -7.6446
   XY=             -0.0000   XZ=             -0.0000   YZ=             -0.0000

  Exact polarizability:      49.434       0.000       1.221       0.000       0.000       1.220
 Approx polarizability:      66.196      -0.000       2.064      -0.000      -0.000       2.064

 ******    2 imaginary frequencies (negative Signs) ******

                      1                      2                      3
                      A                      A                      A
 Frequencies --  -1522.5336              -220.4053              1475.6683
 Red. masses --      1.0086                 1.1076                 1.0121
 Frc consts  --      1.3775                 0.0317                 1.2985
 IR Inten    --    470.5671                16.6818                18.9523

                      4
                      A
 Frequencies --   1475.7093
 Red. masses --      1.0121
 Frc consts  --      1.2985
 IR Inten    --     18.9602

 - Thermochemistry -
 -------------------
 Temperature   298.150 Kelvin.  Pressure   1.00000 Atm.
 Atom     1 has atomic number  1 and mass   1.00783

 Molecular mass:    21.01405 amu.
 Principal axes and moments of inertia in atomic units:
                           1         2         3
     Eigenvalues --     0.00000  76.55845  76.55845
           X            1.00000  -0.00000   0.00000
           Y            0.00000   1.00000   0.00000
           Z            0.00000   0.00000   1.00000
 This molecule is a prolate symmetric top.
 Rotational symmetry number  1.
 Rotational temperature (Kelvin)      1.13134
 Rotational constant (GHZ):          23.573377
    2 imaginary frequencies ignored.
 Zero-point vibrational energy      17653.2 (Joules/Mol)
                                    4.21921 (Kcal/Mol)
 Vibrational temperatures:   2123.16  2123.22
          (Kelvin)

 Zero-point correction=                           0.006724 (Hartree/Particle)
 Thermal correction to Energy=                    0.009095
 Thermal correction to Enthalpy=                  0.010039
 Thermal correction to Gibbs Free Energy=        -0.013497
 Sum of electronic and zero-point Energies=           -100.831068
 Sum of electronic and thermal Energies=              -100.828697
 Sum of electronic and thermal Enthalpies=            -100.827752
 Sum of electronic and thermal Free Energies=         -100.851288

                     E (Thermal)             CV                S
                      KCal/Mol        Cal/Mol-Kelvin    Cal/Mol-Kelvin
 Total                    5.707              5.131             49.536
 Electronic               0.000              0.000              1.377
 Translational            0.889              2.981             35.068
 Rotational               0.592              1.987             13.064
 Vibrational              4.226              0.163              0.026

 Normal termination of Gaussian 16 at Fri Aug 22 18:13:36 2025.
