 Gaussian 16, Revision C.01,
 Gaussian 16:  ES64L-G16RevC.01  3-Jul-2019

 -----------------------------------------
 # sp b3lyp/6-311g** Force nosymm scf=(qc)
 -----------------------------------------

 -------------------
 Title Card Required
 -------------------
 Symbolic Z-matrix:
 Charge =  0 Multiplicity = 2

                          Input orientation:
 ---------------------------------------------------------------------
 Center     Atomic      Atomic             Coordinates (Angstroms)
 Number     Number       Type             X           Y           Z
 ---------------------------------------------------------------------
      1          1           0        0.000000    0.000000    0.000000
      2          1           0       -3.100000    0.000000    0.000000
      3          9           0        3.700000    0.000000    0.000000
 ---------------------------------------------------------------------

 SCF Done:  E(UB3LYP) =  -100.759447846     a.u. after   33 cycles

 Alpha  occ. eigenvalues --  -24.75668  -1.21611  -0.54792  -0.46004  -0.46004
 Alpha  occ. eigenvalues --   -0.32363
 Alpha virt. eigenvalues --   -0.07602   0.24853   0.36539   0.87065   0.91304
 Alpha virt. eigenvalues --    0.91304   1.01399   1.25163   1.25163   1.25704
 Alpha virt. eigenvalues --    1.44402   1.44531   1.44531   2.15639   2.39899

  Beta  occ. eigenvalues --  -24.72537  -1.12608  -0.42865  -0.42865  -0.32665
  Beta virt. eigenvalues --   -0.25629  -0.07240   0.24652   0.37098   0.92798
  Beta virt. eigenvalues --    0.92798   0.96327   1.05476   1.24822   1.24822
  Beta virt. eigenvalues --    1.25338   1.44967   1.45097   1.45097   2.15781

 Mulliken charges and spin densities:
               1          2
     1  H    0.005995  -0.987104
     2  H    0.000343   0.994140
     3  F   -0.006338   0.992965
 Sum of Mulliken charges =   0.00000   1.00000

 Dipole moment (field-independent basis, Debye):
    X=             -0.1259    Y=             -0.0000    Z=              0.0000  Tot=              0.1259
 Quadrupole moment (field-independent basis, Debye-Ang):
   XX=             -7.0870   YY=             -7.6322   ZZ=             -7.6322
   XY=             -0.0000   XZ=             -0.0000   YZ=             -0.0000

  Exact polarizability:      19.866      -0.000       2.026       0.000      -0.000       2.026
 Approx polarizability:      14.786      -0.000       1.934      -0.000       0.000       1.934

 ******    2 imaginary frequencies (negative Signs) ******

                      1                      2                      3
                      A                      A                      A
 Frequencies --   -309.5874              -104.0839               108.4169
 Red. masses --      1.0098                 1.1062                 1.0159
 Frc consts  --      0.0570                 0.0071                 0.0070
 IR Inten    --      3.2350                 2.0337                 0.0338

                      4
                      A
 Frequencies --    108.4169
 Red. masses --      1.0159
 Frc consts  --      0.0070
 IR Inten    --      0.0338

 - Thermochemistry -
 -------------------
 Temperature   298.150 Kelvin.  Pressure   1.00000 Atm.
 Atom     1 has atomic number  1 and mass   1.00783

 Molecular mass:    21.01405 amu.
 Principal axes and moments of inertia in atomic units:
                           1         2         3
     Eigenvalues --     0.00000 196.65867 196.65867
           X            1.00000  -0.00000   0.00000
           Y            0.00000   1.00000   0.00000
           Z            0.00000   0.00000   1.00000
 This molecule is a prolate symmetric top.
 Rotational symmetry number  1.
 Rotational temperature (Kelvin)      0.44043
 Rotational constant (GHZ):           9.177023
    2 imaginary frequencies ignored.
 Zero-point vibrational energy       1297.0 (Joules/Mol)
                                    0.30998 (Kcal/Mol)
 Warning -- explicit consideration of   2 degrees of freedom as
           vibrations may cause significant error
 Vibrational temperatures:    155.99   155.99
          (Kelvin)

 Zero-point correction=                           0.000494 (Hartree/Particle)
 Thermal correction to Energy=                    0.004292
 Thermal correction to Enthalpy=                  0.005236
 Thermal correction to Gibbs Free Energy=        -0.022312
 Sum of electronic and zero-point Energies=           -100.758954
 Sum of electronic and thermal Energies=              -100.755156
 Sum of electronic and thermal Enthalpies=            -100.754212
 Sum of electronic and thermal Free Energies=         -100.781759

                     E (Thermal)             CV                S
                      KCal/Mol        Cal/Mol-Kelvin    Cal/Mol-Kelvin
 Total                    2.693              8.853             57.979
 Electronic               0.000              0.000              1.377
 Translational            0.889              2.981             35.068
 Rotational               0.592              1.987             14.939
 Vibrational              1.212              3.885              6.594
 Vibration     1          0.606              1.942              3.297
 Vibration     2          0.606              1.942              3.297

 Normal termination of Gaussian 16 at Sat Aug 23 00:04:17 2025.
