 Gaussian 16, Revision C.01,
 Gaussian 16:  ES64L-G16RevC.01  3-Jul-2019

 -----------------------------------------
 # sp b3lyp/6-311g** Force nosymm scf=(qc)
 -----------------------------------------

 -------------------
 Title Card Required
 -------------------
 Symbolic Z-matrix:
 Charge =  0 Multiplicity = 2

                          Input orientation:
 ---------------------------------------------------------------------
 Center     Atomic      Atomic             Coordinates (Angstroms)
 Number     Number       Type             X           Y           Z
 ---------------------------------------------------------------------
      1          1           0        0.000000    0.000000    0.000000
      2          1           0       -3.100000    0.000000    0.000000
      3          9           0        1.150000    0.000000    0.000000
 ---------------------------------------------------------------------

 SCF Done:  E(UB3LYP) =  -100.937472227     a.u. after    6 cycles

 Alpha  occ. eigenvalues --  -24.64291  -1.12975  -0.48635  -0.37767  -0.37767
 Alpha  occ. eigenvalues --   -0.34237
 Alpha virt. eigenvalues --   -0.03935   0.23513   0.29916   0.93384   0.93384
 Alpha virt. eigenvalues --    1.00208   1.23166   1.23290   1.23290   1.28809
 Alpha virt. eigenvalues --    1.34970   1.34970   1.76002   2.14152   2.30556

  Beta  occ. eigenvalues --  -24.64283  -1.12953  -0.48606  -0.37760  -0.37760
  Beta virt. eigenvalues --   -0.08385  -0.02425   0.28582   0.38110   0.93384
  Beta virt. eigenvalues --    0.93384   1.00228   1.28334   1.34954   1.34954
  Beta virt. eigenvalues --    1.46637   1.46637   1.47107   1.76117   2.30525

 Mulliken charges and spin densities:
               1          2
     1  H    0.346256   0.000511
     2  H    0.002810   0.996675
     3  F   -0.349066   0.002814
 Sum of Mulliken charges =   0.00000   1.00000

 Dipole moment (field-independent basis, Debye):
    X=             -2.2603    Y=              0.0000    Z=             -0.0000  Tot=              2.2603
 Quadrupole moment (field-independent basis, Debye-Ang):
   XX=             -8.6137   YY=             -7.0889   ZZ=             -7.0889
   XY=              0.0000   XZ=             -0.0000   YZ=             -0.0000

  Exact polarizability:       9.553       0.000       2.350      -0.000      -0.000       2.350
 Approx polarizability:      12.593       0.000       2.311       0.000       0.000       2.311

 ******    1 imaginary frequencies (negative Signs) ******

                      1                      2                      3
                      A                      A                      A
 Frequencies --    -87.3201              1199.5530              1199.5530
 Red. masses --      1.0526                 1.0329                 1.0329
 Frc consts  --      0.0047                 0.8757                 0.8757
 IR Inten    --      0.3803               147.8035               147.8035

                      4
                      A
 Frequencies --   1460.1725
 Red. masses --      1.0590
 Frc consts  --      1.3303
 IR Inten    --     82.7988

 - Thermochemistry -
 -------------------
 Temperature   298.150 Kelvin.  Pressure   1.00000 Atm.
 Atom     1 has atomic number  1 and mass   1.00783

 Molecular mass:    21.01405 amu.
 Principal axes and moments of inertia in atomic units:
                           1         2         3
     Eigenvalues --     0.00000  64.73356  64.73356
           X            1.00000  -0.00000   0.00000
           Y            0.00000   1.00000   0.00000
           Z            0.00000   0.00000   1.00000
 This molecule is a prolate symmetric top.
 Rotational symmetry number  1.
 Rotational temperature (Kelvin)      1.33801
 Rotational constant (GHZ):          27.879528
    1 imaginary frequencies ignored.
 Zero-point vibrational energy      23083.6 (Joules/Mol)
                                    5.51712 (Kcal/Mol)
 Vibrational temperatures:   1725.89  1725.89  2100.86
          (Kelvin)

 Zero-point correction=                           0.008792 (Hartree/Particle)
 Thermal correction to Energy=                    0.011192
 Thermal correction to Enthalpy=                  0.012136
 Thermal correction to Gibbs Free Energy=        -0.011275
 Sum of electronic and zero-point Energies=           -100.928680
 Sum of electronic and thermal Energies=              -100.926280
 Sum of electronic and thermal Enthalpies=            -100.925336
 Sum of electronic and thermal Free Energies=         -100.948747

                     E (Thermal)             CV                S
                      KCal/Mol        Cal/Mol-Kelvin    Cal/Mol-Kelvin
 Total                    7.023              5.464             49.273
 Electronic               0.000              0.000              1.377
 Translational            0.889              2.981             35.068
 Rotational               0.592              1.987             12.731
 Vibrational              5.542              0.496              0.097

 Normal termination of Gaussian 16 at Fri Aug 22 16:08:28 2025.
