 Gaussian 16, Revision C.01,
 Gaussian 16:  ES64L-G16RevC.01  3-Jul-2019

 -----------------------------------------
 # sp b3lyp/6-311g** Force nosymm scf=(qc)
 -----------------------------------------

 -------------------
 Title Card Required
 -------------------
 Symbolic Z-matrix:
 Charge =  0 Multiplicity = 2

                          Input orientation:
 ---------------------------------------------------------------------
 Center     Atomic      Atomic             Coordinates (Angstroms)
 Number     Number       Type             X           Y           Z
 ---------------------------------------------------------------------
      1          1           0        0.000000    0.000000    0.000000
      2          1           0       -3.350000    0.000000    0.000000
      3          9           0        3.000000    0.000000    0.000000
 ---------------------------------------------------------------------

 SCF Done:  E(UB3LYP) =  -100.761236729     a.u. after   21 cycles

 Alpha  occ. eigenvalues --  -24.74088  -1.20147  -0.53207  -0.44677  -0.44677
 Alpha  occ. eigenvalues --   -0.32584
 Alpha virt. eigenvalues --   -0.08370   0.24168   0.35899   0.89401   0.92274
 Alpha virt. eigenvalues --    0.92274   1.03913   1.24929   1.24929   1.25203
 Alpha virt. eigenvalues --    1.43602   1.43602   1.43909   2.15025   2.39749

  Beta  occ. eigenvalues --  -24.71060  -1.11472  -0.41647  -0.41647  -0.33741
  Beta virt. eigenvalues --   -0.24777  -0.06845   0.24134   0.37631   0.93735
  Beta virt. eigenvalues --    0.93735   0.98094   1.07654   1.23600   1.23600
  Beta virt. eigenvalues --    1.24158   1.45492   1.45748   1.45748   2.15253

 Mulliken charges and spin densities:
               1          2
     1  H    0.036411  -0.956264
     2  H    0.000661   0.996996
     3  F   -0.037072   0.959268
 Sum of Mulliken charges =  -0.00000   1.00000

 Dipole moment (field-independent basis, Debye):
    X=             -0.5818    Y=              0.0000    Z=             -0.0000  Tot=              0.5818
 Quadrupole moment (field-independent basis, Debye-Ang):
   XX=             -8.2815   YY=             -7.6121   ZZ=             -7.6121
   XY=             -0.0000   XZ=              0.0000   YZ=              0.0000

  Exact polarizability:      32.505      -0.000       2.025       0.000       0.000       2.025
 Approx polarizability:      32.781      -0.000       1.926       0.000      -0.000       1.926

 ******    2 imaginary frequencies (negative Signs) ******

                      1                      2                      3
                      A                      A                      A
 Frequencies --   -389.9216              -137.4658               139.1105
 Red. masses --      1.0417                 1.0702                 1.0193
 Frc consts  --      0.0933                 0.0119                 0.0116
 IR Inten    --     38.6212                 1.3182                 1.2259

                      4
                      A
 Frequencies --    139.1105
 Red. masses --      1.0193
 Frc consts  --      0.0116
 IR Inten    --      1.2259

 - Thermochemistry -
 -------------------
 Temperature   298.150 Kelvin.  Pressure   1.00000 Atm.
 Atom     1 has atomic number  1 and mass   1.00783

 Molecular mass:    21.01405 amu.
 Principal axes and moments of inertia in atomic units:
                           1         2         3
     Eigenvalues --     0.00000 162.42237 162.42237
           X            1.00000  -0.00000   0.00000
           Y            0.00000   1.00000   0.00000
           Z            0.00000   0.00000   1.00000
 This molecule is a prolate symmetric top.
 Rotational symmetry number  1.
 Rotational temperature (Kelvin)      0.53326
 Rotational constant (GHZ):          11.111408
    2 imaginary frequencies ignored.
 Zero-point vibrational energy       1664.1 (Joules/Mol)
                                    0.39774 (Kcal/Mol)
 Warning -- explicit consideration of   2 degrees of freedom as
           vibrations may cause significant error
 Vibrational temperatures:    200.15   200.15
          (Kelvin)

 Zero-point correction=                           0.000634 (Hartree/Particle)
 Thermal correction to Energy=                    0.004319
 Thermal correction to Enthalpy=                  0.005263
 Thermal correction to Gibbs Free Energy=        -0.021646
 Sum of electronic and zero-point Energies=           -100.760603
 Sum of electronic and thermal Energies=              -100.756918
 Sum of electronic and thermal Enthalpies=            -100.755973
 Sum of electronic and thermal Free Energies=         -100.782883

                     E (Thermal)             CV                S
                      KCal/Mol        Cal/Mol-Kelvin    Cal/Mol-Kelvin
 Total                    2.710              8.796             56.637
 Electronic               0.000              0.000              1.377
 Translational            0.889              2.981             35.068
 Rotational               0.592              1.987             14.559
 Vibrational              1.229              3.828              5.632
 Vibration     1          0.615              1.914              2.816
 Vibration     2          0.615              1.914              2.816

 Normal termination of Gaussian 16 at Fri Aug 22 19:33:00 2025.
