 Gaussian 16, Revision C.01,
 Gaussian 16:  ES64L-G16RevC.01  3-Jul-2019

 -----------------------------------------
 # sp b3lyp/6-311g** Force nosymm scf=(qc)
 -----------------------------------------

 -------------------
 Title Card Required
 -------------------
 Symbolic Z-matrix:
 Charge =  0 Multiplicity = 2

                          Input orientation:
 ---------------------------------------------------------------------
 Center     Atomic      Atomic             Coordinates (Angstroms)
 Number     Number       Type             X           Y           Z
 ---------------------------------------------------------------------
      1          1           0        0.000000    0.000000    0.000000
      2          1           0       -1.050000    0.000000    0.000000
      3          9           0        3.900000    0.000000    0.000000
 ---------------------------------------------------------------------

 SCF Done:  E(UB3LYP) =  -100.898362087     a.u. after   17 cycles

 Alpha  occ. eigenvalues --  -24.76213  -1.22111  -0.55314  -0.46490  -0.46470
 Alpha  occ. eigenvalues --   -0.38180
 Alpha virt. eigenvalues --   -0.00769   0.21782   0.37456   0.86057   0.90934
 Alpha virt. eigenvalues --    0.91502   1.00971   1.09919   1.09921   1.33603
 Alpha virt. eigenvalues --    1.62826   1.62828   2.19636   2.35123   2.56171

  Beta  occ. eigenvalues --  -24.73058  -1.13037  -0.43327  -0.43307  -0.38179
  Beta virt. eigenvalues --   -0.25963  -0.00767   0.21785   0.37470   0.92434
  Beta virt. eigenvalues --    0.92995   0.95523   1.05116   1.09919   1.09921
  Beta virt. eigenvalues --    1.33605   1.62826   1.62828   2.19639   2.35124

 Mulliken charges and spin densities:
               1          2
     1  H    0.000785  -0.000098
     2  H   -0.001954  -0.000030
     3  F    0.001169   1.000128
 Sum of Mulliken charges =   0.00000   1.00000

 Dipole moment (field-independent basis, Debye):
    X=              0.0226    Y=             -0.0000    Z=             -0.0000  Tot=              0.0226
 Quadrupole moment (field-independent basis, Debye-Ang):
   XX=             -6.3373   YY=             -6.4822   ZZ=             -7.3146
   XY=              0.0000   XZ=              0.0000   YZ=              0.1169

  Exact polarizability:      12.852       0.000       2.526       0.000       0.063       2.076
 Approx polarizability:      17.542       0.000       2.683       0.000       0.079       2.122

 ******    1 imaginary frequencies (negative Signs) ******

                      1                      2                      3
                      A                      A                      A
 Frequencies --    -54.9715              1410.9229              1543.2851
 Red. masses --      1.1085                 1.0078                 1.0092
 Frc consts  --      0.0020                 1.1821                 1.4162
 IR Inten    --      0.0463                 0.0517                 0.0017

                      4
                      A
 Frequencies --   1544.7257
 Red. masses --      1.0092
 Frc consts  --      1.4189
 IR Inten    --      0.0007

 - Thermochemistry -
 -------------------
 Temperature   298.150 Kelvin.  Pressure   1.00000 Atm.
 Atom     1 has atomic number  1 and mass   1.00783

 Molecular mass:    21.01405 amu.
 Principal axes and moments of inertia in atomic units:
                           1         2         3
     Eigenvalues --     0.00000 129.40662 129.40662
           X            1.00000  -0.00000   0.00000
           Y            0.00000   1.00000   0.00000
           Z            0.00000   0.00000   1.00000
 This molecule is a prolate symmetric top.
 Rotational symmetry number  1.
 Rotational temperature (Kelvin)      0.66932
 Rotational constant (GHZ):          13.946282
    1 imaginary frequencies ignored.
 Zero-point vibrational energy      26909.6 (Joules/Mol)
                                    6.43155 (Kcal/Mol)
 Vibrational temperatures:   2030.00  2220.44  2222.52
          (Kelvin)

 Zero-point correction=                           0.010249 (Hartree/Particle)
 Thermal correction to Energy=                    0.012625
 Thermal correction to Enthalpy=                  0.013569
 Thermal correction to Gibbs Free Energy=        -0.010467
 Sum of electronic and zero-point Energies=           -100.888113
 Sum of electronic and thermal Energies=              -100.885737
 Sum of electronic and thermal Enthalpies=            -100.884793
 Sum of electronic and thermal Free Energies=         -100.908830

                     E (Thermal)             CV                S
                      KCal/Mol        Cal/Mol-Kelvin    Cal/Mol-Kelvin
 Total                    7.922              5.198             50.589
 Electronic               0.000              0.000              1.377
 Translational            0.889              2.981             35.068
 Rotational               0.592              1.987             14.107
 Vibrational              6.441              0.230              0.037

 Normal termination of Gaussian 16 at Sat Aug 23 01:15:20 2025.
