 Gaussian 16, Revision C.01,
 Gaussian 16:  ES64L-G16RevC.01  3-Jul-2019

 -----------------------------------------
 # sp b3lyp/6-311g** Force nosymm scf=(qc)
 -----------------------------------------

 -------------------
 Title Card Required
 -------------------
 Symbolic Z-matrix:
 Charge =  0 Multiplicity = 2

                          Input orientation:
 ---------------------------------------------------------------------
 Center     Atomic      Atomic             Coordinates (Angstroms)
 Number     Number       Type             X           Y           Z
 ---------------------------------------------------------------------
      1          1           0        0.000000    0.000000    0.000000
      2          1           0       -4.000000    0.000000    0.000000
      3          9           0        2.450000    0.000000    0.000000
 ---------------------------------------------------------------------

 SCF Done:  E(UB3LYP) =  -100.768382404     a.u. after   18 cycles

 Alpha  occ. eigenvalues --  -24.71432  -1.17667  -0.50531  -0.42455  -0.42455
 Alpha  occ. eigenvalues --   -0.32767
 Alpha virt. eigenvalues --   -0.10526   0.23401   0.34806   0.89371   0.93771
 Alpha virt. eigenvalues --    0.93771   1.06187   1.24733   1.24733   1.24739
 Alpha virt. eigenvalues --    1.39979   1.39979   1.45293   2.14005   2.36317

  Beta  occ. eigenvalues --  -24.68619  -1.09670  -0.39653  -0.39653  -0.35566
  Beta virt. eigenvalues --   -0.23134  -0.06041   0.23639   0.38106   0.95109
  Beta virt. eigenvalues --    0.95109   0.95124   1.08392   1.21944   1.21944
  Beta virt. eigenvalues --    1.31269   1.46573   1.46710   1.46710   2.11996

 Mulliken charges and spin densities:
               1          2
     1  H    0.097996  -0.887831
     2  H    0.000263   0.999394
     3  F   -0.098259   0.888437
 Sum of Mulliken charges =   0.00000   1.00000

 Dipole moment (field-independent basis, Debye):
    X=             -1.2266    Y=             -0.0000    Z=             -0.0000  Tot=              1.2266
 Quadrupole moment (field-independent basis, Debye-Ang):
   XX=             -9.4527   YY=             -7.5605   ZZ=             -7.5605
   XY=             -0.0000   XZ=             -0.0000   YZ=              0.0000

  Exact polarizability:      29.387      -0.000       2.028      -0.000      -0.000       2.028
 Approx polarizability:      38.307       0.000       1.921       0.000       0.000       1.921

 ******    2 imaginary frequencies (negative Signs) ******

                      1                      2                      3
                      A                      A                      A
 Frequencies --   -643.9872               -68.6766               256.9524
 Red. masses --      1.0571                 1.0545                 1.0248
 Frc consts  --      0.2583                 0.0029                 0.0399
 IR Inten    --     85.1794                 0.0307                 9.4173

                      4
                      A
 Frequencies --    256.9524
 Red. masses --      1.0248
 Frc consts  --      0.0399
 IR Inten    --      9.4173

 - Thermochemistry -
 -------------------
 Temperature   298.150 Kelvin.  Pressure   1.00000 Atm.
 Atom     1 has atomic number  1 and mass   1.00783

 Molecular mass:    21.01405 amu.
 Principal axes and moments of inertia in atomic units:
                           1         2         3
     Eigenvalues --     0.00000 157.65861 157.65861
           X            1.00000  -0.00000   0.00000
           Y            0.00000   1.00000   0.00000
           Z            0.00000   0.00000   1.00000
 This molecule is a prolate symmetric top.
 Rotational symmetry number  1.
 Rotational temperature (Kelvin)      0.54938
 Rotational constant (GHZ):          11.447147
    2 imaginary frequencies ignored.
 Zero-point vibrational energy       3073.8 (Joules/Mol)
                                    0.73466 (Kcal/Mol)
 Warning -- explicit consideration of   2 degrees of freedom as
           vibrations may cause significant error
 Vibrational temperatures:    369.70   369.70
          (Kelvin)

 Zero-point correction=                           0.001171 (Hartree/Particle)
 Thermal correction to Energy=                    0.004485
 Thermal correction to Enthalpy=                  0.005429
 Thermal correction to Gibbs Free Energy=        -0.020375
 Sum of electronic and zero-point Energies=           -100.767212
 Sum of electronic and thermal Energies=              -100.763898
 Sum of electronic and thermal Enthalpies=            -100.762953
 Sum of electronic and thermal Free Energies=         -100.788758

                     E (Thermal)             CV                S
                      KCal/Mol        Cal/Mol-Kelvin    Cal/Mol-Kelvin
 Total                    2.814              8.470             54.310
 Electronic               0.000              0.000              1.377
 Translational            0.889              2.981             35.068
 Rotational               0.592              1.987             14.500
 Vibrational              1.333              3.502              3.365
 Vibration     1          0.667              1.751              1.682
 Vibration     2          0.667              1.751              1.682

 Normal termination of Gaussian 16 at Fri Aug 22 17:40:11 2025.
