 Gaussian 16, Revision C.01,
 Gaussian 16:  ES64L-G16RevC.01  3-Jul-2019

 -----------------------------------------
 # sp b3lyp/6-311g** Force nosymm scf=(qc)
 -----------------------------------------

 -------------------
 Title Card Required
 -------------------
 Symbolic Z-matrix:
 Charge =  0 Multiplicity = 2

                          Input orientation:
 ---------------------------------------------------------------------
 Center     Atomic      Atomic             Coordinates (Angstroms)
 Number     Number       Type             X           Y           Z
 ---------------------------------------------------------------------
      1          1           0        0.000000    0.000000    0.000000
      2          1           0       -1.400000    0.000000    0.000000
      3          9           0        1.700000    0.000000    0.000000
 ---------------------------------------------------------------------

 SCF Done:  E(UB3LYP) =  -100.863945214     a.u. after   13 cycles

 Alpha  occ. eigenvalues --  -24.67613  -1.14171  -0.48323  -0.39391  -0.39391
 Alpha  occ. eigenvalues --   -0.39149
 Alpha virt. eigenvalues --   -0.07520   0.21185   0.30372   0.91399   0.93213
 Alpha virt. eigenvalues --    0.93213   1.03505   1.13754   1.13754   1.42702
 Alpha virt. eigenvalues --    1.42702   1.42764   1.93570   2.21543   2.47004

  Beta  occ. eigenvalues --  -24.65449  -1.08199  -0.39823  -0.37276  -0.37276
  Beta virt. eigenvalues --   -0.23060  -0.04865   0.23574   0.30843   0.93735
  Beta virt. eigenvalues --    0.93735   0.95800   1.07234   1.17493   1.17493
  Beta virt. eigenvalues --    1.43926   1.43926   1.47440   1.96673   2.23288

 Mulliken charges and spin densities:
               1          2
     1  H    0.153309  -0.264778
     2  H    0.071393   0.590402
     3  F   -0.224702   0.674376
 Sum of Mulliken charges =  -0.00000   1.00000

 Dipole moment (field-independent basis, Debye):
    X=             -2.3407    Y=             -0.0000    Z=             -0.0000  Tot=              2.3407
 Quadrupole moment (field-independent basis, Debye-Ang):
   XX=             -7.8555   YY=             -7.3456   ZZ=             -7.3456
   XY=             -0.0000   XZ=             -0.0000   YZ=              0.0000

  Exact polarizability:      42.455      -0.000       2.234      -0.000       0.000       2.234
 Approx polarizability:      65.896       0.000       2.181       0.000      -0.000       2.181

 ******    2 imaginary frequencies (negative Signs) ******

                      1                      2                      3
                      A                      A                      A
 Frequencies --  -2434.2459              -450.1524              1136.1592
 Red. masses --      1.0182                 1.0962                 1.0158
 Frc consts  --      3.5549                 0.1309                 0.7725
 IR Inten    --    888.6525                 0.1663                 7.6200

                      4
                      A
 Frequencies --   1136.1592
 Red. masses --      1.0158
 Frc consts  --      0.7725
 IR Inten    --      7.6200

 - Thermochemistry -
 -------------------
 Temperature   298.150 Kelvin.  Pressure   1.00000 Atm.
 Atom     1 has atomic number  1 and mass   1.00783

 Molecular mass:    21.01405 amu.
 Principal axes and moments of inertia in atomic units:
                           1         2         3
     Eigenvalues --     0.00000  41.01074  41.01074
           X            1.00000  -0.00000   0.00000
           Y            0.00000   1.00000   0.00000
           Z            0.00000   0.00000   1.00000
 This molecule is a prolate symmetric top.
 Rotational symmetry number  1.
 Rotational temperature (Kelvin)      2.11198
 Rotational constant (GHZ):          44.006547
    2 imaginary frequencies ignored.
 Zero-point vibrational energy      13591.5 (Joules/Mol)
                                    3.24844 (Kcal/Mol)
 Vibrational temperatures:   1634.68  1634.68
          (Kelvin)

 Zero-point correction=                           0.005177 (Hartree/Particle)
 Thermal correction to Energy=                    0.007580
 Thermal correction to Enthalpy=                  0.008525
 Thermal correction to Gibbs Free Energy=        -0.014461
 Sum of electronic and zero-point Energies=           -100.858768
 Sum of electronic and thermal Energies=              -100.856365
 Sum of electronic and thermal Enthalpies=            -100.855421
 Sum of electronic and thermal Free Energies=         -100.878406

                     E (Thermal)             CV                S
                      KCal/Mol        Cal/Mol-Kelvin    Cal/Mol-Kelvin
 Total                    4.757              5.469             48.377
 Electronic               0.000              0.000              1.377
 Translational            0.889              2.981             35.068
 Rotational               0.592              1.987             11.824
 Vibrational              3.276              0.501              0.108

 Normal termination of Gaussian 16 at Fri Aug 22 16:36:53 2025.
