 Gaussian 16, Revision C.01,
 Gaussian 16:  ES64L-G16RevC.01  3-Jul-2019

 -----------------------------------------
 # sp b3lyp/6-311g** Force nosymm scf=(qc)
 -----------------------------------------

 -------------------
 Title Card Required
 -------------------
 Symbolic Z-matrix:
 Charge =  0 Multiplicity = 2

                          Input orientation:
 ---------------------------------------------------------------------
 Center     Atomic      Atomic             Coordinates (Angstroms)
 Number     Number       Type             X           Y           Z
 ---------------------------------------------------------------------
      1          1           0        0.000000    0.000000    0.000000
      2          1           0       -2.600000    0.000000    0.000000
      3          9           0        3.800000    0.000000    0.000000
 ---------------------------------------------------------------------

 SCF Done:  E(UB3LYP) =  -100.761664827     a.u. after   36 cycles

 Alpha  occ. eigenvalues --  -24.75788  -1.21722  -0.54912  -0.46106  -0.46106
 Alpha  occ. eigenvalues --   -0.32510
 Alpha virt. eigenvalues --   -0.08933   0.25654   0.35019   0.86845   0.91226
 Alpha virt. eigenvalues --    0.91226   1.01239   1.25104   1.25104   1.26613
 Alpha virt. eigenvalues --    1.42323   1.42323   1.43350   2.16027   2.37496

  Beta  occ. eigenvalues --  -24.72649  -1.12698  -0.42960  -0.42960  -0.32702
  Beta virt. eigenvalues --   -0.25696  -0.08655   0.25473   0.35413   0.92723
  Beta virt. eigenvalues --    0.92723   0.96166   1.05346   1.24889   1.24889
  Beta virt. eigenvalues --    1.26366   1.42737   1.42737   1.43762   2.16199

 Mulliken charges and spin densities:
               1          2
     1  H    0.003333  -0.972383
     2  H    0.000990   0.977266
     3  F   -0.004323   0.995117
 Sum of Mulliken charges =   0.00000   1.00000

 Dipole moment (field-independent basis, Debye):
    X=             -0.0968    Y=             -0.0000    Z=              0.0000  Tot=              0.0968
 Quadrupole moment (field-independent basis, Debye-Ang):
   XX=             -6.8454   YY=             -7.6587   ZZ=             -7.6587
   XY=             -0.0000   XZ=              0.0000   YZ=             -0.0000

  Exact polarizability:      22.227      -0.000       2.022       0.000      -0.000       2.022
 Approx polarizability:      16.493      -0.000       1.931       0.000      -0.000       1.931

 ******    2 imaginary frequencies (negative Signs) ******

                      1                      2                      3
                      A                      A                      A
 Frequencies --   -575.3436               -95.4118               210.4385
 Red. masses --      1.0079                 1.1084                 1.0140
 Frc consts  --      0.1966                 0.0059                 0.0265
 IR Inten    --      1.5838                 1.7126                 0.0081

                      4
                      A
 Frequencies --    210.4385
 Red. masses --      1.0140
 Frc consts  --      0.0265
 IR Inten    --      0.0081

 - Thermochemistry -
 -------------------
 Temperature   298.150 Kelvin.  Pressure   1.00000 Atm.
 Atom     1 has atomic number  1 and mass   1.00783

 Molecular mass:    21.01405 amu.
 Principal axes and moments of inertia in atomic units:
                           1         2         3
     Eigenvalues --     0.00000 181.42705 181.42705
           X            1.00000  -0.00000   0.00000
           Y            0.00000   1.00000   0.00000
           Z            0.00000   0.00000   1.00000
 This molecule is a prolate symmetric top.
 Rotational symmetry number  1.
 Rotational temperature (Kelvin)      0.47740
 Rotational constant (GHZ):           9.947476
    2 imaginary frequencies ignored.
 Zero-point vibrational energy       2517.4 (Joules/Mol)
                                    0.60167 (Kcal/Mol)
 Warning -- explicit consideration of   2 degrees of freedom as
           vibrations may cause significant error
 Vibrational temperatures:    302.77   302.77
          (Kelvin)

 Zero-point correction=                           0.000959 (Hartree/Particle)
 Thermal correction to Energy=                    0.004408
 Thermal correction to Enthalpy=                  0.005353
 Thermal correction to Gibbs Free Energy=        -0.020924
 Sum of electronic and zero-point Energies=           -100.760706
 Sum of electronic and thermal Energies=              -100.757256
 Sum of electronic and thermal Enthalpies=            -100.756312
 Sum of electronic and thermal Free Energies=         -100.782589

                     E (Thermal)             CV                S
                      KCal/Mol        Cal/Mol-Kelvin    Cal/Mol-Kelvin
 Total                    2.766              8.618             55.304
 Electronic               0.000              0.000              1.377
 Translational            0.889              2.981             35.068
 Rotational               0.592              1.987             14.779
 Vibrational              1.285              3.650              4.080
 Vibration     1          0.643              1.825              2.040
 Vibration     2          0.643              1.825              2.040

 Normal termination of Gaussian 16 at Sat Aug 23 00:50:42 2025.
