 Gaussian 16, Revision C.01,
 Gaussian 16:  ES64L-G16RevC.01  3-Jul-2019

 -----------------------------------------
 # sp b3lyp/6-311g** Force nosymm scf=(qc)
 -----------------------------------------

 -------------------
 Title Card Required
 -------------------
 Symbolic Z-matrix:
 Charge =  0 Multiplicity = 2

                          Input orientation:
 ---------------------------------------------------------------------
 Center     Atomic      Atomic             Coordinates (Angstroms)
 Number     Number       Type             X           Y           Z
 ---------------------------------------------------------------------
      1          1           0        0.000000    0.000000    0.000000
      2          1           0       -4.000000    0.000000    0.000000
      3          9           0        0.800000    0.000000    0.000000
 ---------------------------------------------------------------------

 SCF Done:  E(UB3LYP) =  -100.950275196     a.u. after    6 cycles

 Alpha  occ. eigenvalues --  -24.63683  -1.23049  -0.56194  -0.40658  -0.40658
 Alpha  occ. eigenvalues --   -0.33217
 Alpha virt. eigenvalues --    0.05085   0.24103   0.45976   0.94197   0.94197
 Alpha virt. eigenvalues --    0.96991   1.24214   1.24287   1.24287   1.29113
 Alpha virt. eigenvalues --    1.39806   1.39806   2.02010   2.14348   2.53050

  Beta  occ. eigenvalues --  -24.63682  -1.23048  -0.56194  -0.40658  -0.40658
  Beta virt. eigenvalues --   -0.04756   0.05210   0.38958   0.46056   0.94197
  Beta virt. eigenvalues --    0.94197   0.96989   1.29025   1.39806   1.39806
  Beta virt. eigenvalues --    1.50693   1.50842   1.50842   2.02214   2.44807

 Mulliken charges and spin densities:
               1          2
     1  H    0.275178   0.000253
     2  H    0.000296   0.999671
     3  F   -0.275474   0.000076
 Sum of Mulliken charges =   0.00000   1.00000

 Dipole moment (field-independent basis, Debye):
    X=             -1.7340    Y=              0.0000    Z=              0.0000  Tot=              1.7340
 Quadrupole moment (field-independent basis, Debye-Ang):
   XX=             -7.6427   YY=             -6.7693   ZZ=             -6.7693
   XY=              0.0000   XZ=              0.0000   YZ=              0.0000

  Exact polarizability:       4.380      -0.000       2.439       0.000       0.000       2.439
 Approx polarizability:       4.982      -0.000       2.418      -0.000       0.000       2.418

 ******    3 imaginary frequencies (negative Signs) ******

                      1                      2                      3
                      A                      A                      A
 Frequencies --  -1986.7207             -1986.7207               -26.7626
 Red. masses --      1.0420                 1.0420                 1.0532
 Frc consts  --      2.4231                 2.4231                 0.0004
 IR Inten    --    198.5459               198.5459                 0.0076

                      4
                      A
 Frequencies --   6349.9439
 Red. masses --      1.0583
 Frc consts  --     25.1422
 IR Inten    --    103.0610

 - Thermochemistry -
 -------------------
 Temperature   298.150 Kelvin.  Pressure   1.00000 Atm.
 Atom     1 has atomic number  1 and mass   1.00783

 Molecular mass:    21.01405 amu.
 Principal axes and moments of inertia in atomic units:
                           1         2         3
     Eigenvalues --     0.00000  79.81157  79.81157
           X            1.00000  -0.00000   0.00000
           Y            0.00000   1.00000   0.00000
           Z            0.00000   0.00000   1.00000
 This molecule is a prolate symmetric top.
 Rotational symmetry number  1.
 Rotational temperature (Kelvin)      1.08523
 Rotational constant (GHZ):          22.612526
    3 imaginary frequencies ignored.
 Zero-point vibrational energy      37981.1 (Joules/Mol)
                                    9.07770 (Kcal/Mol)
 Vibrational temperatures:   9136.15
          (Kelvin)

 Zero-point correction=                           0.014466 (Hartree/Particle)
 Thermal correction to Energy=                    0.016827
 Thermal correction to Enthalpy=                  0.017771
 Thermal correction to Gibbs Free Energy=        -0.005792
 Sum of electronic and zero-point Energies=           -100.935809
 Sum of electronic and thermal Energies=              -100.933448
 Sum of electronic and thermal Enthalpies=            -100.932504
 Sum of electronic and thermal Free Energies=         -100.956067

                     E (Thermal)             CV                S
                      KCal/Mol        Cal/Mol-Kelvin    Cal/Mol-Kelvin
 Total                   10.559              4.968             49.592
 Electronic               0.000              0.000              1.377
 Translational            0.889              2.981             35.068
 Rotational               0.592              1.987             13.147
 Vibrational              9.078              0.000              0.000

 Normal termination of Gaussian 16 at Fri Aug 22 15:52:23 2025.
