 Gaussian 16, Revision C.01,
 Gaussian 16:  ES64L-G16RevC.01  3-Jul-2019

 -----------------------------------------
 # sp b3lyp/6-311g** Force nosymm scf=(qc)
 -----------------------------------------

 -------------------
 Title Card Required
 -------------------
 Symbolic Z-matrix:
 Charge =  0 Multiplicity = 2

                          Input orientation:
 ---------------------------------------------------------------------
 Center     Atomic      Atomic             Coordinates (Angstroms)
 Number     Number       Type             X           Y           Z
 ---------------------------------------------------------------------
      1          1           0        0.000000    0.000000    0.000000
      2          1           0       -1.100000    0.000000    0.000000
      3          9           0        2.150000    0.000000    0.000000
 ---------------------------------------------------------------------

 SCF Done:  E(UB3LYP) =  -100.892799857     a.u. after   12 cycles

 Alpha  occ. eigenvalues --  -24.73927  -1.20046  -0.53417  -0.44598  -0.44598
 Alpha  occ. eigenvalues --   -0.39544
 Alpha virt. eigenvalues --   -0.02119   0.21700   0.36380   0.88899   0.91722
 Alpha virt. eigenvalues --    0.91722   1.08847   1.08847   1.08955   1.37946
 Alpha virt. eigenvalues --    1.57933   1.57933   2.15232   2.32165   2.55090

  Beta  occ. eigenvalues --  -24.70972  -1.11625  -0.41651  -0.41651  -0.39294
  Beta virt. eigenvalues --   -0.25425  -0.01039   0.22305   0.36845   0.93085
  Beta virt. eigenvalues --    0.93085   0.96496   1.09607   1.09607   1.11982
  Beta virt. eigenvalues --    1.40200   1.58491   1.58491   2.16232   2.33006

 Mulliken charges and spin densities:
               1          2
     1  H    0.014375  -0.059750
     2  H    0.038688   0.129857
     3  F   -0.053063   0.929893
 Sum of Mulliken charges =   0.00000   1.00000

 Dipole moment (field-independent basis, Debye):
    X=             -0.7624    Y=             -0.0000    Z=              0.0000  Tot=              0.7624
 Quadrupole moment (field-independent basis, Debye-Ang):
   XX=             -6.4323   YY=             -7.3259   ZZ=             -7.3259
   XY=             -0.0000   XZ=              0.0000   YZ=              0.0000

  Exact polarizability:      34.787       0.000       2.147      -0.000      -0.000       2.147
 Approx polarizability:      45.131       0.000       2.162      -0.000       0.000       2.162

 ******    1 imaginary frequencies (negative Signs) ******

                      1                      2                      3
                      A                      A                      A
 Frequencies --   -569.8854               677.6087              1457.3483
 Red. masses --      1.0810                 1.0317                 1.0119
 Frc consts  --      0.2068                 0.2791                 1.2662
 IR Inten    --    325.0547               264.9069                 0.0215

                      4
                      A
 Frequencies --   1457.3483
 Red. masses --      1.0119
 Frc consts  --      1.2662
 IR Inten    --      0.0215

 - Thermochemistry -
 -------------------
 Temperature   298.150 Kelvin.  Pressure   1.00000 Atm.
 Atom     1 has atomic number  1 and mass   1.00783

 Molecular mass:    21.01405 amu.
 Principal axes and moments of inertia in atomic units:
                           1         2         3
     Eigenvalues --     0.00000  49.61773  49.61773
           X            1.00000  -0.00000   0.00000
           Y            0.00000   1.00000   0.00000
           Z            0.00000   0.00000   1.00000
 This molecule is a prolate symmetric top.
 Rotational symmetry number  1.
 Rotational temperature (Kelvin)      1.74562
 Rotational constant (GHZ):          36.372912
    1 imaginary frequencies ignored.
 Zero-point vibrational energy      21486.8 (Joules/Mol)
                                    5.13546 (Kcal/Mol)
 Vibrational temperatures:    974.93  2096.80  2096.80
          (Kelvin)

 Zero-point correction=                           0.008184 (Hartree/Particle)
 Thermal correction to Energy=                    0.010678
 Thermal correction to Enthalpy=                  0.011622
 Thermal correction to Gibbs Free Energy=        -0.011664
 Sum of electronic and zero-point Energies=           -100.884616
 Sum of electronic and thermal Energies=              -100.882122
 Sum of electronic and thermal Enthalpies=            -100.881178
 Sum of electronic and thermal Free Energies=         -100.904464

                     E (Thermal)             CV                S
                      KCal/Mol        Cal/Mol-Kelvin    Cal/Mol-Kelvin
 Total                    6.701              6.015             49.010
 Electronic               0.000              0.000              1.377
 Translational            0.889              2.981             35.068
 Rotational               0.592              1.987             12.202
 Vibrational              5.219              1.046              0.362

 Normal termination of Gaussian 16 at Fri Aug 22 17:06:49 2025.
