 Gaussian 16, Revision C.01,
 Gaussian 16:  ES64L-G16RevC.01  3-Jul-2019

 -----------------------------------------
 # sp b3lyp/6-311g** Force nosymm scf=(qc)
 -----------------------------------------

 -------------------
 Title Card Required
 -------------------
 Symbolic Z-matrix:
 Charge =  0 Multiplicity = 2

                          Input orientation:
 ---------------------------------------------------------------------
 Center     Atomic      Atomic             Coordinates (Angstroms)
 Number     Number       Type             X           Y           Z
 ---------------------------------------------------------------------
      1          1           0        0.000000    0.000000    0.000000
      2          1           0       -2.000000    0.000000    0.000000
      3          9           0        2.600000    0.000000    0.000000
 ---------------------------------------------------------------------

 SCF Done:  E(UB3LYP) =  -100.780312868     a.u. after   20 cycles

 Alpha  occ. eigenvalues --  -24.72489  -1.18648  -0.51600  -0.43326  -0.43326
 Alpha  occ. eigenvalues --   -0.34563
 Alpha virt. eigenvalues --   -0.12536   0.24978   0.31958   0.90225   0.93221
 Alpha virt. eigenvalues --    0.93221   1.05768   1.19271   1.23379   1.23379
 Alpha virt. eigenvalues --    1.35533   1.35533   1.49267   2.11536   2.35414

  Beta  occ. eigenvalues --  -24.69586  -1.10367  -0.40428  -0.40428  -0.34844
  Beta virt. eigenvalues --   -0.23954  -0.11511   0.26460   0.32056   0.94625
  Beta virt. eigenvalues --    0.94625   0.97762   1.08900   1.21100   1.23120
  Beta virt. eigenvalues --    1.23120   1.37178   1.37178   1.50145   2.12429

 Mulliken charges and spin densities:
               1          2
     1  H    0.045396  -0.784709
     2  H    0.025865   0.866700
     3  F   -0.071261   0.918009
 Sum of Mulliken charges =  -0.00000   1.00000

 Dipole moment (field-independent basis, Debye):
    X=             -1.1934    Y=              0.0000    Z=             -0.0000  Tot=              1.1934
 Quadrupole moment (field-independent basis, Debye-Ang):
   XX=             -8.0035   YY=             -7.6743   ZZ=             -7.6743
   XY=              0.0000   XZ=             -0.0000   YZ=              0.0000

  Exact polarizability:      60.020       0.000       2.006      -0.000      -0.000       2.006
 Approx polarizability:      62.501       0.000       1.929      -0.000      -0.000       1.929

 ******    2 imaginary frequencies (negative Signs) ******

                      1                      2                      3
                      A                      A                      A
 Frequencies --  -1386.9482              -356.9854               559.5527
 Red. masses --      1.0088                 1.1074                 1.0151
 Frc consts  --      1.1433                 0.0831                 0.1873
 IR Inten    --     68.3672                47.3497                 1.0457

                      4
                      A
 Frequencies --    559.5527
 Red. masses --      1.0151
 Frc consts  --      0.1873
 IR Inten    --      1.0457

 - Thermochemistry -
 -------------------
 Temperature   298.150 Kelvin.  Pressure   1.00000 Atm.
 Atom     1 has atomic number  1 and mass   1.00783

 Molecular mass:    21.01405 amu.
 Principal axes and moments of inertia in atomic units:
                           1         2         3
     Eigenvalues --     0.00000  91.53638  91.53638
           X            1.00000  -0.00000   0.00000
           Y            0.00000   1.00000   0.00000
           Z            0.00000   0.00000   1.00000
 This molecule is a prolate symmetric top.
 Rotational symmetry number  1.
 Rotational temperature (Kelvin)      0.94622
 Rotational constant (GHZ):          19.716109
    2 imaginary frequencies ignored.
 Zero-point vibrational energy       6693.7 (Joules/Mol)
                                    1.59984 (Kcal/Mol)
 Warning -- explicit consideration of   2 degrees of freedom as
           vibrations may cause significant error
 Vibrational temperatures:    805.07   805.07
          (Kelvin)

 Zero-point correction=                           0.002550 (Hartree/Particle)
 Thermal correction to Energy=                    0.005277
 Thermal correction to Enthalpy=                  0.006221
 Thermal correction to Gibbs Free Energy=        -0.017970
 Sum of electronic and zero-point Energies=           -100.777763
 Sum of electronic and thermal Energies=              -100.775036
 Sum of electronic and thermal Enthalpies=            -100.774091
 Sum of electronic and thermal Free Energies=         -100.798282

                     E (Thermal)             CV                S
                      KCal/Mol        Cal/Mol-Kelvin    Cal/Mol-Kelvin
 Total                    3.312              7.206             50.914
 Electronic               0.000              0.000              1.377
 Translational            0.889              2.981             35.068
 Rotational               0.592              1.987             13.419
 Vibrational              1.830              2.238              1.049
 Vibration     1          0.915              1.119              0.525
 Vibration     2          0.915              1.119              0.525

 Normal termination of Gaussian 16 at Fri Aug 22 18:03:43 2025.
