 Gaussian 16, Revision C.01,
 Gaussian 16:  ES64L-G16RevC.01  3-Jul-2019

 -----------------------------------------
 # sp b3lyp/6-311g** Force nosymm scf=(qc)
 -----------------------------------------

 -------------------
 Title Card Required
 -------------------
 Symbolic Z-matrix:
 Charge =  0 Multiplicity = 2

                          Input orientation:
 ---------------------------------------------------------------------
 Center     Atomic      Atomic             Coordinates (Angstroms)
 Number     Number       Type             X           Y           Z
 ---------------------------------------------------------------------
      1          1           0        0.000000    0.000000    0.000000
      2          1           0       -1.250000    0.000000    0.000000
      3          9           0        1.800000    0.000000    0.000000
 ---------------------------------------------------------------------

 SCF Done:  E(UB3LYP) =  -100.876944535     a.u. after   13 cycles

 Alpha  occ. eigenvalues --  -24.69916  -1.16399  -0.50312  -0.41330  -0.41330
 Alpha  occ. eigenvalues --   -0.39603
 Alpha virt. eigenvalues --   -0.05152   0.21247   0.32143   0.91388   0.92384
 Alpha virt. eigenvalues --    0.92384   1.05019   1.10916   1.10916   1.44164
 Alpha virt. eigenvalues --    1.48985   1.48985   2.04484   2.25805   2.52305

  Beta  occ. eigenvalues --  -24.67397  -1.09358  -0.39754  -0.38848  -0.38848
  Beta virt. eigenvalues --   -0.23997  -0.02879   0.22862   0.32720   0.93312
  Beta virt. eigenvalues --    0.93312   0.96987   1.08268   1.13267   1.13267
  Beta virt. eigenvalues --    1.48121   1.50234   1.50234   2.07022   2.27600

 Mulliken charges and spin densities:
               1          2
     1  H    0.096648  -0.181277
     2  H    0.063327   0.395532
     3  F   -0.159974   0.785745
 Sum of Mulliken charges =  -0.00000   1.00000

 Dipole moment (field-independent basis, Debye):
    X=             -1.7764    Y=             -0.0000    Z=             -0.0000  Tot=              1.7764
 Quadrupole moment (field-independent basis, Debye-Ang):
   XX=             -7.3820   YY=             -7.3341   ZZ=             -7.3341
   XY=             -0.0000   XZ=             -0.0000   YZ=              0.0000

  Exact polarizability:      41.264      -0.000       2.227      -0.000       0.000       2.227
 Approx polarizability:      63.607       0.000       2.199       0.000       0.000       2.199

 ******    2 imaginary frequencies (negative Signs) ******

                      1                      2                      3
                      A                      A                      A
 Frequencies --  -2024.3922              -239.5850              1290.2104
 Red. masses --      1.0181                 1.0964                 1.0141
 Frc consts  --      2.4582                 0.0371                 0.9946
 IR Inten    --   1201.7428                 1.2958                 1.7006

                      4
                      A
 Frequencies --   1290.2104
 Red. masses --      1.0141
 Frc consts  --      0.9946
 IR Inten    --      1.7006

 - Thermochemistry -
 -------------------
 Temperature   298.150 Kelvin.  Pressure   1.00000 Atm.
 Atom     1 has atomic number  1 and mass   1.00783

 Molecular mass:    21.01405 amu.
 Principal axes and moments of inertia in atomic units:
                           1         2         3
     Eigenvalues --     0.00000  41.08042  41.08042
           X            1.00000  -0.00000   0.00000
           Y            0.00000   1.00000   0.00000
           Z            0.00000   0.00000   1.00000
 This molecule is a prolate symmetric top.
 Rotational symmetry number  1.
 Rotational temperature (Kelvin)      2.10840
 Rotational constant (GHZ):          43.931909
    2 imaginary frequencies ignored.
 Zero-point vibrational energy      15434.3 (Joules/Mol)
                                    3.68890 (Kcal/Mol)
 Vibrational temperatures:   1856.33  1856.33
          (Kelvin)

 Zero-point correction=                           0.005879 (Hartree/Particle)
 Thermal correction to Energy=                    0.008262
 Thermal correction to Enthalpy=                  0.009207
 Thermal correction to Gibbs Free Energy=        -0.013756
 Sum of electronic and zero-point Energies=           -100.871066
 Sum of electronic and thermal Energies=              -100.868682
 Sum of electronic and thermal Enthalpies=            -100.867738
 Sum of electronic and thermal Free Energies=         -100.890701

                     E (Thermal)             CV                S
                      KCal/Mol        Cal/Mol-Kelvin    Cal/Mol-Kelvin
 Total                    5.185              5.274             48.329
 Electronic               0.000              0.000              1.377
 Translational            0.889              2.981             35.068
 Rotational               0.592              1.987             11.827
 Vibrational              3.704              0.306              0.057

 Normal termination of Gaussian 16 at Fri Aug 22 16:42:49 2025.
