 Gaussian 16, Revision C.01,
 Gaussian 16:  ES64L-G16RevC.01  3-Jul-2019

 -----------------------------------------
 # sp b3lyp/6-311g** Force nosymm scf=(qc)
 -----------------------------------------

 -------------------
 Title Card Required
 -------------------
 Symbolic Z-matrix:
 Charge =  0 Multiplicity = 2

                          Input orientation:
 ---------------------------------------------------------------------
 Center     Atomic      Atomic             Coordinates (Angstroms)
 Number     Number       Type             X           Y           Z
 ---------------------------------------------------------------------
      1          1           0        0.000000    0.000000    0.000000
      2          1           0       -3.000000    0.000000    0.000000
      3          9           0        0.500000    0.000000    0.000000
 ---------------------------------------------------------------------

 SCF Done:  E(UB3LYP) =  -100.269030894     a.u. after    6 cycles

 Alpha  occ. eigenvalues --  -24.63024  -1.42340  -0.63503  -0.44324  -0.44324
 Alpha  occ. eigenvalues --   -0.33623
 Alpha virt. eigenvalues --    0.08410   0.25612   0.62455   0.89008   0.90165
 Alpha virt. eigenvalues --    0.90165   1.22561   1.23901   1.23901   1.40770
 Alpha virt. eigenvalues --    1.58526   1.58526   2.00421   2.15211   3.76642

  Beta  occ. eigenvalues --  -24.63022  -1.42335  -0.63501  -0.44324  -0.44324
  Beta virt. eigenvalues --   -0.05955   0.09332   0.39248   0.62426   0.89021
  Beta virt. eigenvalues --    0.90158   0.90158   1.36074   1.49814   1.49814
  Beta virt. eigenvalues --    1.52769   1.58530   1.58530   2.00123   2.45207

 Mulliken charges and spin densities:
               1          2
     1  H    0.123729   0.001093
     2  H    0.001931   0.997721
     3  F   -0.125661   0.001186
 Sum of Mulliken charges =   0.00000   1.00000

 Dipole moment (field-independent basis, Debye):
    X=             -1.3171    Y=             -0.0000    Z=             -0.0000  Tot=              1.3171
 Quadrupole moment (field-independent basis, Debye-Ang):
   XX=             -6.5846   YY=             -6.4381   ZZ=             -6.4381
   XY=             -0.0000   XZ=              0.0000   YZ=              0.0000

  Exact polarizability:       3.556      -0.000       2.421      -0.000       0.000       2.421
 Approx polarizability:       3.645       0.000       2.399      -0.000       0.000       2.399

 ******    2 imaginary frequencies (negative Signs) ******

                      1                      2                      3
                      A                      A                      A
 Frequencies --  -9575.6427             -9575.6427                26.1797
 Red. masses --      1.0442                 1.0442                 1.0532
 Frc consts  --     56.4119                56.4119                 0.0004
 IR Inten    --    277.7907               277.7907                 0.0713

                      4
                      A
 Frequencies --  19159.2085
 Red. masses --      1.0583
 Frc consts  --    228.8857
 IR Inten    --     79.7620

 - Thermochemistry -
 -------------------
 Temperature   298.150 Kelvin.  Pressure   1.00000 Atm.
 Atom     1 has atomic number  1 and mass   1.00783

 Molecular mass:    21.01405 amu.
 Principal axes and moments of inertia in atomic units:
                           1         2         3
     Eigenvalues --     0.00000  42.22590  42.22590
           X            1.00000  -0.00000   0.00000
           Y            0.00000   1.00000   0.00000
           Z            0.00000   0.00000   1.00000
 This molecule is a prolate symmetric top.
 Rotational symmetry number  1.
 Rotational temperature (Kelvin)      2.05120
 Rotational constant (GHZ):          42.740152
    2 imaginary frequencies ignored.
 Zero-point vibrational energy     114754.1 (Joules/Mol)
                                   27.42689 (Kcal/Mol)
 Warning -- explicit consideration of   1 degrees of freedom as
           vibrations may cause significant error
 Vibrational temperatures:     37.67 27565.83
          (Kelvin)

 Zero-point correction=                           0.043708 (Hartree/Particle)
 Thermal correction to Energy=                    0.046954
 Thermal correction to Enthalpy=                  0.047898
 Thermal correction to Gibbs Free Energy=         0.022038
 Sum of electronic and zero-point Energies=           -100.225323
 Sum of electronic and thermal Energies=              -100.222077
 Sum of electronic and thermal Enthalpies=            -100.221133
 Sum of electronic and thermal Free Energies=         -100.246993

                     E (Thermal)             CV                S
                      KCal/Mol        Cal/Mol-Kelvin    Cal/Mol-Kelvin
 Total                   29.464              6.953             54.427
 Electronic               0.000              0.000              1.377
 Translational            0.889              2.981             35.068
 Rotational               0.592              1.987             11.882
 Vibrational             27.983              1.985              6.100
 Vibration     1          0.593              1.985              6.100

 Normal termination of Gaussian 16 at Fri Aug 22 15:37:36 2025.
