 Gaussian 16, Revision C.01,
 Gaussian 16:  ES64L-G16RevC.01  3-Jul-2019

 -----------------------------------------
 # sp b3lyp/6-311g** Force nosymm scf=(qc)
 -----------------------------------------

 -------------------
 Title Card Required
 -------------------
 Symbolic Z-matrix:
 Charge =  0 Multiplicity = 2

                          Input orientation:
 ---------------------------------------------------------------------
 Center     Atomic      Atomic             Coordinates (Angstroms)
 Number     Number       Type             X           Y           Z
 ---------------------------------------------------------------------
      1          1           0        0.000000    0.000000    0.000000
      2          1           0       -3.750000    0.000000    0.000000
      3          9           0        3.400000    0.000000    0.000000
 ---------------------------------------------------------------------

 SCF Done:  E(UB3LYP) =  -100.759181722     a.u. after   25 cycles

 Alpha  occ. eigenvalues --  -24.75194  -1.21172  -0.54316  -0.45605  -0.45605
 Alpha  occ. eigenvalues --   -0.32337
 Alpha virt. eigenvalues --   -0.06779   0.24109   0.36988   0.87917   0.91600
 Alpha virt. eigenvalues --    0.91600   1.02101   1.25161   1.25161   1.25220
 Alpha virt. eigenvalues --    1.45576   1.45576   1.45903   2.14691   2.41806

  Beta  occ. eigenvalues --  -24.72092  -1.12262  -0.42497  -0.42497  -0.32949
  Beta virt. eigenvalues --   -0.25382  -0.06120   0.23855   0.38125   0.93086
  Beta virt. eigenvalues --    0.93086   0.96982   1.06064   1.24459   1.24459
  Beta virt. eigenvalues --    1.24508   1.46340   1.46520   1.46520   2.14908

 Mulliken charges and spin densities:
               1          2
     1  H    0.015023  -0.982266
     2  H    0.000115   0.998862
     3  F   -0.015137   0.983404
 Sum of Mulliken charges =  -0.00000   1.00000

 Dipole moment (field-independent basis, Debye):
    X=             -0.2666    Y=             -0.0000    Z=              0.0000  Tot=              0.2666
 Quadrupole moment (field-independent basis, Debye-Ang):
   XX=             -7.5749   YY=             -7.6175   ZZ=             -7.6175
   XY=              0.0000   XZ=              0.0000   YZ=             -0.0000

  Exact polarizability:      25.518      -0.000       2.033      -0.000      -0.000       2.033
 Approx polarizability:      21.196       0.000       1.933      -0.000       0.000       1.933

 ******    2 imaginary frequencies (negative Signs) ******

                      1                      2                      3
                      A                      A                      A
 Frequencies --   -245.6629               -86.6686                74.9326
 Red. masses --      1.0419                 1.0700                 1.0192
 Frc consts  --      0.0370                 0.0047                 0.0034
 IR Inten    --     15.4259                 0.4443                 0.2072

                      4
                      A
 Frequencies --     74.9326
 Red. masses --      1.0192
 Frc consts  --      0.0034
 IR Inten    --      0.2072

 - Thermochemistry -
 -------------------
 Temperature   298.150 Kelvin.  Pressure   1.00000 Atm.
 Atom     1 has atomic number  1 and mass   1.00783

 Molecular mass:    21.01405 amu.
 Principal axes and moments of inertia in atomic units:
                           1         2         3
     Eigenvalues --     0.00000 206.38327 206.38327
           X            1.00000  -0.00000   0.00000
           Y            0.00000   1.00000   0.00000
           Z            0.00000   0.00000   1.00000
 This molecule is a prolate symmetric top.
 Rotational symmetry number  1.
 Rotational temperature (Kelvin)      0.41968
 Rotational constant (GHZ):           8.744610
    2 imaginary frequencies ignored.
 Zero-point vibrational energy        896.4 (Joules/Mol)
                                    0.21424 (Kcal/Mol)
 Warning -- explicit consideration of   2 degrees of freedom as
           vibrations may cause significant error
 Vibrational temperatures:    107.81   107.81
          (Kelvin)

 Zero-point correction=                           0.000341 (Hartree/Particle)
 Thermal correction to Energy=                    0.004269
 Thermal correction to Enthalpy=                  0.005214
 Thermal correction to Gibbs Free Energy=        -0.023066
 Sum of electronic and zero-point Energies=           -100.758840
 Sum of electronic and thermal Energies=              -100.754912
 Sum of electronic and thermal Enthalpies=            -100.753968
 Sum of electronic and thermal Free Energies=         -100.782248

                     E (Thermal)             CV                S
                      KCal/Mol        Cal/Mol-Kelvin    Cal/Mol-Kelvin
 Total                    2.679              8.899             59.519
 Electronic               0.000              0.000              1.377
 Translational            0.889              2.981             35.068
 Rotational               0.592              1.987             15.035
 Vibrational              1.198              3.931              8.039
 Vibration     1          0.599              1.966              4.019
 Vibration     2          0.599              1.966              4.019

 Normal termination of Gaussian 16 at Fri Aug 22 21:18:59 2025.
