 Gaussian 16, Revision C.01,
 Gaussian 16:  ES64L-G16RevC.01  3-Jul-2019

 -----------------------------------------
 # sp b3lyp/6-311g** Force nosymm scf=(qc)
 -----------------------------------------

 -------------------
 Title Card Required
 -------------------
 Symbolic Z-matrix:
 Charge =  0 Multiplicity = 2

                          Input orientation:
 ---------------------------------------------------------------------
 Center     Atomic      Atomic             Coordinates (Angstroms)
 Number     Number       Type             X           Y           Z
 ---------------------------------------------------------------------
      1          1           0        0.000000    0.000000    0.000000
      2          1           0       -0.950000    0.000000    0.000000
      3          9           0        2.800000    0.000000    0.000000
 ---------------------------------------------------------------------

 SCF Done:  E(UB3LYP) =  -100.914745739     a.u. after    7 cycles

 Alpha  occ. eigenvalues --  -24.76092  -1.21994  -0.55238  -0.46368  -0.46368
 Alpha  occ. eigenvalues --   -0.40149
 Alpha virt. eigenvalues --    0.01291   0.20929   0.40232   0.89910   0.90989
 Alpha virt. eigenvalues --    0.90989   1.07030   1.08162   1.08162   1.40976
 Alpha virt. eigenvalues --    1.68478   1.68478   2.22392   2.37333   2.64165

  Beta  occ. eigenvalues --  -24.72960  -1.12990  -0.43229  -0.43229  -0.40104
  Beta virt. eigenvalues --   -0.26172   0.01558   0.21113   0.40641   0.92474
  Beta virt. eigenvalues --    0.92474   0.98470   1.08243   1.08243   1.11426
  Beta virt. eigenvalues --    1.41064   1.68539   1.68539   2.22533   2.37426

 Mulliken charges and spin densities:
               1          2
     1  H   -0.011098  -0.006915
     2  H    0.012896   0.015135
     3  F   -0.001798   0.991780
 Sum of Mulliken charges =   0.00000   1.00000

 Dipole moment (field-independent basis, Debye):
    X=             -0.0934    Y=              0.0000    Z=             -0.0000  Tot=              0.0934
 Quadrupole moment (field-independent basis, Debye-Ang):
   XX=             -5.5796   YY=             -7.2088   ZZ=             -7.2088
   XY=              0.0000   XZ=             -0.0000   YZ=             -0.0000

  Exact polarizability:      16.012       0.000       2.051      -0.000      -0.000       2.051
 Approx polarizability:      18.652       0.000       2.110      -0.000      -0.000       2.110

 ******    1 imaginary frequencies (negative Signs) ******

                      1                      2                      3
                      A                      A                      A
 Frequencies --   -111.6273              1503.4877              1503.4877
 Red. masses --      1.1085                 1.0099                 1.0099
 Frc consts  --      0.0081                 1.3450                 1.3450
 IR Inten    --      1.8012                 0.1490                 0.1490

                      4
                      A
 Frequencies --   2179.6970
 Red. masses --      1.0078
 Frc consts  --      2.8212
 IR Inten    --     20.0273

 - Thermochemistry -
 -------------------
 Temperature   298.150 Kelvin.  Pressure   1.00000 Atm.
 Atom     1 has atomic number  1 and mass   1.00783

 Molecular mass:    21.01405 amu.
 Principal axes and moments of inertia in atomic units:
                           1         2         3
     Eigenvalues --     0.00000  71.42202  71.42202
           X            1.00000  -0.00000   0.00000
           Y            0.00000   1.00000   0.00000
           Z            0.00000   0.00000   1.00000
 This molecule is a prolate symmetric top.
 Rotational symmetry number  1.
 Rotational temperature (Kelvin)      1.21271
 Rotational constant (GHZ):          25.268696
    1 imaginary frequencies ignored.
 Zero-point vibrational energy      31023.2 (Joules/Mol)
                                    7.41472 (Kcal/Mol)
 Vibrational temperatures:   2163.18  2163.18  3136.10
          (Kelvin)

 Zero-point correction=                           0.011816 (Hartree/Particle)
 Thermal correction to Energy=                    0.014187
 Thermal correction to Enthalpy=                  0.015131
 Thermal correction to Gibbs Free Energy=        -0.008339
 Sum of electronic and zero-point Energies=           -100.902930
 Sum of electronic and thermal Energies=              -100.900559
 Sum of electronic and thermal Enthalpies=            -100.899615
 Sum of electronic and thermal Free Energies=         -100.923084

                     E (Thermal)             CV                S
                      KCal/Mol        Cal/Mol-Kelvin    Cal/Mol-Kelvin
 Total                    8.902              5.122             49.395
 Electronic               0.000              0.000              1.377
 Translational            0.889              2.981             35.068
 Rotational               0.592              1.987             12.926
 Vibrational              7.421              0.154              0.024

 Normal termination of Gaussian 16 at Fri Aug 22 18:38:56 2025.
