 Gaussian 16, Revision C.01,
 Gaussian 16:  ES64L-G16RevC.01  3-Jul-2019

 -----------------------------------------
 # sp b3lyp/6-311g** Force nosymm scf=(qc)
 -----------------------------------------

 -------------------
 Title Card Required
 -------------------
 Symbolic Z-matrix:
 Charge =  0 Multiplicity = 2

                          Input orientation:
 ---------------------------------------------------------------------
 Center     Atomic      Atomic             Coordinates (Angstroms)
 Number     Number       Type             X           Y           Z
 ---------------------------------------------------------------------
      1          1           0        0.000000    0.000000    0.000000
      2          1           0       -3.100000    0.000000    0.000000
      3          9           0        1.850000    0.000000    0.000000
 ---------------------------------------------------------------------

 SCF Done:  E(UB3LYP) =  -100.798982463     a.u. after   22 cycles

 Alpha  occ. eigenvalues --  -24.64779  -1.07439  -0.39007  -0.36548  -0.36548
 Alpha  occ. eigenvalues --   -0.33893
 Alpha virt. eigenvalues --   -0.19538   0.20216   0.27362   0.92487   0.95118
 Alpha virt. eigenvalues --    0.95118   1.08190   1.23173   1.23173   1.23505
 Alpha virt. eigenvalues --    1.23505   1.23889   1.62316   2.12613   2.14102

  Beta  occ. eigenvalues --  -24.66806  -1.13044  -0.45633  -0.38532  -0.38532
  Beta virt. eigenvalues --   -0.15222  -0.05621   0.27931   0.38758   0.91833
  Beta virt. eigenvalues --    0.94965   0.94965   1.06108   1.34055   1.34055
  Beta virt. eigenvalues --    1.46424   1.46424   1.46663   1.67852   2.27084

 Mulliken charges and spin densities:
               1          2
     1  H    0.239496   0.641632
     2  H    0.004363   0.995795
     3  F   -0.243858  -0.637427
 Sum of Mulliken charges =   0.00000   1.00000

 Dipole moment (field-independent basis, Debye):
    X=             -2.2743    Y=             -0.0000    Z=             -0.0000  Tot=              2.2743
 Quadrupole moment (field-independent basis, Debye-Ang):
   XX=            -10.1343   YY=             -7.4427   ZZ=             -7.4427
   XY=             -0.0000   XZ=             -0.0000   YZ=              0.0000

  Exact polarizability:      26.985      -0.000       2.087      -0.000       0.000       2.087
 Approx polarizability:      40.135      -0.000       1.977      -0.000      -0.000       1.977

 ******    1 imaginary frequencies (negative Signs) ******

                      1                      2                      3
                      A                      A                      A
 Frequencies --  -1398.7669                70.7444               600.3482
 Red. masses --      1.0594                 1.0522                 1.0252
 Frc consts  --      1.2212                 0.0031                 0.2177
 IR Inten    --    111.1837                 1.9726                51.9575

                      4
                      A
 Frequencies --    600.3482
 Red. masses --      1.0252
 Frc consts  --      0.2177
 IR Inten    --     51.9575

 - Thermochemistry -
 -------------------
 Temperature   298.150 Kelvin.  Pressure   1.00000 Atm.
 Atom     1 has atomic number  1 and mass   1.00783

 Molecular mass:    21.01405 amu.
 Principal axes and moments of inertia in atomic units:
                           1         2         3
     Eigenvalues --     0.00000  92.52097  92.52097
           X            1.00000  -0.00000   0.00000
           Y            0.00000   1.00000   0.00000
           Z            0.00000   0.00000   1.00000
 This molecule is a prolate symmetric top.
 Rotational symmetry number  1.
 Rotational temperature (Kelvin)      0.93615
 Rotational constant (GHZ):          19.506294
    1 imaginary frequencies ignored.
 Zero-point vibrational energy       7604.9 (Joules/Mol)
                                    1.81762 (Kcal/Mol)
 Warning -- explicit consideration of   3 degrees of freedom as
           vibrations may cause significant error
 Vibrational temperatures:    101.79   863.77   863.77
          (Kelvin)

 Zero-point correction=                           0.002897 (Hartree/Particle)
 Thermal correction to Energy=                    0.006369
 Thermal correction to Enthalpy=                  0.007313
 Thermal correction to Gibbs Free Energy=        -0.018780
 Sum of electronic and zero-point Energies=           -100.796086
 Sum of electronic and thermal Energies=              -100.792614
 Sum of electronic and thermal Enthalpies=            -100.791670
 Sum of electronic and thermal Free Energies=         -100.817762

                     E (Thermal)             CV                S
                      KCal/Mol        Cal/Mol-Kelvin    Cal/Mol-Kelvin
 Total                    3.996              8.998             54.917
 Electronic               0.000              0.000              1.377
 Translational            0.889              2.981             35.068
 Rotational               0.592              1.987             13.441
 Vibrational              2.515              4.030              5.031
 Vibration     1          0.598              1.968              4.133
 Vibration     2          0.958              1.031              0.449
 Vibration     3          0.958              1.031              0.449

 Normal termination of Gaussian 16 at Fri Aug 22 16:47:49 2025.
