 Gaussian 16, Revision C.01,
 Gaussian 16:  ES64L-G16RevC.01  3-Jul-2019

 -----------------------------------------
 # sp b3lyp/6-311g** Force nosymm scf=(qc)
 -----------------------------------------

 -------------------
 Title Card Required
 -------------------
 Symbolic Z-matrix:
 Charge =  0 Multiplicity = 2

                          Input orientation:
 ---------------------------------------------------------------------
 Center     Atomic      Atomic             Coordinates (Angstroms)
 Number     Number       Type             X           Y           Z
 ---------------------------------------------------------------------
      1          1           0        0.000000    0.000000    0.000000
      2          1           0       -2.100000    0.000000    0.000000
      3          9           0        3.800000    0.000000    0.000000
 ---------------------------------------------------------------------

 SCF Done:  E(UB3LYP) =  -100.770490463     a.u. after  202 cycles

 Alpha  occ. eigenvalues --  -24.75860  -1.21790  -0.54985  -0.46171  -0.46171
 Alpha  occ. eigenvalues --   -0.32851
 Alpha virt. eigenvalues --   -0.10565   0.25997   0.33067   0.86816   0.91171
 Alpha virt. eigenvalues --    0.91173   1.01191   1.20815   1.25077   1.25077
 Alpha virt. eigenvalues --    1.38797   1.38797   1.47942   2.13553   2.35663

  Beta  occ. eigenvalues --  -24.72719  -1.12760  -0.43022  -0.43022  -0.32929
  Beta virt. eigenvalues --   -0.25755  -0.10397   0.25854   0.33350   0.92669
  Beta virt. eigenvalues --    0.92670   0.96145   1.05303   1.20773   1.24988
  Beta virt. eigenvalues --    1.24988   1.39025   1.39025   1.48107   2.13806

 Mulliken charges and spin densities:
               1          2
     1  H    0.000751  -0.891988
     2  H    0.002820   0.896183
     3  F   -0.003571   0.995805
 Sum of Mulliken charges =   0.00000   1.00000

 Dipole moment (field-independent basis, Debye):
    X=             -0.0974    Y=             -0.0000    Z=              0.0001  Tot=              0.0974
 Quadrupole moment (field-independent basis, Debye-Ang):
   XX=             -6.4751   YY=             -7.7138   ZZ=             -7.7111
   XY=             -0.0022   XZ=              0.0485   YZ=             -0.0001

  Exact polarizability:      31.281      -0.001       2.010       0.008      -0.000       2.011
 Approx polarizability:      27.344      -0.001       1.934       0.031      -0.000       1.936

 ******    2 imaginary frequencies (negative Signs) ******

                      1                      2                      3
                      A                      A                      A
 Frequencies --  -1177.5737               -91.2088               468.2036
 Red. masses --      1.0078                 1.1085                 1.0124
 Frc consts  --      0.8234                 0.0054                 0.1308
 IR Inten    --      1.8643                 1.6871                 0.0001

                      4
                      A
 Frequencies --    468.2259
 Red. masses --      1.0124
 Frc consts  --      0.1308
 IR Inten    --      0.0001

 - Thermochemistry -
 -------------------
 Temperature   298.150 Kelvin.  Pressure   1.00000 Atm.
 Atom     1 has atomic number  1 and mass   1.00783

 Molecular mass:    21.01405 amu.
 Principal axes and moments of inertia in atomic units:
                           1         2         3
     Eigenvalues --     0.00000 161.01059 161.01059
           X            1.00000  -0.00000   0.00000
           Y            0.00000   1.00000   0.00000
           Z            0.00000   0.00000   1.00000
 This molecule is a prolate symmetric top.
 Rotational symmetry number  1.
 Rotational temperature (Kelvin)      0.53794
 Rotational constant (GHZ):          11.208836
    2 imaginary frequencies ignored.
 Zero-point vibrational energy       5601.1 (Joules/Mol)
                                    1.33869 (Kcal/Mol)
 Warning -- explicit consideration of   2 degrees of freedom as
           vibrations may cause significant error
 Vibrational temperatures:    673.64   673.67
          (Kelvin)

 Zero-point correction=                           0.002133 (Hartree/Particle)
 Thermal correction to Energy=                    0.004991
 Thermal correction to Enthalpy=                  0.005935
 Thermal correction to Gibbs Free Energy=        -0.018996
 Sum of electronic and zero-point Energies=           -100.768357
 Sum of electronic and thermal Energies=              -100.765499
 Sum of electronic and thermal Enthalpies=            -100.764555
 Sum of electronic and thermal Free Energies=         -100.789486

                     E (Thermal)             CV                S
                      KCal/Mol        Cal/Mol-Kelvin    Cal/Mol-Kelvin
 Total                    3.132              7.609             52.472
 Electronic               0.000              0.000              1.377
 Translational            0.889              2.981             35.068
 Rotational               0.592              1.987             14.542
 Vibrational              1.651              2.641              1.485
 Vibration     1          0.825              1.321              0.743
 Vibration     2          0.825              1.321              0.743

 Normal termination of Gaussian 16 at Sat Aug 23 00:49:24 2025.
