 Gaussian 16, Revision C.01,
 Gaussian 16:  ES64L-G16RevC.01  3-Jul-2019

 -----------------------------------------
 # sp b3lyp/6-311g** Force nosymm scf=(qc)
 -----------------------------------------

 -------------------
 Title Card Required
 -------------------
 Symbolic Z-matrix:
 Charge =  0 Multiplicity = 2

                          Input orientation:
 ---------------------------------------------------------------------
 Center     Atomic      Atomic             Coordinates (Angstroms)
 Number     Number       Type             X           Y           Z
 ---------------------------------------------------------------------
      1          1           0        0.000000    0.000000    0.000000
      2          1           0       -1.100000    0.000000    0.000000
      3          9           0        2.050000    0.000000    0.000000
 ---------------------------------------------------------------------

 SCF Done:  E(UB3LYP) =  -100.894024111     a.u. after   12 cycles

 Alpha  occ. eigenvalues --  -24.73291  -1.19481  -0.52953  -0.44086  -0.44086
 Alpha  occ. eigenvalues --   -0.39869
 Alpha virt. eigenvalues --   -0.02013   0.21552   0.35910   0.89336   0.91753
 Alpha virt. eigenvalues --    0.91753   1.08434   1.08639   1.08639   1.41601
 Alpha virt. eigenvalues --    1.57682   1.57682   2.15505   2.31578   2.55201

  Beta  occ. eigenvalues --  -24.70395  -1.11255  -0.41204  -0.41204  -0.39663
  Beta virt. eigenvalues --   -0.25191  -0.00713   0.22291   0.36411   0.93060
  Beta virt. eigenvalues --    0.93060   0.96639   1.09634   1.09634   1.11378
  Beta virt. eigenvalues --    1.44189   1.58381   1.58381   2.16798   2.32647

 Mulliken charges and spin densities:
               1          2
     1  H    0.026090  -0.073191
     2  H    0.043572   0.163987
     3  F   -0.069662   0.909204
 Sum of Mulliken charges =   0.00000   1.00000

 Dipole moment (field-independent basis, Debye):
    X=             -0.9243    Y=             -0.0000    Z=             -0.0000  Tot=              0.9243
 Quadrupole moment (field-independent basis, Debye-Ang):
   XX=             -6.6034   YY=             -7.3060   ZZ=             -7.3060
   XY=              0.0000   XZ=              0.0000   YZ=             -0.0000

  Exact polarizability:      35.601       0.000       2.166       0.000      -0.000       2.166
 Approx polarizability:      47.737      -0.000       2.177      -0.000       0.000       2.177

 ******    1 imaginary frequencies (negative Signs) ******

                      1                      2                      3
                      A                      A                      A
 Frequencies --   -742.3027               613.4028              1443.7110
 Red. masses --      1.0641                 1.0476                 1.0122
 Frc consts  --      0.3455                 0.2322                 1.2430
 IR Inten    --    532.3736               209.9802                 0.0002

                      4
                      A
 Frequencies --   1443.7110
 Red. masses --      1.0122
 Frc consts  --      1.2430
 IR Inten    --      0.0002

 - Thermochemistry -
 -------------------
 Temperature   298.150 Kelvin.  Pressure   1.00000 Atm.
 Atom     1 has atomic number  1 and mass   1.00783

 Molecular mass:    21.01405 amu.
 Principal axes and moments of inertia in atomic units:
                           1         2         3
     Eigenvalues --     0.00000  46.16870  46.16870
           X            1.00000  -0.00000   0.00000
           Y            0.00000   1.00000   0.00000
           Z            0.00000   0.00000   1.00000
 This molecule is a prolate symmetric top.
 Rotational symmetry number  1.
 Rotational temperature (Kelvin)      1.87603
 Rotational constant (GHZ):          39.090142
    1 imaginary frequencies ignored.
 Zero-point vibrational energy      20939.6 (Joules/Mol)
                                    5.00468 (Kcal/Mol)
 Warning -- explicit consideration of   1 degrees of freedom as
           vibrations may cause significant error
 Vibrational temperatures:    882.55  2077.18  2077.18
          (Kelvin)

 Zero-point correction=                           0.007975 (Hartree/Particle)
 Thermal correction to Energy=                    0.010501
 Thermal correction to Enthalpy=                  0.011445
 Thermal correction to Gibbs Free Energy=        -0.011818
 Sum of electronic and zero-point Energies=           -100.886049
 Sum of electronic and thermal Energies=              -100.883523
 Sum of electronic and thermal Enthalpies=            -100.882579
 Sum of electronic and thermal Free Energies=         -100.905842

                     E (Thermal)             CV                S
                      KCal/Mol        Cal/Mol-Kelvin    Cal/Mol-Kelvin
 Total                    6.590              6.154             48.962
 Electronic               0.000              0.000              1.377
 Translational            0.889              2.981             35.068
 Rotational               0.592              1.987             12.059
 Vibrational              5.108              1.186              0.457
 Vibration     1          0.973              1.003              0.427

 Normal termination of Gaussian 16 at Fri Aug 22 16:59:17 2025.
