 Gaussian 16, Revision C.01,
 Gaussian 16:  ES64L-G16RevC.01  3-Jul-2019

 -----------------------------------------
 # sp b3lyp/6-311g** Force nosymm scf=(qc)
 -----------------------------------------

 -------------------
 Title Card Required
 -------------------
 Symbolic Z-matrix:
 Charge =  0 Multiplicity = 2

                          Input orientation:
 ---------------------------------------------------------------------
 Center     Atomic      Atomic             Coordinates (Angstroms)
 Number     Number       Type             X           Y           Z
 ---------------------------------------------------------------------
      1          1           0        0.000000    0.000000    0.000000
      2          1           0       -0.600000    0.000000    0.000000
      3          9           0        1.800000    0.000000    0.000000
 ---------------------------------------------------------------------

 SCF Done:  E(UB3LYP) =  -100.914350313     a.u. after    6 cycles

 Alpha  occ. eigenvalues --  -24.74404  -1.20675  -0.56009  -0.46859  -0.45097
 Alpha  occ. eigenvalues --   -0.45097
 Alpha virt. eigenvalues --    0.10629   0.19947   0.48737   0.89827   0.89827
 Alpha virt. eigenvalues --    0.95023   1.09601   1.09601   1.21012   1.68475
 Alpha virt. eigenvalues --    1.81745   1.91912   1.91912   2.46382   3.68883

  Beta  occ. eigenvalues --  -24.71396  -1.12164  -0.48778  -0.42112  -0.42112
  Beta virt. eigenvalues --   -0.25036   0.11296   0.20595   0.49796   0.91133
  Beta virt. eigenvalues --    0.91133   1.02405   1.10502   1.10502   1.24619
  Beta virt. eigenvalues --    1.70030   1.82410   1.92302   1.92302   2.47427

 Mulliken charges and spin densities:
               1          2
     1  H    0.028613  -0.025851
     2  H    0.020637   0.090399
     3  F   -0.049250   0.935452
 Sum of Mulliken charges =   0.00000   1.00000

 Dipole moment (field-independent basis, Debye):
    X=             -0.4698    Y=             -0.0000    Z=              0.0000  Tot=              0.4698
 Quadrupole moment (field-independent basis, Debye-Ang):
   XX=             -6.0989   YY=             -6.6825   ZZ=             -6.6825
   XY=             -0.0000   XZ=              0.0000   YZ=              0.0000

  Exact polarizability:      14.086       0.000       2.092       0.000      -0.000       2.092
 Approx polarizability:      15.420       0.000       2.159       0.000      -0.000       2.159

 ******    2 imaginary frequencies (negative Signs) ******

                      1                      2                      3
                      A                      A                      A
 Frequencies --  -2834.8313             -2834.8313               262.2687
 Red. masses --      1.0098                 1.0098                 1.1085
 Frc consts  --      4.7815                 4.7815                 0.0449
 IR Inten    --      0.2576                 0.2576                31.0630

                      4
                      A
 Frequencies --   6974.5630
 Red. masses --      1.0078
 Frc consts  --     28.8849
 IR Inten    --    264.5021

 - Thermochemistry -
 -------------------
 Temperature   298.150 Kelvin.  Pressure   1.00000 Atm.
 Atom     1 has atomic number  1 and mass   1.00783

 Molecular mass:    21.01405 amu.
 Principal axes and moments of inertia in atomic units:
                           1         2         3
     Eigenvalues --     0.00000  29.34629  29.34629
           X            1.00000  -0.00000   0.00000
           Y            0.00000   1.00000   0.00000
           Z            0.00000   0.00000   1.00000
 This molecule is a prolate symmetric top.
 Rotational symmetry number  1.
 Rotational temperature (Kelvin)      2.95144
 Rotational constant (GHZ):          61.498102
    2 imaginary frequencies ignored.
 Zero-point vibrational energy      43285.9 (Joules/Mol)
                                   10.34557 (Kcal/Mol)
 Warning -- explicit consideration of   1 degrees of freedom as
           vibrations may cause significant error
 Vibrational temperatures:    377.35 10034.84
          (Kelvin)

 Zero-point correction=                           0.016487 (Hartree/Particle)
 Thermal correction to Energy=                    0.019317
 Thermal correction to Enthalpy=                  0.020261
 Thermal correction to Gibbs Free Energy=        -0.003140
 Sum of electronic and zero-point Energies=           -100.897864
 Sum of electronic and thermal Energies=              -100.895034
 Sum of electronic and thermal Enthalpies=            -100.894089
 Sum of electronic and thermal Free Energies=         -100.917490

                     E (Thermal)             CV                S
                      KCal/Mol        Cal/Mol-Kelvin    Cal/Mol-Kelvin
 Total                   12.121              6.710             49.251
 Electronic               0.000              0.000              1.377
 Translational            0.889              2.981             35.068
 Rotational               0.592              1.987             11.159
 Vibrational             10.640              1.742              1.647
 Vibration     1          0.670              1.742              1.647

 Normal termination of Gaussian 16 at Fri Aug 22 16:42:16 2025.
