 Gaussian 16, Revision C.01,
 Gaussian 16:  ES64L-G16RevC.01  3-Jul-2019

 -----------------------------------------
 # sp b3lyp/6-311g** Force nosymm scf=(qc)
 -----------------------------------------

 -------------------
 Title Card Required
 -------------------
 Symbolic Z-matrix:
 Charge =  0 Multiplicity = 2

                          Input orientation:
 ---------------------------------------------------------------------
 Center     Atomic      Atomic             Coordinates (Angstroms)
 Number     Number       Type             X           Y           Z
 ---------------------------------------------------------------------
      1          1           0        0.000000    0.000000    0.000000
      2          1           0       -0.600000    0.000000    0.000000
      3          9           0        0.900000    0.000000    0.000000
 ---------------------------------------------------------------------

 SCF Done:  E(UB3LYP) =  -100.852792070     a.u. after    6 cycles

 Alpha  occ. eigenvalues --  -24.67509  -1.24924  -0.67964  -0.43120  -0.43120
 Alpha  occ. eigenvalues --   -0.32497
 Alpha virt. eigenvalues --    0.14939   0.17960   0.69645   0.86302   0.86302
 Alpha virt. eigenvalues --    0.93294   1.11698   1.11698   1.46227   1.72314
 Alpha virt. eigenvalues --    1.86078   1.86078   1.90436   2.73118   3.77826

  Beta  occ. eigenvalues --  -24.65950  -1.20893  -0.60794  -0.41730  -0.41730
  Beta virt. eigenvalues --   -0.14620   0.17319   0.19133   0.74489   0.88323
  Beta virt. eigenvalues --    0.88323   0.96380   1.15889   1.15889   1.48417
  Beta virt. eigenvalues --    1.79608   1.90578   1.90578   1.92985   2.79477

 Mulliken charges and spin densities:
               1          2
     1  H    0.278334  -0.025715
     2  H   -0.082439   0.670900
     3  F   -0.195896   0.354815
 Sum of Mulliken charges =   0.00000   1.00000

 Dipole moment (field-independent basis, Debye):
    X=             -1.1537    Y=              0.0000    Z=             -0.0000  Tot=              1.1537
 Quadrupole moment (field-independent basis, Debye-Ang):
   XX=             -7.4021   YY=             -6.4161   ZZ=             -6.4161
   XY=              0.0000   XZ=             -0.0000   YZ=             -0.0000

  Exact polarizability:      10.951       0.000       2.500      -0.000       0.000       2.500
 Approx polarizability:      12.299      -0.000       2.580       0.000       0.000       2.580

 ******    2 imaginary frequencies (negative Signs) ******

                      1                      2                      3
                      A                      A                      A
 Frequencies --  -3752.9608             -3752.9608              3136.2270
 Red. masses --      1.0138                 1.0138                 1.1075
 Frc consts  --      8.4128                 8.4128                 6.4183
 IR Inten    --     42.5214                42.5214               107.3332

                      4
                      A
 Frequencies --   7003.3235
 Red. masses --      1.0086
 Frc consts  --     29.1471
 IR Inten    --     21.2153

 - Thermochemistry -
 -------------------
 Temperature   298.150 Kelvin.  Pressure   1.00000 Atm.
 Atom     1 has atomic number  1 and mass   1.00783

 Molecular mass:    21.01405 amu.
 Principal axes and moments of inertia in atomic units:
                           1         2         3
     Eigenvalues --     0.00000  10.01875  10.01875
           X            1.00000  -0.00000   0.00000
           Y            0.00000   1.00000   0.00000
           Z            0.00000   0.00000   1.00000
 This molecule is a prolate symmetric top.
 Rotational symmetry number  1.
 Rotational temperature (Kelvin)      8.64518
 Rotational constant (GHZ):         180.136359
    2 imaginary frequencies ignored.
 Zero-point vibrational energy      60648.0 (Joules/Mol)
                                   14.49522 (Kcal/Mol)
 Vibrational temperatures:   4512.33 10076.22
          (Kelvin)

 Zero-point correction=                           0.023100 (Hartree/Particle)
 Thermal correction to Energy=                    0.025460
 Thermal correction to Enthalpy=                  0.026404
 Thermal correction to Gibbs Free Energy=         0.004801
 Sum of electronic and zero-point Energies=           -100.829692
 Sum of electronic and thermal Energies=              -100.827332
 Sum of electronic and thermal Enthalpies=            -100.826388
 Sum of electronic and thermal Free Energies=         -100.847991

                     E (Thermal)             CV                S
                      KCal/Mol        Cal/Mol-Kelvin    Cal/Mol-Kelvin
 Total                   15.976              4.968             45.469
 Electronic               0.000              0.000              1.377
 Translational            0.889              2.981             35.068
 Rotational               0.592              1.987              9.023
 Vibrational             14.495              0.000              0.000

 Normal termination of Gaussian 16 at Fri Aug 22 15:54:50 2025.
