 Gaussian 16, Revision C.01,
 Gaussian 16:  ES64L-G16RevC.01  3-Jul-2019

 -----------------------------------------
 # sp b3lyp/6-311g** Force nosymm scf=(qc)
 -----------------------------------------

 -------------------
 Title Card Required
 -------------------
 Symbolic Z-matrix:
 Charge =  0 Multiplicity = 2

                          Input orientation:
 ---------------------------------------------------------------------
 Center     Atomic      Atomic             Coordinates (Angstroms)
 Number     Number       Type             X           Y           Z
 ---------------------------------------------------------------------
      1          1           0        0.000000    0.000000    0.000000
      2          1           0       -2.000000    0.000000    0.000000
      3          9           0        2.800000    0.000000    0.000000
 ---------------------------------------------------------------------

 SCF Done:  E(UB3LYP) =  -100.777818056     a.u. after   23 cycles

 Alpha  occ. eigenvalues --  -24.73522  -1.19614  -0.52638  -0.44196  -0.44196
 Alpha  occ. eigenvalues --   -0.34094
 Alpha virt. eigenvalues --   -0.12114   0.25254   0.31868   0.90215   0.92616
 Alpha virt. eigenvalues --    0.92616   1.05133   1.17437   1.23859   1.23859
 Alpha virt. eigenvalues --    1.36215   1.36215   1.49726   2.12023   2.36253

  Beta  occ. eigenvalues --  -24.70540  -1.11083  -0.41215  -0.41215  -0.34293
  Beta virt. eigenvalues --   -0.24538  -0.11312   0.26191   0.32211   0.94059
  Beta virt. eigenvalues --    0.94059   0.98564   1.08802   1.17892   1.23601
  Beta virt. eigenvalues --    1.23601   1.37484   1.37484   1.50640   2.13170

 Mulliken charges and spin densities:
               1          2
     1  H    0.029019  -0.807744
     2  H    0.020022   0.863624
     3  F   -0.049040   0.944121
 Sum of Mulliken charges =   0.00000   1.00000

 Dipole moment (field-independent basis, Debye):
    X=             -0.8945    Y=              0.0000    Z=              0.0000  Tot=              0.8945
 Quadrupole moment (field-independent basis, Debye-Ang):
   XX=             -7.6729   YY=             -7.6957   ZZ=             -7.6957
   XY=              0.0000   XZ=              0.0000   YZ=              0.0000

  Exact polarizability:      60.424       0.000       2.004       0.000      -0.000       2.004
 Approx polarizability:      59.188      -0.000       1.930      -0.000       0.000       1.930

 ******    2 imaginary frequencies (negative Signs) ******

                      1                      2                      3
                      A                      A                      A
 Frequencies --  -1374.6332              -295.2132               553.9940
 Red. masses --      1.0082                 1.1080                 1.0144
 Frc consts  --      1.1225                 0.0569                 0.1834
 IR Inten    --     53.8124                38.6496                 0.3763

                      4
                      A
 Frequencies --    553.9940
 Red. masses --      1.0144
 Frc consts  --      0.1834
 IR Inten    --      0.3763

 - Thermochemistry -
 -------------------
 Temperature   298.150 Kelvin.  Pressure   1.00000 Atm.
 Atom     1 has atomic number  1 and mass   1.00783

 Molecular mass:    21.01405 amu.
 Principal axes and moments of inertia in atomic units:
                           1         2         3
     Eigenvalues --     0.00000 101.16761 101.16761
           X            1.00000  -0.00000   0.00000
           Y            0.00000   1.00000   0.00000
           Z            0.00000   0.00000   1.00000
 This molecule is a prolate symmetric top.
 Rotational symmetry number  1.
 Rotational temperature (Kelvin)      0.85614
 Rotational constant (GHZ):          17.839121
    2 imaginary frequencies ignored.
 Zero-point vibrational energy       6627.2 (Joules/Mol)
                                    1.58395 (Kcal/Mol)
 Warning -- explicit consideration of   2 degrees of freedom as
           vibrations may cause significant error
 Vibrational temperatures:    797.07   797.07
          (Kelvin)

 Zero-point correction=                           0.002524 (Hartree/Particle)
 Thermal correction to Energy=                    0.005259
 Thermal correction to Enthalpy=                  0.006203
 Thermal correction to Gibbs Free Energy=        -0.018093
 Sum of electronic and zero-point Energies=           -100.775294
 Sum of electronic and thermal Energies=              -100.772559
 Sum of electronic and thermal Enthalpies=            -100.771615
 Sum of electronic and thermal Free Energies=         -100.795911

                     E (Thermal)             CV                S
                      KCal/Mol        Cal/Mol-Kelvin    Cal/Mol-Kelvin
 Total                    3.300              7.230             51.135
 Electronic               0.000              0.000              1.377
 Translational            0.889              2.981             35.068
 Rotational               0.592              1.987             13.618
 Vibrational              1.819              2.262              1.072
 Vibration     1          0.909              1.131              0.536
 Vibration     2          0.909              1.131              0.536

 Normal termination of Gaussian 16 at Fri Aug 22 18:43:01 2025.
