 Gaussian 16, Revision C.01,
 Gaussian 16:  ES64L-G16RevC.01  3-Jul-2019

 -----------------------------------------
 # sp b3lyp/6-311g** Force nosymm scf=(qc)
 -----------------------------------------

 -------------------
 Title Card Required
 -------------------
 Symbolic Z-matrix:
 Charge =  0 Multiplicity = 2

                          Input orientation:
 ---------------------------------------------------------------------
 Center     Atomic      Atomic             Coordinates (Angstroms)
 Number     Number       Type             X           Y           Z
 ---------------------------------------------------------------------
      1          1           0        0.000000    0.000000    0.000000
      2          1           0       -1.400000    0.000000    0.000000
      3          9           0        1.400000    0.000000    0.000000
 ---------------------------------------------------------------------

 SCF Done:  E(UB3LYP) =  -100.898664529     a.u. after    9 cycles

 Alpha  occ. eigenvalues --  -24.64664  -1.11802  -0.48657  -0.38443  -0.37237
 Alpha  occ. eigenvalues --   -0.37237
 Alpha virt. eigenvalues --   -0.03343   0.20318   0.29392   0.92903   0.92903
 Alpha virt. eigenvalues --    1.01119   1.04308   1.13202   1.13202   1.43635
 Alpha virt. eigenvalues --    1.43635   1.53440   1.90968   2.21148   2.44214

  Beta  occ. eigenvalues --  -24.63394  -1.08444  -0.43058  -0.36033  -0.36033
  Beta virt. eigenvalues --   -0.21595   0.00143   0.23557   0.31210   0.93117
  Beta virt. eigenvalues --    0.93117   1.04869   1.08776   1.19958   1.19958
  Beta virt. eigenvalues --    1.46137   1.46137   1.57322   1.96351   2.26029

 Mulliken charges and spin densities:
               1          2
     1  H    0.258836  -0.148200
     2  H    0.069692   0.759786
     3  F   -0.328528   0.388414
 Sum of Mulliken charges =  -0.00000   1.00000

 Dipole moment (field-independent basis, Debye):
    X=             -2.7666    Y=              0.0000    Z=              0.0000  Tot=              2.7666
 Quadrupole moment (field-independent basis, Debye-Ang):
   XX=             -8.0628   YY=             -7.1285   ZZ=             -7.1285
   XY=              0.0000   XZ=              0.0000   YZ=             -0.0000

  Exact polarizability:      30.326       0.000       2.368       0.000      -0.000       2.368
 Approx polarizability:      43.269       0.000       2.324       0.000      -0.000       2.324

 ******    2 imaginary frequencies (negative Signs) ******

                      1                      2                      3
                      A                      A                      A
 Frequencies --  -2631.8528               -36.4104              1113.9200
 Red. masses --      1.0231                 1.0906                 1.0179
 Frc consts  --      4.1754                 0.0009                 0.7442
 IR Inten    --    215.2981                18.9194                32.6286

                      4
                      A
 Frequencies --   1113.9200
 Red. masses --      1.0179
 Frc consts  --      0.7442
 IR Inten    --     32.6286

 - Thermochemistry -
 -------------------
 Temperature   298.150 Kelvin.  Pressure   1.00000 Atm.
 Atom     1 has atomic number  1 and mass   1.00783

 Molecular mass:    21.01405 amu.
 Principal axes and moments of inertia in atomic units:
                           1         2         3
     Eigenvalues --     0.00000  32.22550  32.22550
           X            1.00000  -0.00000   0.00000
           Y            0.00000   1.00000   0.00000
           Z            0.00000   0.00000   1.00000
 This molecule is a prolate symmetric top.
 Rotational symmetry number  1.
 Rotational temperature (Kelvin)      2.68775
 Rotational constant (GHZ):          56.003517
    2 imaginary frequencies ignored.
 Zero-point vibrational energy      13325.4 (Joules/Mol)
                                    3.18486 (Kcal/Mol)
 Vibrational temperatures:   1602.68  1602.68
          (Kelvin)

 Zero-point correction=                           0.005075 (Hartree/Particle)
 Thermal correction to Energy=                    0.007483
 Thermal correction to Enthalpy=                  0.008427
 Thermal correction to Gibbs Free Energy=        -0.014335
 Sum of electronic and zero-point Energies=           -100.893589
 Sum of electronic and thermal Energies=              -100.891181
 Sum of electronic and thermal Enthalpies=            -100.890237
 Sum of electronic and thermal Free Energies=         -100.913000

                     E (Thermal)             CV                S
                      KCal/Mol        Cal/Mol-Kelvin    Cal/Mol-Kelvin
 Total                    4.696              5.505             47.908
 Electronic               0.000              0.000              1.377
 Translational            0.889              2.981             35.068
 Rotational               0.592              1.987             11.345
 Vibrational              3.214              0.537              0.118

 Normal termination of Gaussian 16 at Fri Aug 22 16:19:41 2025.
