 Gaussian 16, Revision C.01,
 Gaussian 16:  ES64L-G16RevC.01  3-Jul-2019

 -----------------------------------------
 # sp b3lyp/6-311g** Force nosymm scf=(qc)
 -----------------------------------------

 -------------------
 Title Card Required
 -------------------
 Symbolic Z-matrix:
 Charge =  0 Multiplicity = 2

                          Input orientation:
 ---------------------------------------------------------------------
 Center     Atomic      Atomic             Coordinates (Angstroms)
 Number     Number       Type             X           Y           Z
 ---------------------------------------------------------------------
      1          1           0        0.000000    0.000000    0.000000
      2          1           0       -1.900000    0.000000    0.000000
      3          9           0        1.400000    0.000000    0.000000
 ---------------------------------------------------------------------

 SCF Done:  E(UB3LYP) =  -100.882843699     a.u. after    8 cycles

 Alpha  occ. eigenvalues --  -24.63596  -1.10054  -0.45303  -0.37278  -0.36129
 Alpha  occ. eigenvalues --   -0.36129
 Alpha virt. eigenvalues --   -0.08621   0.22876   0.27535   0.93858   0.93858
 Alpha virt. eigenvalues --    1.02417   1.05080   1.19498   1.19498   1.34659
 Alpha virt. eigenvalues --    1.34659   1.40148   1.71521   2.11153   2.29727

  Beta  occ. eigenvalues --  -24.63112  -1.08790  -0.43231  -0.35674  -0.35674
  Beta virt. eigenvalues --   -0.17755  -0.04603   0.26413   0.32105   0.93777
  Beta virt. eigenvalues --    0.93777   1.04326   1.09890   1.31447   1.31447
  Beta virt. eigenvalues --    1.38325   1.38325   1.50276   1.72646   2.19396

 Mulliken charges and spin densities:
               1          2
     1  H    0.316597  -0.080057
     2  H    0.046250   0.930230
     3  F   -0.362847   0.149827
 Sum of Mulliken charges =   0.00000   1.00000

 Dipole moment (field-independent basis, Debye):
    X=             -2.9618    Y=             -0.0000    Z=             -0.0000  Tot=              2.9618
 Quadrupole moment (field-independent basis, Debye-Ang):
   XX=             -8.5824   YY=             -7.2196   ZZ=             -7.2196
   XY=             -0.0000   XZ=             -0.0000   YZ=             -0.0000

  Exact polarizability:      24.256      -0.000       2.288       0.000       0.000       2.288
 Approx polarizability:      33.632      -0.000       2.231      -0.000       0.000       2.231

 ******    2 imaginary frequencies (negative Signs) ******

                      1                      2                      3
                      A                      A                      A
 Frequencies --  -1651.9908              -323.1145              1055.2428
 Red. masses --      1.0316                 1.0811                 1.0220
 Frc consts  --      1.6587                 0.0665                 0.6705
 IR Inten    --    132.5216                 0.7085                75.4145

                      4
                      A
 Frequencies --   1055.2428
 Red. masses --      1.0220
 Frc consts  --      0.6705
 IR Inten    --     75.4145

 - Thermochemistry -
 -------------------
 Temperature   298.150 Kelvin.  Pressure   1.00000 Atm.
 Atom     1 has atomic number  1 and mass   1.00783

 Molecular mass:    21.01405 amu.
 Principal axes and moments of inertia in atomic units:
                           1         2         3
     Eigenvalues --     0.00000  42.43437  42.43437
           X            1.00000  -0.00000   0.00000
           Y            0.00000   1.00000   0.00000
           Z            0.00000   0.00000   1.00000
 This molecule is a prolate symmetric top.
 Rotational symmetry number  1.
 Rotational temperature (Kelvin)      2.04113
 Rotational constant (GHZ):          42.530173
    2 imaginary frequencies ignored.
 Zero-point vibrational energy      12623.5 (Joules/Mol)
                                    3.01709 (Kcal/Mol)
 Vibrational temperatures:   1518.26  1518.26
          (Kelvin)

 Zero-point correction=                           0.004808 (Hartree/Particle)
 Thermal correction to Energy=                    0.007228
 Thermal correction to Enthalpy=                  0.008172
 Thermal correction to Gibbs Free Energy=        -0.014865
 Sum of electronic and zero-point Energies=           -100.878036
 Sum of electronic and thermal Energies=              -100.875616
 Sum of electronic and thermal Enthalpies=            -100.874672
 Sum of electronic and thermal Free Energies=         -100.897709

                     E (Thermal)             CV                S
                      KCal/Mol        Cal/Mol-Kelvin    Cal/Mol-Kelvin
 Total                    4.536              5.609             48.487
 Electronic               0.000              0.000              1.377
 Translational            0.889              2.981             35.068
 Rotational               0.592              1.987             11.892
 Vibrational              3.054              0.641              0.150

 Normal termination of Gaussian 16 at Fri Aug 22 16:20:06 2025.
