 Gaussian 16, Revision C.01,
 Gaussian 16:  ES64L-G16RevC.01  3-Jul-2019

 -----------------------------------------
 # sp b3lyp/6-311g** Force nosymm scf=(qc)
 -----------------------------------------

 -------------------
 Title Card Required
 -------------------
 Symbolic Z-matrix:
 Charge =  0 Multiplicity = 2

                          Input orientation:
 ---------------------------------------------------------------------
 Center     Atomic      Atomic             Coordinates (Angstroms)
 Number     Number       Type             X           Y           Z
 ---------------------------------------------------------------------
      1          1           0        0.000000    0.000000    0.000000
      2          1           0       -3.100000    0.000000    0.000000
      3          9           0        2.000000    0.000000    0.000000
 ---------------------------------------------------------------------

 SCF Done:  E(UB3LYP) =  -100.787808490     a.u. after   14 cycles

 Alpha  occ. eigenvalues --  -24.68224  -1.14542  -0.47205  -0.39754  -0.39754
 Alpha  occ. eigenvalues --   -0.33816
 Alpha virt. eigenvalues --   -0.13710   0.22787   0.31766   0.89161   0.94865
 Alpha virt. eigenvalues --    0.94865   1.05890   1.23720   1.23720   1.24265
 Alpha virt. eigenvalues --    1.35378   1.35378   1.60459   2.14279   2.29595

  Beta  occ. eigenvalues --  -24.65852  -1.07912  -0.37906  -0.37417  -0.37417
  Beta virt. eigenvalues --   -0.20762  -0.07904   0.23251   0.37065   0.90716
  Beta virt. eigenvalues --    0.95503   0.95503   1.08289   1.22021   1.22021
  Beta virt. eigenvalues --    1.44110   1.44680   1.44680   1.53802   2.12536

 Mulliken charges and spin densities:
               1          2
     1  H    0.189010  -0.739387
     2  H    0.004403   0.993500
     3  F   -0.193413   0.745887
 Sum of Mulliken charges =  -0.00000   1.00000

 Dipole moment (field-independent basis, Debye):
    X=             -1.9773    Y=             -0.0000    Z=             -0.0000  Tot=              1.9773
 Quadrupole moment (field-independent basis, Debye-Ang):
   XX=             -9.8747   YY=             -7.4972   ZZ=             -7.4972
   XY=             -0.0000   XZ=             -0.0000   YZ=             -0.0000

  Exact polarizability:      28.510      -0.000       2.060      -0.000       0.000       2.060
 Approx polarizability:      39.113       0.000       1.948       0.000       0.000       1.948

 ******    2 imaginary frequencies (negative Signs) ******

                      1                      2                      3
                      A                      A                      A
 Frequencies --  -1141.1225              -193.9264               480.6318
 Red. masses --      1.0551                 1.0565                 1.0240
 Frc consts  --      0.8095                 0.0234                 0.1394
 IR Inten    --    116.9323                 1.5101                32.4630

                      4
                      A
 Frequencies --    480.6318
 Red. masses --      1.0240
 Frc consts  --      0.1394
 IR Inten    --     32.4630

 - Thermochemistry -
 -------------------
 Temperature   298.150 Kelvin.  Pressure   1.00000 Atm.
 Atom     1 has atomic number  1 and mass   1.00783

 Molecular mass:    21.01405 amu.
 Principal axes and moments of inertia in atomic units:
                           1         2         3
     Eigenvalues --     0.00000  99.30513  99.30513
           X            1.00000  -0.00000   0.00000
           Y            0.00000   1.00000   0.00000
           Z            0.00000   0.00000   1.00000
 This molecule is a prolate symmetric top.
 Rotational symmetry number  1.
 Rotational temperature (Kelvin)      0.87220
 Rotational constant (GHZ):          18.173695
    2 imaginary frequencies ignored.
 Zero-point vibrational energy       5749.6 (Joules/Mol)
                                    1.37420 (Kcal/Mol)
 Warning -- explicit consideration of   2 degrees of freedom as
           vibrations may cause significant error
 Vibrational temperatures:    691.52   691.52
          (Kelvin)

 Zero-point correction=                           0.002190 (Hartree/Particle)
 Thermal correction to Energy=                    0.005028
 Thermal correction to Enthalpy=                  0.005972
 Thermal correction to Gibbs Free Energy=        -0.018470
 Sum of electronic and zero-point Energies=           -100.785619
 Sum of electronic and thermal Energies=              -100.782780
 Sum of electronic and thermal Enthalpies=            -100.781836
 Sum of electronic and thermal Free Energies=         -100.806279

                     E (Thermal)             CV                S
                      KCal/Mol        Cal/Mol-Kelvin    Cal/Mol-Kelvin
 Total                    3.155              7.554             51.443
 Electronic               0.000              0.000              1.377
 Translational            0.889              2.981             35.068
 Rotational               0.592              1.987             13.581
 Vibrational              1.674              2.586              1.417
 Vibration     1          0.837              1.293              0.708
 Vibration     2          0.837              1.293              0.708

 Normal termination of Gaussian 16 at Fri Aug 22 16:57:27 2025.
