 Gaussian 16, Revision C.01,
 Gaussian 16:  ES64L-G16RevC.01  3-Jul-2019

 -----------------------------------------
 # sp b3lyp/6-311g** Force nosymm scf=(qc)
 -----------------------------------------

 -------------------
 Title Card Required
 -------------------
 Symbolic Z-matrix:
 Charge =  0 Multiplicity = 2

                          Input orientation:
 ---------------------------------------------------------------------
 Center     Atomic      Atomic             Coordinates (Angstroms)
 Number     Number       Type             X           Y           Z
 ---------------------------------------------------------------------
      1          1           0        0.000000    0.000000    0.000000
      2          1           0       -3.850000    0.000000    0.000000
      3          9           0        1.050000    0.000000    0.000000
 ---------------------------------------------------------------------

 SCF Done:  E(UB3LYP) =  -100.958247158     a.u. after    6 cycles

 Alpha  occ. eigenvalues --  -24.64257  -1.14885  -0.50618  -0.38444  -0.38444
 Alpha  occ. eigenvalues --   -0.33480
 Alpha virt. eigenvalues --   -0.00941   0.23228   0.32680   0.93799   0.93799
 Alpha virt. eigenvalues --    0.99054   1.23966   1.24028   1.24028   1.28824
 Alpha virt. eigenvalues --    1.35515   1.35515   1.84316   2.13835   2.32892

  Beta  occ. eigenvalues --  -24.64256  -1.14882  -0.50616  -0.38443  -0.38443
  Beta virt. eigenvalues --   -0.05369  -0.00540   0.31123   0.39517   0.93799
  Beta virt. eigenvalues --    0.93799   0.99057   1.28797   1.35514   1.35514
  Beta virt. eigenvalues --    1.50094   1.50340   1.50340   1.84350   2.32413

 Mulliken charges and spin densities:
               1          2
     1  H    0.331290   0.000229
     2  H    0.000492   0.999458
     3  F   -0.331782   0.000313
 Sum of Mulliken charges =   0.00000   1.00000

 Dipole moment (field-independent basis, Debye):
    X=             -2.0963    Y=             -0.0000    Z=              0.0000  Tot=              2.0963
 Quadrupole moment (field-independent basis, Debye-Ang):
   XX=             -8.4235   YY=             -7.0063   ZZ=             -7.0063
   XY=             -0.0000   XZ=              0.0000   YZ=             -0.0000

  Exact polarizability:       7.023      -0.000       2.380      -0.000       0.000       2.380
 Approx polarizability:       9.007       0.000       2.348       0.000       0.000       2.348

 ******    1 imaginary frequencies (negative Signs) ******

                      1                      2                      3
                      A                      A                      A
 Frequencies --    -31.9285              1125.3529              1125.3529
 Red. masses --      1.0532                 1.0377                 1.0377
 Frc consts  --      0.0006                 0.7743                 0.7743
 IR Inten    --      0.0196               164.8227               164.8227

                      4
                      A
 Frequencies --   2453.3103
 Red. masses --      1.0583
 Frc consts  --      3.7530
 IR Inten    --     80.8324

 - Thermochemistry -
 -------------------
 Temperature   298.150 Kelvin.  Pressure   1.00000 Atm.
 Atom     1 has atomic number  1 and mass   1.00783

 Molecular mass:    21.01405 amu.
 Principal axes and moments of inertia in atomic units:
                           1         2         3
     Eigenvalues --     0.00000  84.26939  84.26939
           X            1.00000  -0.00000   0.00000
           Y            0.00000   1.00000   0.00000
           Z            0.00000   0.00000   1.00000
 This molecule is a prolate symmetric top.
 Rotational symmetry number  1.
 Rotational temperature (Kelvin)      1.02782
 Rotational constant (GHZ):          21.416333
    1 imaginary frequencies ignored.
 Zero-point vibrational energy      28136.3 (Joules/Mol)
                                    6.72473 (Kcal/Mol)
 Vibrational temperatures:   1619.13  1619.13  3529.77
          (Kelvin)

 Zero-point correction=                           0.010717 (Hartree/Particle)
 Thermal correction to Energy=                    0.013122
 Thermal correction to Enthalpy=                  0.014066
 Thermal correction to Gibbs Free Energy=        -0.009601
 Sum of electronic and zero-point Energies=           -100.947531
 Sum of electronic and thermal Energies=              -100.945125
 Sum of electronic and thermal Enthalpies=            -100.944181
 Sum of electronic and thermal Free Energies=         -100.967849

                     E (Thermal)             CV                S
                      KCal/Mol        Cal/Mol-Kelvin    Cal/Mol-Kelvin
 Total                    8.234              5.488             49.813
 Electronic               0.000              0.000              1.377
 Translational            0.889              2.981             35.068
 Rotational               0.592              1.987             13.255
 Vibrational              6.753              0.520              0.113

 Normal termination of Gaussian 16 at Fri Aug 22 16:04:09 2025.
