 Gaussian 16, Revision C.01,
 Gaussian 16:  ES64L-G16RevC.01  3-Jul-2019

 -----------------------------------------
 # sp b3lyp/6-311g** Force nosymm scf=(qc)
 -----------------------------------------

 -------------------
 Title Card Required
 -------------------
 Symbolic Z-matrix:
 Charge =  0 Multiplicity = 2

                          Input orientation:
 ---------------------------------------------------------------------
 Center     Atomic      Atomic             Coordinates (Angstroms)
 Number     Number       Type             X           Y           Z
 ---------------------------------------------------------------------
      1          1           0        0.000000    0.000000    0.000000
      2          1           0       -0.650000    0.000000    0.000000
      3          9           0        0.550000    0.000000    0.000000
 ---------------------------------------------------------------------

 SCF Done:  E(UB3LYP) =  -100.331135887     a.u. after    6 cycles

 Alpha  occ. eigenvalues --  -24.69884  -1.51433  -0.73925  -0.50481  -0.50481
 Alpha  occ. eigenvalues --   -0.26500
 Alpha virt. eigenvalues --    0.16588   0.20066   0.83091   0.83091   0.83308
 Alpha virt. eigenvalues --    0.96769   1.11791   1.11791   1.41326   1.55114
 Alpha virt. eigenvalues --    2.01556   2.01556   2.18866   3.42921   3.70627

  Beta  occ. eigenvalues --  -24.69158  -1.48865  -0.71433  -0.49888  -0.49888
  Beta virt. eigenvalues --   -0.07849   0.17257   0.26544   0.84357   0.84505
  Beta virt. eigenvalues --    0.84505   1.02024   1.17811   1.17811   1.44457
  Beta virt. eigenvalues --    1.59348   2.07224   2.07224   2.27110   3.50435

 Mulliken charges and spin densities:
               1          2
     1  H    0.240260  -0.089925
     2  H   -0.177073   1.042781
     3  F   -0.063187   0.047144
 Sum of Mulliken charges =   0.00000   1.00000

 Dipole moment (field-independent basis, Debye):
    X=             -0.1037    Y=              0.0000    Z=             -0.0000  Tot=              0.1037
 Quadrupole moment (field-independent basis, Debye-Ang):
   XX=             -7.6020   YY=             -6.4480   ZZ=             -6.4480
   XY=              0.0000   XZ=             -0.0000   YZ=             -0.0000

  Exact polarizability:       7.399      -0.000       2.410      -0.000       0.000       2.410
 Approx polarizability:       7.046      -0.000       2.519       0.000       0.000       2.519

 ******    2 imaginary frequencies (negative Signs) ******

                      1                      2                      3
                      A                      A                      A
 Frequencies --  -7696.4199             -7696.4199              4722.6033
 Red. masses --      1.0201                 1.0201                 1.0604
 Frc consts  --     35.6014                35.6014                13.9339
 IR Inten    --    181.5498               181.5498               476.3012

                      4
                      A
 Frequencies --  16169.1439
 Red. masses --      1.0512
 Frc consts  --    161.9247
 IR Inten    --      7.0985

 - Thermochemistry -
 -------------------
 Temperature   298.150 Kelvin.  Pressure   1.00000 Atm.
 Atom     1 has atomic number  1 and mass   1.00783

 Molecular mass:    21.01405 amu.
 Principal axes and moments of inertia in atomic units:
                           1         2         3
     Eigenvalues --     0.00000   5.74266   5.74266
           X            1.00000  -0.00000   0.00000
           Y            0.00000   1.00000   0.00000
           Z            0.00000   0.00000   1.00000
 This molecule is a prolate symmetric top.
 Rotational symmetry number  1.
 Rotational temperature (Kelvin)     15.08253
 Rotational constant (GHZ):         314.269004
    2 imaginary frequencies ignored.
 Zero-point vibrational energy     124960.4 (Joules/Mol)
                                   29.86625 (Kcal/Mol)
 Vibrational temperatures:   6794.77 23263.79
          (Kelvin)

 Zero-point correction=                           0.047595 (Hartree/Particle)
 Thermal correction to Energy=                    0.049955
 Thermal correction to Enthalpy=                  0.050900
 Thermal correction to Gibbs Free Energy=         0.029821
 Sum of electronic and zero-point Energies=           -100.283541
 Sum of electronic and thermal Energies=              -100.281181
 Sum of electronic and thermal Enthalpies=            -100.280236
 Sum of electronic and thermal Free Energies=         -100.301314

                     E (Thermal)             CV                S
                      KCal/Mol        Cal/Mol-Kelvin    Cal/Mol-Kelvin
 Total                   31.347              4.968             44.363
 Electronic               0.000              0.000              1.377
 Translational            0.889              2.981             35.068
 Rotational               0.592              1.987              7.917
 Vibrational             29.866              0.000              0.000

 Normal termination of Gaussian 16 at Fri Aug 22 15:38:24 2025.
