 Gaussian 16, Revision C.01,
 Gaussian 16:  ES64L-G16RevC.01  3-Jul-2019

 -----------------------------------------
 # sp b3lyp/6-311g** Force nosymm scf=(qc)
 -----------------------------------------

 -------------------
 Title Card Required
 -------------------
 Symbolic Z-matrix:
 Charge =  0 Multiplicity = 2

                          Input orientation:
 ---------------------------------------------------------------------
 Center     Atomic      Atomic             Coordinates (Angstroms)
 Number     Number       Type             X           Y           Z
 ---------------------------------------------------------------------
      1          1           0        0.000000    0.000000    0.000000
      2          1           0       -3.050000    0.000000    0.000000
      3          9           0        2.200000    0.000000    0.000000
 ---------------------------------------------------------------------

 SCF Done:  E(UB3LYP) =  -100.775838445     a.u. after   18 cycles

 Alpha  occ. eigenvalues --  -24.66909  -1.08485  -0.38263  -0.38263  -0.36942
 Alpha  occ. eigenvalues --   -0.33249
 Alpha virt. eigenvalues --   -0.21817   0.21320   0.27786   0.91887   0.95731
 Alpha virt. eigenvalues --    0.95731   1.08488   1.21517   1.21517   1.24010
 Alpha virt. eigenvalues --    1.24010   1.24489   1.42226   2.12557   2.14681

  Beta  occ. eigenvalues --  -24.69517  -1.15841  -0.48569  -0.40849  -0.40849
  Beta virt. eigenvalues --   -0.12886  -0.04733   0.31959   0.39611   0.88897
  Beta virt. eigenvalues --    0.94657   0.94657   1.06505   1.37554   1.37554
  Beta virt. eigenvalues --    1.47456   1.47456   1.47747   1.52283   2.33152

 Mulliken charges and spin densities:
               1          2
     1  H    0.144792   0.825077
     2  H    0.003796   0.996288
     3  F   -0.148588  -0.821365
 Sum of Mulliken charges =   0.00000   1.00000

 Dipole moment (field-independent basis, Debye):
    X=             -1.6933    Y=              0.0000    Z=             -0.0000  Tot=              1.6933
 Quadrupole moment (field-independent basis, Debye-Ang):
   XX=             -9.8505   YY=             -7.5131   ZZ=             -7.5131
   XY=              0.0000   XZ=             -0.0000   YZ=              0.0000

  Exact polarizability:      32.758       0.000       2.040      -0.000      -0.000       2.040
 Approx polarizability:      44.520       0.000       1.930      -0.000      -0.000       1.930

 ******    1 imaginary frequencies (negative Signs) ******

                      1                      2                      3
                      A                      A                      A
 Frequencies --   -842.2853               132.0890               350.3840
 Red. masses --      1.0618                 1.0498                 1.0223
 Frc consts  --      0.4438                 0.0108                 0.0739
 IR Inten    --     81.5507                 1.6720                19.1288

                      4
                      A
 Frequencies --    350.3841
 Red. masses --      1.0223
 Frc consts  --      0.0739
 IR Inten    --     19.1288

 - Thermochemistry -
 -------------------
 Temperature   298.150 Kelvin.  Pressure   1.00000 Atm.
 Atom     1 has atomic number  1 and mass   1.00783

 Molecular mass:    21.01405 amu.
 Principal axes and moments of inertia in atomic units:
                           1         2         3
     Eigenvalues --     0.00000 107.03676 107.03676
           X            1.00000  -0.00000   0.00000
           Y            0.00000   1.00000   0.00000
           Z            0.00000   0.00000   1.00000
 This molecule is a prolate symmetric top.
 Rotational symmetry number  1.
 Rotational temperature (Kelvin)      0.80920
 Rotational constant (GHZ):          16.860948
    1 imaginary frequencies ignored.
 Zero-point vibrational energy       4981.6 (Joules/Mol)
                                    1.19063 (Kcal/Mol)
 Warning -- explicit consideration of   3 degrees of freedom as
           vibrations may cause significant error
 Vibrational temperatures:    190.05   504.12   504.12
          (Kelvin)

 Zero-point correction=                           0.001897 (Hartree/Particle)
 Thermal correction to Energy=                    0.005655
 Thermal correction to Enthalpy=                  0.006599
 Thermal correction to Gibbs Free Energy=        -0.019733
 Sum of electronic and zero-point Energies=           -100.773941
 Sum of electronic and thermal Energies=              -100.770184
 Sum of electronic and thermal Enthalpies=            -100.769240
 Sum of electronic and thermal Free Energies=         -100.795571

                     E (Thermal)             CV                S
                      KCal/Mol        Cal/Mol-Kelvin    Cal/Mol-Kelvin
 Total                    3.548             10.038             55.420
 Electronic               0.000              0.000              1.377
 Translational            0.889              2.981             35.068
 Rotational               0.592              1.987             13.730
 Vibrational              2.067              5.070              5.244
 Vibration     1          0.612              1.921              2.915
 Vibration     2          0.727              1.574              1.164
 Vibration     3          0.727              1.574              1.164

 Normal termination of Gaussian 16 at Fri Aug 22 17:12:40 2025.
