 Gaussian 16, Revision C.01,
 Gaussian 16:  ES64L-G16RevC.01  3-Jul-2019

 -----------------------------------------
 # sp b3lyp/6-311g** Force nosymm scf=(qc)
 -----------------------------------------

 -------------------
 Title Card Required
 -------------------
 Symbolic Z-matrix:
 Charge =  0 Multiplicity = 2

                          Input orientation:
 ---------------------------------------------------------------------
 Center     Atomic      Atomic             Coordinates (Angstroms)
 Number     Number       Type             X           Y           Z
 ---------------------------------------------------------------------
      1          1           0        0.000000    0.000000    0.000000
      2          1           0       -2.800000    0.000000    0.000000
      3          9           0        2.850000    0.000000    0.000000
 ---------------------------------------------------------------------

 SCF Done:  E(UB3LYP) =  -100.763881119     a.u. after   20 cycles

 Alpha  occ. eigenvalues --  -24.73530  -1.19627  -0.52645  -0.44207  -0.44207
 Alpha  occ. eigenvalues --   -0.32969
 Alpha virt. eigenvalues --   -0.09984   0.24846   0.34319   0.89934   0.92609
 Alpha virt. eigenvalues --    0.92609   1.04867   1.24600   1.24600   1.25980
 Alpha virt. eigenvalues --    1.41044   1.41044   1.42112   2.15530   2.37524

  Beta  occ. eigenvalues --  -24.70543  -1.11080  -0.41220  -0.41220  -0.34165
  Beta virt. eigenvalues --   -0.24461  -0.08281   0.25092   0.35962   0.94056
  Beta virt. eigenvalues --    0.94056   0.98415   1.08568   1.23225   1.23225
  Beta virt. eigenvalues --    1.25103   1.43697   1.43697   1.44075   2.15922

 Mulliken charges and spin densities:
               1          2
     1  H    0.045400  -0.933290
     2  H    0.003354   0.987409
     3  F   -0.048754   0.945881
 Sum of Mulliken charges =  -0.00000   1.00000

 Dipole moment (field-independent basis, Debye):
    X=             -0.7574    Y=              0.0000    Z=              0.0000  Tot=              0.7574
 Quadrupole moment (field-independent basis, Debye-Ang):
   XX=             -8.4093   YY=             -7.6231   ZZ=             -7.6231
   XY=             -0.0000   XZ=             -0.0000   YZ=              0.0000

  Exact polarizability:      38.280      -0.000       2.018      -0.000      -0.000       2.018
 Approx polarizability:      38.843      -0.000       1.921      -0.000       0.000       1.921

 ******    2 imaginary frequencies (negative Signs) ******

                      1                      2                      3
                      A                      A                      A
 Frequencies --   -549.2432              -231.6935               207.2730
 Red. masses --      1.0219                 1.0920                 1.0177
 Frc consts  --      0.1816                 0.0345                 0.0258
 IR Inten    --     40.7080                10.7214                 1.7914

                      4
                      A
 Frequencies --    207.2730
 Red. masses --      1.0177
 Frc consts  --      0.0258
 IR Inten    --      1.7914

 - Thermochemistry -
 -------------------
 Temperature   298.150 Kelvin.  Pressure   1.00000 Atm.
 Atom     1 has atomic number  1 and mass   1.00783

 Molecular mass:    21.01405 amu.
 Principal axes and moments of inertia in atomic units:
                           1         2         3
     Eigenvalues --     0.00000 131.65145 131.65145
           X            1.00000  -0.00000   0.00000
           Y            0.00000   1.00000   0.00000
           Z            0.00000   0.00000   1.00000
 This molecule is a prolate symmetric top.
 Rotational symmetry number  1.
 Rotational temperature (Kelvin)      0.65790
 Rotational constant (GHZ):          13.708480
    2 imaginary frequencies ignored.
 Zero-point vibrational energy       2479.5 (Joules/Mol)
                                    0.59262 (Kcal/Mol)
 Warning -- explicit consideration of   2 degrees of freedom as
           vibrations may cause significant error
 Vibrational temperatures:    298.22   298.22
          (Kelvin)

 Zero-point correction=                           0.000944 (Hartree/Particle)
 Thermal correction to Energy=                    0.004404
 Thermal correction to Enthalpy=                  0.005348
 Thermal correction to Gibbs Free Energy=        -0.020652
 Sum of electronic and zero-point Energies=           -100.762937
 Sum of electronic and thermal Energies=              -100.759477
 Sum of electronic and thermal Enthalpies=            -100.758533
 Sum of electronic and thermal Free Energies=         -100.784533

                     E (Thermal)             CV                S
                      KCal/Mol        Cal/Mol-Kelvin    Cal/Mol-Kelvin
 Total                    2.763              8.627             54.722
 Electronic               0.000              0.000              1.377
 Translational            0.889              2.981             35.068
 Rotational               0.592              1.987             14.142
 Vibrational              1.282              3.659              4.135
 Vibration     1          0.641              1.829              2.068
 Vibration     2          0.641              1.829              2.068

 Normal termination of Gaussian 16 at Fri Aug 22 18:54:12 2025.
