 Gaussian 16, Revision C.01,
 Gaussian 16:  ES64L-G16RevC.01  3-Jul-2019

 -----------------------------------------
 # sp b3lyp/6-311g** Force nosymm scf=(qc)
 -----------------------------------------

 -------------------
 Title Card Required
 -------------------
 Symbolic Z-matrix:
 Charge =  0 Multiplicity = 2

                          Input orientation:
 ---------------------------------------------------------------------
 Center     Atomic      Atomic             Coordinates (Angstroms)
 Number     Number       Type             X           Y           Z
 ---------------------------------------------------------------------
      1          1           0        0.000000    0.000000    0.000000
      2          1           0       -3.000000    0.000000    0.000000
      3          9           0        3.750000    0.000000    0.000000
 ---------------------------------------------------------------------

 SCF Done:  E(UB3LYP) =  -100.759661629     a.u. after   28 cycles

 Alpha  occ. eigenvalues --  -24.75722  -1.21660  -0.54846  -0.46050  -0.46050
 Alpha  occ. eigenvalues --   -0.32377
 Alpha virt. eigenvalues --   -0.07806   0.25027   0.36308   0.86955   0.91270
 Alpha virt. eigenvalues --    0.91270   1.01322   1.25159   1.25159   1.25866
 Alpha virt. eigenvalues --    1.44201   1.44231   1.44231   2.15782   2.39545

  Beta  occ. eigenvalues --  -24.72587  -1.12647  -0.42907  -0.42907  -0.32642
  Beta virt. eigenvalues --   -0.25657  -0.07479   0.24834   0.36794   0.92765
  Beta virt. eigenvalues --    0.92765   0.96243   1.05412   1.24861   1.24861
  Beta virt. eigenvalues --    1.25543   1.44707   1.44736   1.44736   2.15910

 Mulliken charges and spin densities:
               1          2
     1  H    0.004978  -0.986391
     2  H    0.000401   0.992381
     3  F   -0.005379   0.994009
 Sum of Mulliken charges =  -0.00000   1.00000

 Dipole moment (field-independent basis, Debye):
    X=             -0.1097    Y=             -0.0000    Z=             -0.0000  Tot=              0.1097
 Quadrupole moment (field-independent basis, Debye-Ang):
   XX=             -7.0167   YY=             -7.6360   ZZ=             -7.6360
   XY=             -0.0000   XZ=             -0.0000   YZ=             -0.0000

  Exact polarizability:      19.160      -0.000       2.027      -0.000       0.000       2.027
 Approx polarizability:      14.176      -0.000       1.933      -0.000      -0.000       1.933

 ******    2 imaginary frequencies (negative Signs) ******

                      1                      2                      3
                      A                      A                      A
 Frequencies --   -343.5948               -99.6250               120.9751
 Red. masses --      1.0087                 1.1074                 1.0155
 Frc consts  --      0.0702                 0.0065                 0.0088
 IR Inten    --      2.3852                 1.8281                 0.0222

                      4
                      A
 Frequencies --    120.9751
 Red. masses --      1.0155
 Frc consts  --      0.0088
 IR Inten    --      0.0222

 - Thermochemistry -
 -------------------
 Temperature   298.150 Kelvin.  Pressure   1.00000 Atm.
 Atom     1 has atomic number  1 and mass   1.00783

 Molecular mass:    21.01405 amu.
 Principal axes and moments of inertia in atomic units:
                           1         2         3
     Eigenvalues --     0.00000 195.56097 195.56097
           X            1.00000  -0.00000   0.00000
           Y            0.00000   1.00000   0.00000
           Z            0.00000   0.00000   1.00000
 This molecule is a prolate symmetric top.
 Rotational symmetry number  1.
 Rotational temperature (Kelvin)      0.44290
 Rotational constant (GHZ):           9.228535
    2 imaginary frequencies ignored.
 Zero-point vibrational energy       1447.2 (Joules/Mol)
                                    0.34589 (Kcal/Mol)
 Warning -- explicit consideration of   2 degrees of freedom as
           vibrations may cause significant error
 Vibrational temperatures:    174.06   174.06
          (Kelvin)

 Zero-point correction=                           0.000551 (Hartree/Particle)
 Thermal correction to Energy=                    0.004302
 Thermal correction to Enthalpy=                  0.005246
 Thermal correction to Gibbs Free Energy=        -0.022094
 Sum of electronic and zero-point Energies=           -100.759110
 Sum of electronic and thermal Energies=              -100.755359
 Sum of electronic and thermal Enthalpies=            -100.754415
 Sum of electronic and thermal Free Energies=         -100.781756

                     E (Thermal)             CV                S
                      KCal/Mol        Cal/Mol-Kelvin    Cal/Mol-Kelvin
 Total                    2.700              8.831             57.543
 Electronic               0.000              0.000              1.377
 Translational            0.889              2.981             35.068
 Rotational               0.592              1.987             14.928
 Vibrational              1.218              3.863              6.169
 Vibration     1          0.609              1.932              3.085
 Vibration     2          0.609              1.932              3.085

 Normal termination of Gaussian 16 at Sat Aug 23 00:26:56 2025.
