 Gaussian 16, Revision C.01,
 Gaussian 16:  ES64L-G16RevC.01  3-Jul-2019

 -----------------------------------------
 # sp b3lyp/6-311g** Force nosymm scf=(qc)
 -----------------------------------------

 -------------------
 Title Card Required
 -------------------
 Symbolic Z-matrix:
 Charge =  0 Multiplicity = 2

                          Input orientation:
 ---------------------------------------------------------------------
 Center     Atomic      Atomic             Coordinates (Angstroms)
 Number     Number       Type             X           Y           Z
 ---------------------------------------------------------------------
      1          1           0        0.000000    0.000000    0.000000
      2          1           0       -2.550000    0.000000    0.000000
      3          9           0        2.300000    0.000000    0.000000
 ---------------------------------------------------------------------

 SCF Done:  E(UB3LYP) =  -100.775985011     a.u. after   20 cycles

 Alpha  occ. eigenvalues --  -24.70442  -1.16716  -0.49517  -0.41614  -0.41614
 Alpha  occ. eigenvalues --   -0.34087
 Alpha virt. eigenvalues --   -0.12578   0.24449   0.32718   0.89309   0.94262
 Alpha virt. eigenvalues --    0.94262   1.06620   1.23548   1.23548   1.26360
 Alpha virt. eigenvalues --    1.37109   1.37109   1.47521   2.14510   2.31697

  Beta  occ. eigenvalues --  -24.67731  -1.09040  -0.38920  -0.38920  -0.36162
  Beta virt. eigenvalues --   -0.22512  -0.09541   0.25515   0.34875   0.94216
  Beta virt. eigenvalues --    0.95485   0.95485   1.08986   1.21863   1.21863
  Beta virt. eigenvalues --    1.37287   1.41814   1.41814   1.43484   2.13531

 Mulliken charges and spin densities:
               1          2
     1  H    0.110605  -0.829107
     2  H    0.012114   0.974242
     3  F   -0.122719   0.854865
 Sum of Mulliken charges =   0.00000   1.00000

 Dipole moment (field-independent basis, Debye):
    X=             -1.5709    Y=              0.0000    Z=              0.0000  Tot=              1.5709
 Quadrupole moment (field-independent basis, Debye-Ang):
   XX=             -9.1646   YY=             -7.5792   ZZ=             -7.5792
   XY=              0.0000   XZ=              0.0000   YZ=              0.0000

  Exact polarizability:      40.395       0.000       2.026       0.000       0.000       2.026
 Approx polarizability:      46.371       0.000       1.923       0.000      -0.000       1.923

 ******    2 imaginary frequencies (negative Signs) ******

                      1                      2                      3
                      A                      A                      A
 Frequencies --   -895.6494              -356.3530               366.1828
 Red. masses --      1.0320                 1.0807                 1.0192
 Frc consts  --      0.4878                 0.0809                 0.0805
 IR Inten    --     73.8094                18.1700                10.2425

                      4
                      A
 Frequencies --    366.1828
 Red. masses --      1.0192
 Frc consts  --      0.0805
 IR Inten    --     10.2425

 - Thermochemistry -
 -------------------
 Temperature   298.150 Kelvin.  Pressure   1.00000 Atm.
 Atom     1 has atomic number  1 and mass   1.00783

 Molecular mass:    21.01405 amu.
 Principal axes and moments of inertia in atomic units:
                           1         2         3
     Eigenvalues --     0.00000  94.87234  94.87234
           X            1.00000  -0.00000   0.00000
           Y            0.00000   1.00000   0.00000
           Z            0.00000   0.00000   1.00000
 This molecule is a prolate symmetric top.
 Rotational symmetry number  1.
 Rotational temperature (Kelvin)      0.91295
 Rotational constant (GHZ):          19.022839
    2 imaginary frequencies ignored.
 Zero-point vibrational energy       4380.5 (Joules/Mol)
                                    1.04697 (Kcal/Mol)
 Warning -- explicit consideration of   2 degrees of freedom as
           vibrations may cause significant error
 Vibrational temperatures:    526.86   526.86
          (Kelvin)

 Zero-point correction=                           0.001668 (Hartree/Particle)
 Thermal correction to Energy=                    0.004716
 Thermal correction to Enthalpy=                  0.005661
 Thermal correction to Gibbs Free Energy=        -0.019107
 Sum of electronic and zero-point Energies=           -100.774317
 Sum of electronic and thermal Energies=              -100.771269
 Sum of electronic and thermal Enthalpies=            -100.770324
 Sum of electronic and thermal Free Energies=         -100.795092

                     E (Thermal)             CV                S
                      KCal/Mol        Cal/Mol-Kelvin    Cal/Mol-Kelvin
 Total                    2.960              8.052             52.127
 Electronic               0.000              0.000              1.377
 Translational            0.889              2.981             35.068
 Rotational               0.592              1.987             13.490
 Vibrational              1.478              3.084              2.191
 Vibration     1          0.739              1.542              1.096
 Vibration     2          0.739              1.542              1.096

 Normal termination of Gaussian 16 at Fri Aug 22 17:22:26 2025.
