 Gaussian 16, Revision C.01,
 Gaussian 16:  ES64L-G16RevC.01  3-Jul-2019

 -----------------------------------------
 # sp b3lyp/6-311g** Force nosymm scf=(qc)
 -----------------------------------------

 -------------------
 Title Card Required
 -------------------
 Symbolic Z-matrix:
 Charge =  0 Multiplicity = 2

                          Input orientation:
 ---------------------------------------------------------------------
 Center     Atomic      Atomic             Coordinates (Angstroms)
 Number     Number       Type             X           Y           Z
 ---------------------------------------------------------------------
      1          1           0        0.000000    0.000000    0.000000
      2          1           0       -1.400000    0.000000    0.000000
      3          9           0        2.250000    0.000000    0.000000
 ---------------------------------------------------------------------

 SCF Done:  E(UB3LYP) =  -100.841895410     a.u. after   14 cycles

 Alpha  occ. eigenvalues --  -24.72552  -1.18745  -0.51868  -0.43429  -0.43429
 Alpha  occ. eigenvalues --   -0.37165
 Alpha virt. eigenvalues --   -0.09161   0.22900   0.32072   0.87214   0.92825
 Alpha virt. eigenvalues --    0.92825   1.04189   1.15206   1.15206   1.22372
 Alpha virt. eigenvalues --    1.42772   1.42772   1.88152   2.22936   2.48907

  Beta  occ. eigenvalues --  -24.69691  -1.10606  -0.40579  -0.40579  -0.36612
  Beta virt. eigenvalues --   -0.24740  -0.07982   0.24000   0.32313   0.93266
  Beta virt. eigenvalues --    0.94155   0.94155   1.07360   1.16177   1.16177
  Beta virt. eigenvalues --    1.25943   1.43470   1.43470   1.89178   2.24046

 Mulliken charges and spin densities:
               1          2
     1  H    0.031992  -0.216510
     2  H    0.047283   0.314713
     3  F   -0.079275   0.901796
 Sum of Mulliken charges =  -0.00000   1.00000

 Dipole moment (field-independent basis, Debye):
    X=             -1.2074    Y=             -0.0000    Z=             -0.0000  Tot=              1.2074
 Quadrupole moment (field-independent basis, Debye-Ang):
   XX=             -6.9829   YY=             -7.5720   ZZ=             -7.5720
   XY=             -0.0000   XZ=             -0.0000   YZ=             -0.0000

  Exact polarizability:      52.830      -0.000       2.096      -0.000      -0.000       2.096
 Approx polarizability:      77.636       0.000       2.077       0.000       0.000       2.077

 ******    2 imaginary frequencies (negative Signs) ******

                      1                      2                      3
                      A                      A                      A
 Frequencies --  -1876.5715              -331.9562              1232.6158
 Red. masses --      1.0101                 1.1058                 1.0132
 Frc consts  --      2.0958                 0.0718                 0.9070
 IR Inten    --    946.7869                18.5926                 0.0506

                      4
                      A
 Frequencies --   1232.6158
 Red. masses --      1.0132
 Frc consts  --      0.9070
 IR Inten    --      0.0506

 - Thermochemistry -
 -------------------
 Temperature   298.150 Kelvin.  Pressure   1.00000 Atm.
 Atom     1 has atomic number  1 and mass   1.00783

 Molecular mass:    21.01405 amu.
 Principal axes and moments of inertia in atomic units:
                           1         2         3
     Eigenvalues --     0.00000  60.15933  60.15933
           X            1.00000  -0.00000   0.00000
           Y            0.00000   1.00000   0.00000
           Z            0.00000   0.00000   1.00000
 This molecule is a prolate symmetric top.
 Rotational symmetry number  1.
 Rotational temperature (Kelvin)      1.43974
 Rotational constant (GHZ):          29.999359
    2 imaginary frequencies ignored.
 Zero-point vibrational energy      14745.4 (Joules/Mol)
                                    3.52423 (Kcal/Mol)
 Vibrational temperatures:   1773.46  1773.46
          (Kelvin)

 Zero-point correction=                           0.005616 (Hartree/Particle)
 Thermal correction to Energy=                    0.008006
 Thermal correction to Enthalpy=                  0.008950
 Thermal correction to Gibbs Free Energy=        -0.014380
 Sum of electronic and zero-point Energies=           -100.836279
 Sum of electronic and thermal Energies=              -100.833889
 Sum of electronic and thermal Enthalpies=            -100.832945
 Sum of electronic and thermal Free Energies=         -100.856276

                     E (Thermal)             CV                S
                      KCal/Mol        Cal/Mol-Kelvin    Cal/Mol-Kelvin
 Total                    5.024              5.337             49.103
 Electronic               0.000              0.000              1.377
 Translational            0.889              2.981             35.068
 Rotational               0.592              1.987             12.585
 Vibrational              3.543              0.369              0.072

 Normal termination of Gaussian 16 at Fri Aug 22 17:15:52 2025.
