 Gaussian 16, Revision C.01,
 Gaussian 16:  ES64L-G16RevC.01  3-Jul-2019

 -----------------------------------------
 # sp b3lyp/6-311g** Force nosymm scf=(qc)
 -----------------------------------------

 -------------------
 Title Card Required
 -------------------
 Symbolic Z-matrix:
 Charge =  0 Multiplicity = 2

                          Input orientation:
 ---------------------------------------------------------------------
 Center     Atomic      Atomic             Coordinates (Angstroms)
 Number     Number       Type             X           Y           Z
 ---------------------------------------------------------------------
      1          1           0        0.000000    0.000000    0.000000
      2          1           0       -2.450000    0.000000    0.000000
      3          9           0        3.650000    0.000000    0.000000
 ---------------------------------------------------------------------

 SCF Done:  E(UB3LYP) =  -100.763322377     a.u. after   29 cycles

 Alpha  occ. eigenvalues --  -24.75662  -1.21605  -0.54786  -0.46000  -0.46000
 Alpha  occ. eigenvalues --   -0.32641
 Alpha virt. eigenvalues --   -0.09548   0.25782   0.34345   0.87170   0.91304
 Alpha virt. eigenvalues --    0.91304   1.01448   1.25034   1.25034   1.26480
 Alpha virt. eigenvalues --    1.41199   1.41199   1.43203   2.15649   2.36450

  Beta  occ. eigenvalues --  -24.72532  -1.12608  -0.42863  -0.42863  -0.32854
  Beta virt. eigenvalues --   -0.25638  -0.09200   0.25594   0.34859   0.92798
  Beta virt. eigenvalues --    0.92798   0.96428   1.05529   1.24785   1.24785
  Beta virt. eigenvalues --    1.26192   1.41721   1.41721   1.43715   2.16000

 Mulliken charges and spin densities:
               1          2
     1  H    0.004821  -0.957378
     2  H    0.001904   0.964983
     3  F   -0.006725   0.992395
 Sum of Mulliken charges =   0.00000   1.00000

 Dipole moment (field-independent basis, Debye):
    X=             -0.1483    Y=             -0.0000    Z=             -0.0000  Tot=              0.1483
 Quadrupole moment (field-independent basis, Debye-Ang):
   XX=             -6.8996   YY=             -7.6710   ZZ=             -7.6710
   XY=              0.0000   XZ=              0.0000   YZ=             -0.0000

  Exact polarizability:      29.333      -0.000       2.014      -0.000      -0.000       2.014
 Approx polarizability:      21.841       0.000       1.930       0.000       0.000       1.930

 ******    2 imaginary frequencies (negative Signs) ******

                      1                      2                      3
                      A                      A                      A
 Frequencies --   -714.3129              -116.0139               265.3638
 Red. masses --      1.0079                 1.1084                 1.0138
 Frc consts  --      0.3030                 0.0088                 0.0421
 IR Inten    --      3.2390                 3.4808                 0.0164

                      4
                      A
 Frequencies --    265.3638
 Red. masses --      1.0138
 Frc consts  --      0.0421
 IR Inten    --      0.0164

 - Thermochemistry -
 -------------------
 Temperature   298.150 Kelvin.  Pressure   1.00000 Atm.
 Atom     1 has atomic number  1 and mass   1.00783

 Molecular mass:    21.01405 amu.
 Principal axes and moments of inertia in atomic units:
                           1         2         3
     Eigenvalues --     0.00000 165.45845 165.45845
           X            1.00000  -0.00000   0.00000
           Y            0.00000   1.00000   0.00000
           Z            0.00000   0.00000   1.00000
 This molecule is a prolate symmetric top.
 Rotational symmetry number  1.
 Rotational temperature (Kelvin)      0.52348
 Rotational constant (GHZ):          10.907519
    2 imaginary frequencies ignored.
 Zero-point vibrational energy       3174.5 (Joules/Mol)
                                    0.75871 (Kcal/Mol)
 Warning -- explicit consideration of   2 degrees of freedom as
           vibrations may cause significant error
 Vibrational temperatures:    381.80   381.80
          (Kelvin)

 Zero-point correction=                           0.001209 (Hartree/Particle)
 Thermal correction to Energy=                    0.004500
 Thermal correction to Enthalpy=                  0.005444
 Thermal correction to Gibbs Free Energy=        -0.020352
 Sum of electronic and zero-point Energies=           -100.762113
 Sum of electronic and thermal Energies=              -100.758822
 Sum of electronic and thermal Enthalpies=            -100.757878
 Sum of electronic and thermal Free Energies=         -100.783675

                     E (Thermal)             CV                S
                      KCal/Mol        Cal/Mol-Kelvin    Cal/Mol-Kelvin
 Total                    2.824              8.441             54.294
 Electronic               0.000              0.000              1.377
 Translational            0.889              2.981             35.068
 Rotational               0.592              1.987             14.596
 Vibrational              1.343              3.473              3.252
 Vibration     1          0.671              1.737              1.626
 Vibration     2          0.671              1.737              1.626

 Normal termination of Gaussian 16 at Fri Aug 22 23:36:28 2025.
