 Gaussian 16, Revision C.01,
 Gaussian 16:  ES64L-G16RevC.01  3-Jul-2019

 -----------------------------------------
 # sp b3lyp/6-311g** Force nosymm scf=(qc)
 -----------------------------------------

 -------------------
 Title Card Required
 -------------------
 Symbolic Z-matrix:
 Charge =  0 Multiplicity = 2

                          Input orientation:
 ---------------------------------------------------------------------
 Center     Atomic      Atomic             Coordinates (Angstroms)
 Number     Number       Type             X           Y           Z
 ---------------------------------------------------------------------
      1          1           0        0.000000    0.000000    0.000000
      2          1           0       -1.200000    0.000000    0.000000
      3          9           0        2.850000    0.000000    0.000000
 ---------------------------------------------------------------------

 SCF Done:  E(UB3LYP) =  -100.872361263     a.u. after  154 cycles

 Alpha  occ. eigenvalues --  -24.76815  -1.22619  -0.55803  -0.47089  -0.46952
 Alpha  occ. eigenvalues --   -0.36110
 Alpha virt. eigenvalues --   -0.03737   0.23118   0.34898   0.85674   0.90545
 Alpha virt. eigenvalues --    0.93396   1.05327   1.13088   1.13096   1.22402
 Alpha virt. eigenvalues --    1.54590   1.54599   2.08649   2.32433   2.55699

  Beta  occ. eigenvalues --  -24.73652  -1.13531  -0.43936  -0.43781  -0.36088
  Beta virt. eigenvalues --   -0.26422  -0.03712   0.23143   0.34988   0.92043
  Beta virt. eigenvalues --    0.95129   0.95162   1.09099   1.13087   1.13095
  Beta virt. eigenvalues --    1.22404   1.54588   1.54597   2.08657   2.32435

 Mulliken charges and spin densities:
               1          2
     1  H   -0.001723  -0.000225
     2  H   -0.008126  -0.001136
     3  F    0.009849   1.001361
 Sum of Mulliken charges =   0.00000   1.00000

 Dipole moment (field-independent basis, Debye):
    X=              0.1314    Y=              0.0000    Z=              0.0000  Tot=              0.1314
 Quadrupole moment (field-independent basis, Debye-Ang):
   XX=             -6.1227   YY=             -6.8241   ZZ=             -7.3203
   XY=              0.0000   XZ=             -0.0000   YZ=             -0.3533

  Exact polarizability:      16.703       0.000       2.446       0.000      -0.188       2.183
 Approx polarizability:      24.677       0.000       2.569      -0.000      -0.236       2.237

 ******    1 imaginary frequencies (negative Signs) ******

                      1                      2                      3
                      A                      A                      A
 Frequencies --   -454.2720                58.7910              1464.7588
 Red. masses --      1.0078                 1.1085                 1.0108
 Frc consts  --      0.1225                 0.0023                 1.2778
 IR Inten    --      1.8159                 0.8422                 0.0061

                      4
                      A
 Frequencies --   1468.7096
 Red. masses --      1.0108
 Frc consts  --      1.2847
 IR Inten    --      0.0040

 - Thermochemistry -
 -------------------
 Temperature   298.150 Kelvin.  Pressure   1.00000 Atm.
 Atom     1 has atomic number  1 and mass   1.00783

 Molecular mass:    21.01405 amu.
 Principal axes and moments of inertia in atomic units:
                           1         2         3
     Eigenvalues --     0.00000  80.04787  80.04787
           X            1.00000  -0.00000   0.00000
           Y            0.00000   1.00000   0.00000
           Z            0.00000   0.00000   1.00000
 This molecule is a prolate symmetric top.
 Rotational symmetry number  1.
 Rotational temperature (Kelvin)      1.08203
 Rotational constant (GHZ):          22.545774
    1 imaginary frequencies ignored.
 Zero-point vibrational energy      17897.7 (Joules/Mol)
                                    4.27765 (Kcal/Mol)
 Warning -- explicit consideration of   1 degrees of freedom as
           vibrations may cause significant error
 Vibrational temperatures:     84.59  2107.46  2113.15
          (Kelvin)

 Zero-point correction=                           0.006817 (Hartree/Particle)
 Thermal correction to Energy=                    0.010005
 Thermal correction to Enthalpy=                  0.010949
 Thermal correction to Gibbs Free Energy=        -0.014766
 Sum of electronic and zero-point Energies=           -100.865544
 Sum of electronic and thermal Energies=              -100.862356
 Sum of electronic and thermal Enthalpies=            -100.861412
 Sum of electronic and thermal Free Energies=         -100.887127

                     E (Thermal)             CV                S
                      KCal/Mol        Cal/Mol-Kelvin    Cal/Mol-Kelvin
 Total                    6.278              7.110             54.123
 Electronic               0.000              0.000              1.377
 Translational            0.889              2.981             35.068
 Rotational               0.592              1.987             13.153
 Vibrational              4.797              2.142              4.524
 Vibration     1          0.596              1.974              4.497

 Normal termination of Gaussian 16 at Fri Aug 22 18:49:10 2025.
