 Gaussian 16, Revision C.01,
 Gaussian 16:  ES64L-G16RevC.01  3-Jul-2019

 -----------------------------------------
 # sp b3lyp/6-311g** Force nosymm scf=(qc)
 -----------------------------------------

 -------------------
 Title Card Required
 -------------------
 Symbolic Z-matrix:
 Charge =  0 Multiplicity = 2

                          Input orientation:
 ---------------------------------------------------------------------
 Center     Atomic      Atomic             Coordinates (Angstroms)
 Number     Number       Type             X           Y           Z
 ---------------------------------------------------------------------
      1          1           0        0.000000    0.000000    0.000000
      2          1           0       -1.150000    0.000000    0.000000
      3          9           0        2.300000    0.000000    0.000000
 ---------------------------------------------------------------------

 SCF Done:  E(UB3LYP) =  -100.882863577     a.u. after   13 cycles

 Alpha  occ. eigenvalues --  -24.74456  -1.20513  -0.53782  -0.45023  -0.45023
 Alpha  occ. eigenvalues --   -0.38606
 Alpha virt. eigenvalues --   -0.03467   0.22084   0.35736   0.88823   0.91720
 Alpha virt. eigenvalues --    0.91720   1.08902   1.10077   1.10077   1.30310
 Alpha virt. eigenvalues --    1.55396   1.55396   2.10716   2.31440   2.54749

  Beta  occ. eigenvalues --  -24.71452  -1.11926  -0.42022  -0.42022  -0.38324
  Beta virt. eigenvalues --   -0.25611  -0.02610   0.22568   0.36205   0.93131
  Beta virt. eigenvalues --    0.93131   0.96665   1.10625   1.10625   1.12039
  Beta virt. eigenvalues --    1.32270   1.55826   1.55826   2.11410   2.32101

 Mulliken charges and spin densities:
               1          2
     1  H    0.005588  -0.053348
     2  H    0.033531   0.105746
     3  F   -0.039119   0.947602
 Sum of Mulliken charges =  -0.00000   1.00000

 Dipole moment (field-independent basis, Debye):
    X=             -0.6307    Y=             -0.0000    Z=             -0.0000  Tot=              0.6307
 Quadrupole moment (field-independent basis, Debye-Ang):
   XX=             -6.2877   YY=             -7.3962   ZZ=             -7.3962
   XY=             -0.0000   XZ=             -0.0000   YZ=             -0.0000

  Exact polarizability:      36.114      -0.000       2.134      -0.000       0.000       2.134
 Approx polarizability:      46.162       0.000       2.139       0.000       0.000       2.139

 ******    1 imaginary frequencies (negative Signs) ******

                      1                      2                      3
                      A                      A                      A
 Frequencies --   -651.6776               298.4130              1444.3922
 Red. masses --      1.0414                 1.0706                 1.0117
 Frc consts  --      0.2606                 0.0562                 1.2436
 IR Inten    --    410.9449                49.0050                 0.0253

                      4
                      A
 Frequencies --   1444.3922
 Red. masses --      1.0117
 Frc consts  --      1.2436
 IR Inten    --      0.0253

 - Thermochemistry -
 -------------------
 Temperature   298.150 Kelvin.  Pressure   1.00000 Atm.
 Atom     1 has atomic number  1 and mass   1.00783

 Molecular mass:    21.01405 amu.
 Principal axes and moments of inertia in atomic units:
                           1         2         3
     Eigenvalues --     0.00000  56.16914  56.16914
           X            1.00000  -0.00000   0.00000
           Y            0.00000   1.00000   0.00000
           Z            0.00000   0.00000   1.00000
 This molecule is a prolate symmetric top.
 Rotational symmetry number  1.
 Rotational temperature (Kelvin)      1.54202
 Rotational constant (GHZ):          32.130477
    1 imaginary frequencies ignored.
 Zero-point vibrational energy      19063.7 (Joules/Mol)
                                    4.55633 (Kcal/Mol)
 Warning -- explicit consideration of   1 degrees of freedom as
           vibrations may cause significant error
 Vibrational temperatures:    429.35  2078.16  2078.16
          (Kelvin)

 Zero-point correction=                           0.007261 (Hartree/Particle)
 Thermal correction to Energy=                    0.010056
 Thermal correction to Enthalpy=                  0.011000
 Thermal correction to Gibbs Free Energy=        -0.012923
 Sum of electronic and zero-point Energies=           -100.875603
 Sum of electronic and thermal Energies=              -100.872808
 Sum of electronic and thermal Enthalpies=            -100.871863
 Sum of electronic and thermal Free Energies=         -100.895786

                     E (Thermal)             CV                S
                      KCal/Mol        Cal/Mol-Kelvin    Cal/Mol-Kelvin
 Total                    6.310              6.826             50.350
 Electronic               0.000              0.000              1.377
 Translational            0.889              2.981             35.068
 Rotational               0.592              1.987             12.449
 Vibrational              4.829              1.858              1.456
 Vibration     1          0.692              1.677              1.426

 Normal termination of Gaussian 16 at Fri Aug 22 17:21:01 2025.
