 Gaussian 16, Revision C.01,
 Gaussian 16:  ES64L-G16RevC.01  3-Jul-2019

 -----------------------------------------
 # sp b3lyp/6-311g** Force nosymm scf=(qc)
 -----------------------------------------

 -------------------
 Title Card Required
 -------------------
 Symbolic Z-matrix:
 Charge =  0 Multiplicity = 2

                          Input orientation:
 ---------------------------------------------------------------------
 Center     Atomic      Atomic             Coordinates (Angstroms)
 Number     Number       Type             X           Y           Z
 ---------------------------------------------------------------------
      1          1           0        0.000000    0.000000    0.000000
      2          1           0       -2.950000    0.000000    0.000000
      3          9           0        3.450000    0.000000    0.000000
 ---------------------------------------------------------------------

 SCF Done:  E(UB3LYP) =  -100.760251019     a.u. after   27 cycles

 Alpha  occ. eigenvalues --  -24.75319  -1.21286  -0.54441  -0.45710  -0.45710
 Alpha  occ. eigenvalues --   -0.32482
 Alpha virt. eigenvalues --   -0.08250   0.25016   0.35674   0.87775   0.91522
 Alpha virt. eigenvalues --    0.91522   1.01946   1.25061   1.25061   1.25884
 Alpha virt. eigenvalues --    1.43556   1.43556   1.43624   2.15764   2.39318

  Beta  occ. eigenvalues --  -24.72210  -1.12354  -0.42594  -0.42594  -0.32943
  Beta virt. eigenvalues --   -0.25453  -0.07649   0.24799   0.36593   0.93010
  Beta virt. eigenvalues --    0.93010   0.96892   1.05951   1.24523   1.24523
  Beta virt. eigenvalues --    1.25297   1.44516   1.44516   1.44549   2.16141

 Mulliken charges and spin densities:
               1          2
     1  H    0.012049  -0.977165
     2  H    0.000831   0.991414
     3  F   -0.012880   0.985751
 Sum of Mulliken charges =  -0.00000   1.00000

 Dipole moment (field-independent basis, Debye):
    X=             -0.2401    Y=              0.0000    Z=              0.0000  Tot=              0.2401
 Quadrupole moment (field-independent basis, Debye-Ang):
   XX=             -7.3726   YY=             -7.6358   ZZ=             -7.6358
   XY=             -0.0000   XZ=              0.0000   YZ=             -0.0000

  Exact polarizability:      28.029      -0.000       2.029       0.000       0.000       2.029
 Approx polarizability:      22.088      -0.000       1.931       0.000       0.000       1.931

 ******    2 imaginary frequencies (negative Signs) ******

                      1                      2                      3
                      A                      A                      A
 Frequencies --   -383.7024              -138.0978               134.1106
 Red. masses --      1.0108                 1.1049                 1.0162
 Frc consts  --      0.0877                 0.0124                 0.0108
 IR Inten    --      8.8102                 4.9539                 0.1204

                      4
                      A
 Frequencies --    134.1106
 Red. masses --      1.0162
 Frc consts  --      0.0108
 IR Inten    --      0.1204

 - Thermochemistry -
 -------------------
 Temperature   298.150 Kelvin.  Pressure   1.00000 Atm.
 Atom     1 has atomic number  1 and mass   1.00783

 Molecular mass:    21.01405 amu.
 Principal axes and moments of inertia in atomic units:
                           1         2         3
     Eigenvalues --     0.00000 173.50583 173.50583
           X            1.00000  -0.00000   0.00000
           Y            0.00000   1.00000   0.00000
           Z            0.00000   0.00000   1.00000
 This molecule is a prolate symmetric top.
 Rotational symmetry number  1.
 Rotational temperature (Kelvin)      0.49920
 Rotational constant (GHZ):          10.401617
    2 imaginary frequencies ignored.
 Zero-point vibrational energy       1604.3 (Joules/Mol)
                                    0.38344 (Kcal/Mol)
 Warning -- explicit consideration of   2 degrees of freedom as
           vibrations may cause significant error
 Vibrational temperatures:    192.96   192.96
          (Kelvin)

 Zero-point correction=                           0.000611 (Hartree/Particle)
 Thermal correction to Energy=                    0.004314
 Thermal correction to Enthalpy=                  0.005258
 Thermal correction to Gibbs Free Energy=        -0.021780
 Sum of electronic and zero-point Energies=           -100.759640
 Sum of electronic and thermal Energies=              -100.755937
 Sum of electronic and thermal Enthalpies=            -100.754993
 Sum of electronic and thermal Free Energies=         -100.782031

                     E (Thermal)             CV                S
                      KCal/Mol        Cal/Mol-Kelvin    Cal/Mol-Kelvin
 Total                    2.707              8.807             56.908
 Electronic               0.000              0.000              1.377
 Translational            0.889              2.981             35.068
 Rotational               0.592              1.987             14.690
 Vibrational              1.226              3.839              5.772
 Vibration     1          0.613              1.919              2.886
 Vibration     2          0.613              1.919              2.886

 Normal termination of Gaussian 16 at Fri Aug 22 21:42:28 2025.
