 Gaussian 16, Revision C.01,
 Gaussian 16:  ES64L-G16RevC.01  3-Jul-2019

 -----------------------------------------
 # sp b3lyp/6-311g** Force nosymm scf=(qc)
 -----------------------------------------

 -------------------
 Title Card Required
 -------------------
 Symbolic Z-matrix:
 Charge =  0 Multiplicity = 2

                          Input orientation:
 ---------------------------------------------------------------------
 Center     Atomic      Atomic             Coordinates (Angstroms)
 Number     Number       Type             X           Y           Z
 ---------------------------------------------------------------------
      1          1           0        0.000000    0.000000    0.000000
      2          1           0       -2.300000    0.000000    0.000000
      3          9           0        2.100000    0.000000    0.000000
 ---------------------------------------------------------------------

 SCF Done:  E(UB3LYP) =  -100.787317475     a.u. after   17 cycles

 Alpha  occ. eigenvalues --  -24.68900  -1.15218  -0.47939  -0.40308  -0.40308
 Alpha  occ. eigenvalues --   -0.35148
 Alpha virt. eigenvalues --   -0.13580   0.24305   0.31453   0.88989   0.94831
 Alpha virt. eigenvalues --    0.94831   1.06169   1.22602   1.22602   1.27099
 Alpha virt. eigenvalues --    1.35014   1.35014   1.54781   2.12604   2.29601

  Beta  occ. eigenvalues --  -24.66386  -1.08155  -0.37822  -0.37822  -0.37039
  Beta virt. eigenvalues --   -0.21521  -0.10696   0.25709   0.33629   0.92157
  Beta virt. eigenvalues --    0.95752   0.95752   1.08855   1.22218   1.22218
  Beta virt. eigenvalues --    1.39447   1.39447   1.42447   1.47806   2.12559

 Mulliken charges and spin densities:
               1          2
     1  H    0.140260  -0.739454
     2  H    0.025081   0.948518
     3  F   -0.165341   0.790935
 Sum of Mulliken charges =   0.00000   1.00000

 Dipole moment (field-independent basis, Debye):
    X=             -2.0073    Y=             -0.0000    Z=              0.0000  Tot=              2.0073
 Quadrupole moment (field-independent basis, Debye-Ang):
   XX=             -9.0915   YY=             -7.5583   ZZ=             -7.5583
   XY=             -0.0000   XZ=              0.0000   YZ=             -0.0000

  Exact polarizability:      44.165       0.000       2.043      -0.000       0.000       2.043
 Approx polarizability:      50.761       0.000       1.940      -0.000      -0.000       1.940

 ******    2 imaginary frequencies (negative Signs) ******

                      1                      2                      3
                      A                      A                      A
 Frequencies --  -1191.9760              -467.8670               495.6788
 Red. masses --      1.0287                 1.0843                 1.0191
 Frc consts  --      0.8611                 0.1398                 0.1475
 IR Inten    --     77.8482                29.9854                14.9725

                      4
                      A
 Frequencies --    495.6788
 Red. masses --      1.0191
 Frc consts  --      0.1475
 IR Inten    --     14.9725

 - Thermochemistry -
 -------------------
 Temperature   298.150 Kelvin.  Pressure   1.00000 Atm.
 Atom     1 has atomic number  1 and mass   1.00783

 Molecular mass:    21.01405 amu.
 Principal axes and moments of inertia in atomic units:
                           1         2         3
     Eigenvalues --     0.00000  78.25579  78.25579
           X            1.00000  -0.00000   0.00000
           Y            0.00000   1.00000   0.00000
           Z            0.00000   0.00000   1.00000
 This molecule is a prolate symmetric top.
 Rotational symmetry number  1.
 Rotational temperature (Kelvin)      1.10681
 Rotational constant (GHZ):          23.062079
    2 imaginary frequencies ignored.
 Zero-point vibrational energy       5929.6 (Joules/Mol)
                                    1.41722 (Kcal/Mol)
 Warning -- explicit consideration of   2 degrees of freedom as
           vibrations may cause significant error
 Vibrational temperatures:    713.17   713.17
          (Kelvin)

 Zero-point correction=                           0.002258 (Hartree/Particle)
 Thermal correction to Energy=                    0.005074
 Thermal correction to Enthalpy=                  0.006018
 Thermal correction to Gibbs Free Energy=        -0.018162
 Sum of electronic and zero-point Energies=           -100.785059
 Sum of electronic and thermal Energies=              -100.782244
 Sum of electronic and thermal Enthalpies=            -100.781300
 Sum of electronic and thermal Free Energies=         -100.805480

                     E (Thermal)             CV                S
                      KCal/Mol        Cal/Mol-Kelvin    Cal/Mol-Kelvin
 Total                    3.184              7.487             50.891
 Electronic               0.000              0.000              1.377
 Translational            0.889              2.981             35.068
 Rotational               0.592              1.987             13.108
 Vibrational              1.703              2.519              1.338
 Vibration     1          0.851              1.260              0.669
 Vibration     2          0.851              1.260              0.669

 Normal termination of Gaussian 16 at Fri Aug 22 17:04:06 2025.
