 Gaussian 16, Revision C.01,
 Gaussian 16:  ES64L-G16RevC.01  3-Jul-2019

 -----------------------------------------
 # sp b3lyp/6-311g** Force nosymm scf=(qc)
 -----------------------------------------

 -------------------
 Title Card Required
 -------------------
 Symbolic Z-matrix:
 Charge =  0 Multiplicity = 2

                          Input orientation:
 ---------------------------------------------------------------------
 Center     Atomic      Atomic             Coordinates (Angstroms)
 Number     Number       Type             X           Y           Z
 ---------------------------------------------------------------------
      1          1           0        0.000000    0.000000    0.000000
      2          1           0       -3.100000    0.000000    0.000000
      3          9           0        1.750000    0.000000    0.000000
 ---------------------------------------------------------------------

 SCF Done:  E(UB3LYP) =  -100.805958523     a.u. after   11 cycles

 Alpha  occ. eigenvalues --  -24.64050  -1.08566  -0.40402  -0.35793  -0.35793
 Alpha  occ. eigenvalues --   -0.34603
 Alpha virt. eigenvalues --   -0.19537   0.20260   0.27415   0.94892   0.95367
 Alpha virt. eigenvalues --    0.95367   1.07826   1.22878   1.22878   1.23260
 Alpha virt. eigenvalues --    1.26790   1.26790   1.68396   2.13461   2.15700

  Beta  occ. eigenvalues --  -24.64079  -1.08645  -0.40394  -0.35821  -0.35821
  Beta virt. eigenvalues --   -0.19689  -0.07832   0.23386   0.37217   0.95021
  Beta virt. eigenvalues --    0.95386   0.95386   1.07862   1.27077   1.27077
  Beta virt. eigenvalues --    1.44284   1.44707   1.44707   1.68662   2.16141

 Mulliken charges and spin densities:
               1          2
     1  H    0.315519   0.017149
     2  H    0.007739   0.991965
     3  F   -0.323258  -0.009114
 Sum of Mulliken charges =   0.00000   1.00000

 Dipole moment (field-independent basis, Debye):
    X=             -2.9121    Y=             -0.0000    Z=             -0.0000  Tot=              2.9121
 Quadrupole moment (field-independent basis, Debye-Ang):
   XX=            -10.5930   YY=             -7.4428   ZZ=             -7.4428
   XY=             -0.0000   XZ=             -0.0000   YZ=              0.0000

  Exact polarizability:      25.323      -0.000       2.085      -0.000      -0.000       2.085
 Approx polarizability:      56.369      -0.000       1.997      -0.000      -0.000       1.997

 ******    2 imaginary frequencies (negative Signs) ******

                      1                      2                      3
                      A                      A                      A
 Frequencies --  -1192.3534              -154.2169               824.9360
 Red. masses --      1.0554                 1.0561                 1.0261
 Frc consts  --      0.8841                 0.0148                 0.4114
 IR Inten    --     69.1291                 2.5776                92.4722

                      4
                      A
 Frequencies --    824.9360
 Red. masses --      1.0261
 Frc consts  --      0.4114
 IR Inten    --     92.4722

 - Thermochemistry -
 -------------------
 Temperature   298.150 Kelvin.  Pressure   1.00000 Atm.
 Atom     1 has atomic number  1 and mass   1.00783

 Molecular mass:    21.01405 amu.
 Principal axes and moments of inertia in atomic units:
                           1         2         3
     Eigenvalues --     0.00000  88.16088  88.16088
           X            1.00000  -0.00000   0.00000
           Y            0.00000   1.00000   0.00000
           Z            0.00000   0.00000   1.00000
 This molecule is a prolate symmetric top.
 Rotational symmetry number  1.
 Rotational temperature (Kelvin)      0.98245
 Rotational constant (GHZ):          20.470997
    2 imaginary frequencies ignored.
 Zero-point vibrational energy       9868.4 (Joules/Mol)
                                    2.35861 (Kcal/Mol)
 Vibrational temperatures:   1186.90  1186.90
          (Kelvin)

 Zero-point correction=                           0.003759 (Hartree/Particle)
 Thermal correction to Energy=                    0.006262
 Thermal correction to Enthalpy=                  0.007206
 Thermal correction to Gibbs Free Energy=        -0.016629
 Sum of electronic and zero-point Energies=           -100.802200
 Sum of electronic and thermal Energies=              -100.799696
 Sum of electronic and thermal Enthalpies=            -100.798752
 Sum of electronic and thermal Free Energies=         -100.822588

                     E (Thermal)             CV                S
                      KCal/Mol        Cal/Mol-Kelvin    Cal/Mol-Kelvin
 Total                    3.930              6.189             50.166
 Electronic               0.000              0.000              1.377
 Translational            0.889              2.981             35.068
 Rotational               0.592              1.987             13.345
 Vibrational              2.448              1.221              0.376

 Normal termination of Gaussian 16 at Fri Aug 22 16:41:27 2025.
