 Gaussian 16, Revision C.01,
 Gaussian 16:  ES64L-G16RevC.01  3-Jul-2019

 -----------------------------------------
 # sp b3lyp/6-311g** Force nosymm scf=(qc)
 -----------------------------------------

 -------------------
 Title Card Required
 -------------------
 Symbolic Z-matrix:
 Charge =  0 Multiplicity = 2

                          Input orientation:
 ---------------------------------------------------------------------
 Center     Atomic      Atomic             Coordinates (Angstroms)
 Number     Number       Type             X           Y           Z
 ---------------------------------------------------------------------
      1          1           0        0.000000    0.000000    0.000000
      2          1           0       -2.450000    0.000000    0.000000
      3          9           0        2.250000    0.000000    0.000000
 ---------------------------------------------------------------------

 SCF Done:  E(UB3LYP) =  -100.778720331     a.u. after   15 cycles

 Alpha  occ. eigenvalues --  -24.70074  -1.16361  -0.49140  -0.41301  -0.41301
 Alpha  occ. eigenvalues --   -0.34395
 Alpha virt. eigenvalues --   -0.12935   0.24471   0.32351   0.89169   0.94424
 Alpha virt. eigenvalues --    0.94424   1.06543   1.23278   1.23278   1.26704
 Alpha virt. eigenvalues --    1.36374   1.36374   1.48936   2.13987   2.30924

  Beta  occ. eigenvalues --  -24.67404  -1.08815  -0.38652  -0.38652  -0.36361
  Beta virt. eigenvalues --   -0.22278  -0.09991   0.25678   0.34408   0.93646
  Beta virt. eigenvalues --    0.95590   0.95590   1.08979   1.21904   1.21904
  Beta virt. eigenvalues --    1.39738   1.40969   1.40969   1.43127   2.13240

 Mulliken charges and spin densities:
               1          2
     1  H    0.116286  -0.807166
     2  H    0.016012   0.965902
     3  F   -0.132298   0.841263
 Sum of Mulliken charges =   0.00000   1.00000

 Dipole moment (field-independent basis, Debye):
    X=             -1.6847    Y=              0.0000    Z=             -0.0000  Tot=              1.6847
 Quadrupole moment (field-independent basis, Debye-Ang):
   XX=             -9.1231   YY=             -7.5778   ZZ=             -7.5778
   XY=              0.0000   XZ=             -0.0000   YZ=              0.0000

  Exact polarizability:      42.375       0.000       2.028      -0.000       0.000       2.028
 Approx polarizability:      48.133       0.000       1.926      -0.000      -0.000       1.926

 ******    2 imaginary frequencies (negative Signs) ******

                      1                      2                      3
                      A                      A                      A
 Frequencies --   -978.3430              -394.9667               402.5774
 Red. masses --      1.0290                 1.0840                 1.0190
 Frc consts  --      0.5803                 0.0996                 0.0973
 IR Inten    --     71.5991                24.2305                10.9496

                      4
                      A
 Frequencies --    402.5774
 Red. masses --      1.0190
 Frc consts  --      0.0973
 IR Inten    --     10.9496

 - Thermochemistry -
 -------------------
 Temperature   298.150 Kelvin.  Pressure   1.00000 Atm.
 Atom     1 has atomic number  1 and mass   1.00783

 Molecular mass:    21.01405 amu.
 Principal axes and moments of inertia in atomic units:
                           1         2         3
     Eigenvalues --     0.00000  89.38473  89.38473
           X            1.00000  -0.00000   0.00000
           Y            0.00000   1.00000   0.00000
           Z            0.00000   0.00000   1.00000
 This molecule is a prolate symmetric top.
 Rotational symmetry number  1.
 Rotational temperature (Kelvin)      0.96900
 Rotational constant (GHZ):          20.190710
    2 imaginary frequencies ignored.
 Zero-point vibrational energy       4815.9 (Joules/Mol)
                                    1.15103 (Kcal/Mol)
 Warning -- explicit consideration of   2 degrees of freedom as
           vibrations may cause significant error
 Vibrational temperatures:    579.22   579.22
          (Kelvin)

 Zero-point correction=                           0.001834 (Hartree/Particle)
 Thermal correction to Energy=                    0.004808
 Thermal correction to Enthalpy=                  0.005753
 Thermal correction to Gibbs Free Energy=        -0.018823
 Sum of electronic and zero-point Energies=           -100.776886
 Sum of electronic and thermal Energies=              -100.773912
 Sum of electronic and thermal Enthalpies=            -100.772968
 Sum of electronic and thermal Free Energies=         -100.797543

                     E (Thermal)             CV                S
                      KCal/Mol        Cal/Mol-Kelvin    Cal/Mol-Kelvin
 Total                    3.017              7.897             51.724
 Electronic               0.000              0.000              1.377
 Translational            0.889              2.981             35.068
 Rotational               0.592              1.987             13.372
 Vibrational              1.536              2.929              1.906
 Vibration     1          0.768              1.465              0.953
 Vibration     2          0.768              1.465              0.953

 Normal termination of Gaussian 16 at Fri Aug 22 17:16:50 2025.
