 Gaussian 16, Revision C.01,
 Gaussian 16:  ES64L-G16RevC.01  3-Jul-2019

 -----------------------------------------
 # sp b3lyp/6-311g** Force nosymm scf=(qc)
 -----------------------------------------

 -------------------
 Title Card Required
 -------------------
 Symbolic Z-matrix:
 Charge =  0 Multiplicity = 2

                          Input orientation:
 ---------------------------------------------------------------------
 Center     Atomic      Atomic             Coordinates (Angstroms)
 Number     Number       Type             X           Y           Z
 ---------------------------------------------------------------------
      1          1           0        0.000000    0.000000    0.000000
      2          1           0       -2.950000    0.000000    0.000000
      3          9           0        2.300000    0.000000    0.000000
 ---------------------------------------------------------------------

 SCF Done:  E(UB3LYP) =  -100.773830010     a.u. after   14 cycles

 Alpha  occ. eigenvalues --  -24.70467  -1.16745  -0.49544  -0.41643  -0.41643
 Alpha  occ. eigenvalues --   -0.33516
 Alpha virt. eigenvalues --   -0.11929   0.23811   0.33609   0.89056   0.94234
 Alpha virt. eigenvalues --    0.94234   1.06457   1.24034   1.24034   1.25055
 Alpha virt. eigenvalues --    1.38325   1.38325   1.48250   2.14810   2.32981

  Beta  occ. eigenvalues --  -24.67755  -1.09067  -0.38948  -0.38948  -0.36237
  Beta virt. eigenvalues --   -0.22488  -0.08140   0.24521   0.36541   0.93527
  Beta virt. eigenvalues --    0.95452   0.95452   1.08613   1.21678   1.21678
  Beta virt. eigenvalues --    1.36908   1.44199   1.44199   1.44610   2.13071

 Mulliken charges and spin densities:
               1          2
     1  H    0.118834  -0.846335
     2  H    0.004565   0.991218
     3  F   -0.123399   0.855117
 Sum of Mulliken charges =   0.00000   1.00000

 Dipole moment (field-independent basis, Debye):
    X=             -1.4952    Y=              0.0000    Z=             -0.0000  Tot=              1.4952
 Quadrupole moment (field-independent basis, Debye-Ang):
   XX=             -9.4534   YY=             -7.5581   ZZ=             -7.5581
   XY=              0.0000   XZ=             -0.0000   YZ=             -0.0000

  Exact polarizability:      33.214       0.000       2.030      -0.000       0.000       2.030
 Approx polarizability:      41.598       0.000       1.923      -0.000      -0.000       1.923

 ******    2 imaginary frequencies (negative Signs) ******

                      1                      2                      3
                      A                      A                      A
 Frequencies --   -800.1236              -231.1295               326.3713
 Red. masses --      1.0482                 1.0634                 1.0212
 Frc consts  --      0.3954                 0.0335                 0.0641
 IR Inten    --     91.5555                 3.2292                12.7977

                      4
                      A
 Frequencies --    326.3713
 Red. masses --      1.0212
 Frc consts  --      0.0641
 IR Inten    --     12.7977

 - Thermochemistry -
 -------------------
 Temperature   298.150 Kelvin.  Pressure   1.00000 Atm.
 Atom     1 has atomic number  1 and mass   1.00783

 Molecular mass:    21.01405 amu.
 Principal axes and moments of inertia in atomic units:
                           1         2         3
     Eigenvalues --     0.00000 108.39740 108.39740
           X            1.00000  -0.00000   0.00000
           Y            0.00000   1.00000   0.00000
           Z            0.00000   0.00000   1.00000
 This molecule is a prolate symmetric top.
 Rotational symmetry number  1.
 Rotational temperature (Kelvin)      0.79904
 Rotational constant (GHZ):          16.649303
    2 imaginary frequencies ignored.
 Zero-point vibrational energy       3904.3 (Joules/Mol)
                                    0.93314 (Kcal/Mol)
 Warning -- explicit consideration of   2 degrees of freedom as
           vibrations may cause significant error
 Vibrational temperatures:    469.58   469.58
          (Kelvin)

 Zero-point correction=                           0.001487 (Hartree/Particle)
 Thermal correction to Energy=                    0.004624
 Thermal correction to Enthalpy=                  0.005568
 Thermal correction to Gibbs Free Energy=        -0.019498
 Sum of electronic and zero-point Energies=           -100.772343
 Sum of electronic and thermal Energies=              -100.769206
 Sum of electronic and thermal Enthalpies=            -100.768262
 Sum of electronic and thermal Free Energies=         -100.793328

                     E (Thermal)             CV                S
                      KCal/Mol        Cal/Mol-Kelvin    Cal/Mol-Kelvin
 Total                    2.902              8.214             52.757
 Electronic               0.000              0.000              1.377
 Translational            0.889              2.981             35.068
 Rotational               0.592              1.987             13.755
 Vibrational              1.420              3.246              2.556
 Vibration     1          0.710              1.623              1.278
 Vibration     2          0.710              1.623              1.278

 Normal termination of Gaussian 16 at Fri Aug 22 17:22:46 2025.
