 Gaussian 16, Revision C.01,
 Gaussian 16:  ES64L-G16RevC.01  3-Jul-2019

 -----------------------------------------
 # sp b3lyp/6-311g** Force nosymm scf=(qc)
 -----------------------------------------

 -------------------
 Title Card Required
 -------------------
 Symbolic Z-matrix:
 Charge =  0 Multiplicity = 2

                          Input orientation:
 ---------------------------------------------------------------------
 Center     Atomic      Atomic             Coordinates (Angstroms)
 Number     Number       Type             X           Y           Z
 ---------------------------------------------------------------------
      1          1           0        0.000000    0.000000    0.000000
      2          1           0       -0.950000    0.000000    0.000000
      3          9           0        2.350000    0.000000    0.000000
 ---------------------------------------------------------------------

 SCF Done:  E(UB3LYP) =  -100.915651591     a.u. after    8 cycles

 Alpha  occ. eigenvalues --  -24.75420  -1.21390  -0.54718  -0.45816  -0.45816
 Alpha  occ. eigenvalues --   -0.40753
 Alpha virt. eigenvalues --    0.01588   0.21101   0.40674   0.89418   0.91208
 Alpha virt. eigenvalues --    0.91208   1.07557   1.07557   1.11412   1.42776
 Alpha virt. eigenvalues --    1.67874   1.67874   2.21011   2.36755   2.63956

  Beta  occ. eigenvalues --  -24.72343  -1.12575  -0.42739  -0.42739  -0.40640
  Beta virt. eigenvalues --   -0.25976   0.02213   0.21466   0.41044   0.92653
  Beta virt. eigenvalues --    0.92653   0.97695   1.07888   1.07888   1.15322
  Beta virt. eigenvalues --    1.43573   1.68104   1.68104   2.21450   2.37061

 Mulliken charges and spin densities:
               1          2
     1  H   -0.006925  -0.021556
     2  H    0.024851   0.050475
     3  F   -0.017927   0.971081
 Sum of Mulliken charges =   0.00000   1.00000

 Dipole moment (field-independent basis, Debye):
    X=             -0.3234    Y=             -0.0000    Z=             -0.0000  Tot=              0.3234
 Quadrupole moment (field-independent basis, Debye-Ang):
   XX=             -5.8994   YY=             -7.1917   ZZ=             -7.1917
   XY=             -0.0000   XZ=             -0.0000   YZ=             -0.0000

  Exact polarizability:      22.629      -0.000       2.065      -0.000      -0.000       2.065
 Approx polarizability:      25.885       0.000       2.136       0.000       0.000       2.136

 ******    1 imaginary frequencies (negative Signs) ******

                      1                      2                      3
                      A                      A                      A
 Frequencies --   -223.6589              1506.2593              1506.2593
 Red. masses --      1.1084                 1.0106                 1.0106
 Frc consts  --      0.0327                 1.3509                 1.3509
 IR Inten    --     19.1638                 0.5381                 0.5381

                      4
                      A
 Frequencies --   2121.3237
 Red. masses --      1.0079
 Frc consts  --      2.6723
 IR Inten    --    160.9396

 - Thermochemistry -
 -------------------
 Temperature   298.150 Kelvin.  Pressure   1.00000 Atm.
 Atom     1 has atomic number  1 and mass   1.00783

 Molecular mass:    21.01405 amu.
 Principal axes and moments of inertia in atomic units:
                           1         2         3
     Eigenvalues --     0.00000  53.55868  53.55868
           X            1.00000  -0.00000   0.00000
           Y            0.00000   1.00000   0.00000
           Z            0.00000   0.00000   1.00000
 This molecule is a prolate symmetric top.
 Rotational symmetry number  1.
 Rotational temperature (Kelvin)      1.61718
 Rotational constant (GHZ):          33.696519
    1 imaginary frequencies ignored.
 Zero-point vibrational energy      30707.2 (Joules/Mol)
                                    7.33920 (Kcal/Mol)
 Vibrational temperatures:   2167.17  2167.17  3052.11
          (Kelvin)

 Zero-point correction=                           0.011696 (Hartree/Particle)
 Thermal correction to Energy=                    0.014066
 Thermal correction to Enthalpy=                  0.015010
 Thermal correction to Gibbs Free Energy=        -0.008187
 Sum of electronic and zero-point Energies=           -100.903956
 Sum of electronic and thermal Energies=              -100.901585
 Sum of electronic and thermal Enthalpies=            -100.900641
 Sum of electronic and thermal Free Energies=         -100.923839

                     E (Thermal)             CV                S
                      KCal/Mol        Cal/Mol-Kelvin    Cal/Mol-Kelvin
 Total                    8.827              5.122             48.823
 Electronic               0.000              0.000              1.377
 Translational            0.889              2.981             35.068
 Rotational               0.592              1.987             12.354
 Vibrational              7.345              0.154              0.024

 Normal termination of Gaussian 16 at Fri Aug 22 17:25:15 2025.
