 Gaussian 16, Revision C.01,
 Gaussian 16:  ES64L-G16RevC.01  3-Jul-2019

 -----------------------------------------
 # sp b3lyp/6-311g** Force nosymm scf=(qc)
 -----------------------------------------

 -------------------
 Title Card Required
 -------------------
 Symbolic Z-matrix:
 Charge =  0 Multiplicity = 2

                          Input orientation:
 ---------------------------------------------------------------------
 Center     Atomic      Atomic             Coordinates (Angstroms)
 Number     Number       Type             X           Y           Z
 ---------------------------------------------------------------------
      1          1           0        0.000000    0.000000    0.000000
      2          1           0       -3.200000    0.000000    0.000000
      3          9           0        3.950000    0.000000    0.000000
 ---------------------------------------------------------------------

 SCF Done:  E(UB3LYP) =  -100.759056718     a.u. after   38 cycles

 Alpha  occ. eigenvalues --  -24.75860  -1.21788  -0.54984  -0.46166  -0.46166
 Alpha  occ. eigenvalues --   -0.32303
 Alpha virt. eigenvalues --   -0.07223   0.24747   0.37097   0.86622   0.91183
 Alpha virt. eigenvalues --    0.91183   1.01114   1.25215   1.25215   1.25615
 Alpha virt. eigenvalues --    1.44897   1.45088   1.45088   2.15533   2.40275

  Beta  occ. eigenvalues --  -24.72716  -1.12748  -0.43014  -0.43014  -0.32499
  Beta virt. eigenvalues --   -0.25723  -0.07000   0.24591   0.37393   0.92681
  Beta virt. eigenvalues --    0.92681   0.95989   1.05237   1.25003   1.25003
  Beta virt. eigenvalues --    1.25388   1.45234   1.45420   1.45420   2.15544

 Mulliken charges and spin densities:
               1          2
     1  H    0.002658  -0.992282
     2  H    0.000161   0.995431
     3  F   -0.002819   0.996851
 Sum of Mulliken charges =   0.00000   1.00000

 Dipole moment (field-independent basis, Debye):
    X=             -0.0602    Y=             -0.0000    Z=             -0.0000  Tot=              0.0602
 Quadrupole moment (field-independent basis, Debye-Ang):
   XX=             -6.8962   YY=             -7.6299   ZZ=             -7.6299
   XY=             -0.0000   XZ=             -0.0000   YZ=              0.0000

  Exact polarizability:      12.975      -0.000       2.032       0.000       0.000       2.032
 Approx polarizability:       9.712      -0.000       1.935      -0.000      -0.000       1.935

 ******    2 imaginary frequencies (negative Signs) ******

                      1                      2                      3
                      A                      A                      A
 Frequencies --   -264.8248               -75.4467                92.0896
 Red. masses --      1.0086                 1.1075                 1.0156
 Frc consts  --      0.0417                 0.0037                 0.0051
 IR Inten    --      0.8443                 0.6578                 0.0064

                      4
                      A
 Frequencies --     92.0897
 Red. masses --      1.0156
 Frc consts  --      0.0051
 IR Inten    --      0.0064

 - Thermochemistry -
 -------------------
 Temperature   298.150 Kelvin.  Pressure   1.00000 Atm.
 Atom     1 has atomic number  1 and mass   1.00783

 Molecular mass:    21.01405 amu.
 Principal axes and moments of inertia in atomic units:
                           1         2         3
     Eigenvalues --     0.00000 218.87695 218.87695
           X            1.00000  -0.00000   0.00000
           Y            0.00000   1.00000   0.00000
           Z            0.00000   0.00000   1.00000
 This molecule is a prolate symmetric top.
 Rotational symmetry number  1.
 Rotational temperature (Kelvin)      0.39572
 Rotational constant (GHZ):           8.245460
    2 imaginary frequencies ignored.
 Zero-point vibrational energy       1101.6 (Joules/Mol)
                                    0.26330 (Kcal/Mol)
 Warning -- explicit consideration of   2 degrees of freedom as
           vibrations may cause significant error
 Vibrational temperatures:    132.50   132.50
          (Kelvin)

 Zero-point correction=                           0.000420 (Hartree/Particle)
 Thermal correction to Energy=                    0.004280
 Thermal correction to Enthalpy=                  0.005224
 Thermal correction to Gibbs Free Energy=        -0.022727
 Sum of electronic and zero-point Energies=           -100.758637
 Sum of electronic and thermal Energies=              -100.754777
 Sum of electronic and thermal Enthalpies=            -100.753833
 Sum of electronic and thermal Free Energies=         -100.781784

                     E (Thermal)             CV                S
                      KCal/Mol        Cal/Mol-Kelvin    Cal/Mol-Kelvin
 Total                    2.686              8.878             58.828
 Electronic               0.000              0.000              1.377
 Translational            0.889              2.981             35.068
 Rotational               0.592              1.987             15.152
 Vibrational              1.204              3.910              7.230
 Vibration     1          0.602              1.955              3.615
 Vibration     2          0.602              1.955              3.615

 Normal termination of Gaussian 16 at Sat Aug 23 01:41:16 2025.
