 Gaussian 16, Revision C.01,
 Gaussian 16:  ES64L-G16RevC.01  3-Jul-2019

 -----------------------------------------
 # sp b3lyp/6-311g** Force nosymm scf=(qc)
 -----------------------------------------

 -------------------
 Title Card Required
 -------------------
 Symbolic Z-matrix:
 Charge =  0 Multiplicity = 2

                          Input orientation:
 ---------------------------------------------------------------------
 Center     Atomic      Atomic             Coordinates (Angstroms)
 Number     Number       Type             X           Y           Z
 ---------------------------------------------------------------------
      1          1           0        0.000000    0.000000    0.000000
      2          1           0       -0.700000    0.000000    0.000000
      3          9           0        3.850000    0.000000    0.000000
 ---------------------------------------------------------------------

 SCF Done:  E(UB3LYP) =  -100.932294169     a.u. after   60 cycles

 Alpha  occ. eigenvalues --  -24.76206  -1.22093  -0.55297  -0.46476  -0.46452
 Alpha  occ. eigenvalues --   -0.44246
 Alpha virt. eigenvalues --    0.06679   0.19483   0.48309   0.86082   0.90959
 Alpha virt. eigenvalues --    0.91948   1.01209   1.08909   1.08911   1.57376
 Alpha virt. eigenvalues --    1.85808   1.85811   1.89261   2.37725   3.56849

  Beta  occ. eigenvalues --  -24.73050  -1.13018  -0.44261  -0.43296  -0.43288
  Beta virt. eigenvalues --   -0.25944   0.06687   0.19487   0.48340   0.92459
  Beta virt. eigenvalues --    0.93437   0.95547   1.05331   1.08909   1.08911
  Beta virt. eigenvalues --    1.57379   1.85808   1.85811   1.89272   2.37725

 Mulliken charges and spin densities:
               1          2
     1  H   -0.000188  -0.000217
     2  H   -0.001652   0.000018
     3  F    0.001840   1.000199
 Sum of Mulliken charges =   0.00000   1.00000

 Dipole moment (field-independent basis, Debye):
    X=              0.0260    Y=              0.0000    Z=             -0.0000  Tot=              0.0260
 Quadrupole moment (field-independent basis, Debye-Ang):
   XX=             -6.2649   YY=             -6.1642   ZZ=             -6.7334
   XY=              0.0000   XZ=              0.0000   YZ=              0.3254

  Exact polarizability:       7.441       0.000       2.315       0.000       0.175       2.009
 Approx polarizability:       8.443       0.000       2.490       0.000       0.219       2.107

 ******    3 imaginary frequencies (negative Signs) ******

                      1                      2                      3
                      A                      A                      A
 Frequencies --  -1182.9758             -1180.8417               -51.3505
 Red. masses --      1.0085                 1.0085                 1.1085
 Frc consts  --      0.8315                 0.8286                 0.0017
 IR Inten    --      0.0000                 0.0000                 0.0635

                      4
                      A
 Frequencies --   5087.7699
 Red. masses --      1.0078
 Frc consts  --     15.3706
 IR Inten    --      0.0258

 - Thermochemistry -
 -------------------
 Temperature   298.150 Kelvin.  Pressure   1.00000 Atm.
 Atom     1 has atomic number  1 and mass   1.00783

 Molecular mass:    21.01405 amu.
 Principal axes and moments of inertia in atomic units:
                           1         2         3
     Eigenvalues --     0.00000 115.67563 115.67563
           X            1.00000  -0.00000   0.00000
           Y            0.00000   1.00000   0.00000
           Z            0.00000   0.00000   1.00000
 This molecule is a prolate symmetric top.
 Rotational symmetry number  1.
 Rotational temperature (Kelvin)      0.74877
 Rotational constant (GHZ):          15.601740
    3 imaginary frequencies ignored.
 Zero-point vibrational energy      30431.6 (Joules/Mol)
                                    7.27333 (Kcal/Mol)
 Vibrational temperatures:   7320.17
          (Kelvin)

 Zero-point correction=                           0.011591 (Hartree/Particle)
 Thermal correction to Energy=                    0.013951
 Thermal correction to Enthalpy=                  0.014895
 Thermal correction to Gibbs Free Energy=        -0.009018
 Sum of electronic and zero-point Energies=           -100.920703
 Sum of electronic and thermal Energies=              -100.918343
 Sum of electronic and thermal Enthalpies=            -100.917399
 Sum of electronic and thermal Free Energies=         -100.941312

                     E (Thermal)             CV                S
                      KCal/Mol        Cal/Mol-Kelvin    Cal/Mol-Kelvin
 Total                    8.755              4.968             50.330
 Electronic               0.000              0.000              1.377
 Translational            0.889              2.981             35.068
 Rotational               0.592              1.987             13.884
 Vibrational              7.273              0.000              0.000

 Normal termination of Gaussian 16 at Sat Aug 23 00:54:38 2025.
