 Gaussian 16, Revision C.01,
 Gaussian 16:  ES64L-G16RevC.01  3-Jul-2019

 -----------------------------------------
 # sp b3lyp/6-311g** Force nosymm scf=(qc)
 -----------------------------------------

 -------------------
 Title Card Required
 -------------------
 Symbolic Z-matrix:
 Charge =  0 Multiplicity = 2

                          Input orientation:
 ---------------------------------------------------------------------
 Center     Atomic      Atomic             Coordinates (Angstroms)
 Number     Number       Type             X           Y           Z
 ---------------------------------------------------------------------
      1          1           0        0.000000    0.000000    0.000000
      2          1           0       -2.150000    0.000000    0.000000
      3          9           0        2.600000    0.000000    0.000000
 ---------------------------------------------------------------------

 SCF Done:  E(UB3LYP) =  -100.775274488     a.u. after   18 cycles

 Alpha  occ. eigenvalues --  -24.72390  -1.18555  -0.51496  -0.43242  -0.43242
 Alpha  occ. eigenvalues --   -0.34254
 Alpha virt. eigenvalues --   -0.12377   0.25066   0.32441   0.90317   0.93282
 Alpha virt. eigenvalues --    0.93282   1.06145   1.23615   1.23615   1.23628
 Alpha virt. eigenvalues --    1.36266   1.36266   1.44612   2.12280   2.34087

  Beta  occ. eigenvalues --  -24.69493  -1.10292  -0.40351  -0.40351  -0.34871
  Beta virt. eigenvalues --   -0.23840  -0.10994   0.26347   0.32990   0.94684
  Beta virt. eigenvalues --    0.94684   0.97961   1.09445   1.22959   1.22959
  Beta virt. eigenvalues --    1.25013   1.38547   1.38547   1.45740   2.13009

 Mulliken charges and spin densities:
               1          2
     1  H    0.052909  -0.832783
     2  H    0.020402   0.916656
     3  F   -0.073311   0.916126
 Sum of Mulliken charges =  -0.00000   1.00000

 Dipole moment (field-independent basis, Debye):
    X=             -1.1828    Y=             -0.0000    Z=             -0.0000  Tot=              1.1828
 Quadrupole moment (field-independent basis, Debye-Ang):
   XX=             -8.2468   YY=             -7.6567   ZZ=             -7.6567
   XY=             -0.0000   XZ=             -0.0000   YZ=              0.0000

  Exact polarizability:      55.540      -0.000       2.007      -0.000       0.000       2.007
 Approx polarizability:      56.015      -0.000       1.922      -0.000       0.000       1.922

 ******    2 imaginary frequencies (negative Signs) ******

                      1                      2                      3
                      A                      A                      A
 Frequencies --  -1149.4434              -355.7097               452.8927
 Red. masses --      1.0097                 1.1063                 1.0158
 Frc consts  --      0.7860                 0.0825                 0.1228
 IR Inten    --     46.0691                43.4670                 1.7692

                      4
                      A
 Frequencies --    452.8927
 Red. masses --      1.0158
 Frc consts  --      0.1228
 IR Inten    --      1.7692

 - Thermochemistry -
 -------------------
 Temperature   298.150 Kelvin.  Pressure   1.00000 Atm.
 Atom     1 has atomic number  1 and mass   1.00783

 Molecular mass:    21.01405 amu.
 Principal axes and moments of inertia in atomic units:
                           1         2         3
     Eigenvalues --     0.00000  96.20727  96.20727
           X            1.00000  -0.00000   0.00000
           Y            0.00000   1.00000   0.00000
           Z            0.00000   0.00000   1.00000
 This molecule is a prolate symmetric top.
 Rotational symmetry number  1.
 Rotational temperature (Kelvin)      0.90028
 Rotational constant (GHZ):          18.758886
    2 imaginary frequencies ignored.
 Zero-point vibrational energy       5417.8 (Joules/Mol)
                                    1.29489 (Kcal/Mol)
 Warning -- explicit consideration of   2 degrees of freedom as
           vibrations may cause significant error
 Vibrational temperatures:    651.61   651.61
          (Kelvin)

 Zero-point correction=                           0.002064 (Hartree/Particle)
 Thermal correction to Energy=                    0.004947
 Thermal correction to Enthalpy=                  0.005891
 Thermal correction to Gibbs Free Energy=        -0.018596
 Sum of electronic and zero-point Energies=           -100.773211
 Sum of electronic and thermal Energies=              -100.770328
 Sum of electronic and thermal Enthalpies=            -100.769384
 Sum of electronic and thermal Free Energies=         -100.793871

                     E (Thermal)             CV                S
                      KCal/Mol        Cal/Mol-Kelvin    Cal/Mol-Kelvin
 Total                    3.104              7.677             51.538
 Electronic               0.000              0.000              1.377
 Translational            0.889              2.981             35.068
 Rotational               0.592              1.987             13.518
 Vibrational              1.623              2.709              1.574
 Vibration     1          0.811              1.354              0.787
 Vibration     2          0.811              1.354              0.787

 Normal termination of Gaussian 16 at Fri Aug 22 18:03:53 2025.
