 Gaussian 16, Revision C.01,
 Gaussian 16:  ES64L-G16RevC.01  3-Jul-2019

 -----------------------------------------
 # sp b3lyp/6-311g** Force nosymm scf=(qc)
 -----------------------------------------

 -------------------
 Title Card Required
 -------------------
 Symbolic Z-matrix:
 Charge =  0 Multiplicity = 2

                          Input orientation:
 ---------------------------------------------------------------------
 Center     Atomic      Atomic             Coordinates (Angstroms)
 Number     Number       Type             X           Y           Z
 ---------------------------------------------------------------------
      1          1           0        0.000000    0.000000    0.000000
      2          1           0       -1.750000    0.000000    0.000000
      3          9           0        2.050000    0.000000    0.000000
 ---------------------------------------------------------------------

 SCF Done:  E(UB3LYP) =  -100.810129313     a.u. after   12 cycles

 Alpha  occ. eigenvalues --  -24.69028  -1.15366  -0.48241  -0.40430  -0.40430
 Alpha  occ. eigenvalues --   -0.37020
 Alpha virt. eigenvalues --   -0.12635   0.23362   0.30904   0.85733   0.94579
 Alpha virt. eigenvalues --    0.94579   1.03301   1.20239   1.20239   1.26633
 Alpha virt. eigenvalues --    1.34558   1.34558   1.66650   2.13653   2.36787

  Beta  occ. eigenvalues --  -24.66511  -1.08295  -0.37941  -0.37941  -0.37037
  Beta virt. eigenvalues --   -0.22484  -0.11270   0.25923   0.30508   0.89078
  Beta virt. eigenvalues --    0.95516   0.95516   1.07371   1.22161   1.22161
  Beta virt. eigenvalues --    1.32494   1.35443   1.35443   1.66925   2.14438

 Mulliken charges and spin densities:
               1          2
     1  H    0.106469  -0.550917
     2  H    0.055645   0.759649
     3  F   -0.162114   0.791268
 Sum of Mulliken charges =  -0.00000   1.00000

 Dipole moment (field-independent basis, Debye):
    X=             -2.1247    Y=              0.0000    Z=             -0.0000  Tot=              2.1247
 Quadrupole moment (field-independent basis, Debye-Ang):
   XX=             -8.2185   YY=             -7.5703   ZZ=             -7.5703
   XY=              0.0000   XZ=             -0.0000   YZ=              0.0000

  Exact polarizability:      54.572       0.000       2.068      -0.000      -0.000       2.068
 Approx polarizability:      72.490      -0.000       1.994       0.000       0.000       1.994

 ******    2 imaginary frequencies (negative Signs) ******

                      1                      2                      3
                      A                      A                      A
 Frequencies --  -1907.7279              -551.2479               817.6916
 Red. masses --      1.0123                 1.1031                 1.0161
 Frc consts  --      2.1707                 0.1975                 0.4003
 IR Inten    --    280.9908                35.3819                 5.0474

                      4
                      A
 Frequencies --    817.6916
 Red. masses --      1.0161
 Frc consts  --      0.4003
 IR Inten    --      5.0474

 - Thermochemistry -
 -------------------
 Temperature   298.150 Kelvin.  Pressure   1.00000 Atm.
 Atom     1 has atomic number  1 and mass   1.00783

 Molecular mass:    21.01405 amu.
 Principal axes and moments of inertia in atomic units:
                           1         2         3
     Eigenvalues --     0.00000  61.18748  61.18748
           X            1.00000  -0.00000   0.00000
           Y            0.00000   1.00000   0.00000
           Z            0.00000   0.00000   1.00000
 This molecule is a prolate symmetric top.
 Rotational symmetry number  1.
 Rotational temperature (Kelvin)      1.41555
 Rotational constant (GHZ):          29.495271
    2 imaginary frequencies ignored.
 Zero-point vibrational energy       9781.8 (Joules/Mol)
                                    2.33790 (Kcal/Mol)
 Vibrational temperatures:   1176.48  1176.48
          (Kelvin)

 Zero-point correction=                           0.003726 (Hartree/Particle)
 Thermal correction to Energy=                    0.006233
 Thermal correction to Enthalpy=                  0.007177
 Thermal correction to Gibbs Free Energy=        -0.016319
 Sum of electronic and zero-point Energies=           -100.806404
 Sum of electronic and thermal Energies=              -100.803896
 Sum of electronic and thermal Enthalpies=            -100.802952
 Sum of electronic and thermal Free Energies=         -100.826448

                     E (Thermal)             CV                S
                      KCal/Mol        Cal/Mol-Kelvin    Cal/Mol-Kelvin
 Total                    3.911              6.212             49.451
 Electronic               0.000              0.000              1.377
 Translational            0.889              2.981             35.068
 Rotational               0.592              1.987             12.619
 Vibrational              2.430              1.244              0.387

 Normal termination of Gaussian 16 at Fri Aug 22 16:59:53 2025.
