 Gaussian 16, Revision C.01,
 Gaussian 16:  ES64L-G16RevC.01  3-Jul-2019

 -----------------------------------------
 # sp b3lyp/6-311g** Force nosymm scf=(qc)
 -----------------------------------------

 -------------------
 Title Card Required
 -------------------
 Symbolic Z-matrix:
 Charge =  0 Multiplicity = 2

                          Input orientation:
 ---------------------------------------------------------------------
 Center     Atomic      Atomic             Coordinates (Angstroms)
 Number     Number       Type             X           Y           Z
 ---------------------------------------------------------------------
      1          1           0        0.000000    0.000000    0.000000
      2          1           0       -3.600000    0.000000    0.000000
      3          9           0        3.400000    0.000000    0.000000
 ---------------------------------------------------------------------

 SCF Done:  E(UB3LYP) =  -100.759272461     a.u. after   25 cycles

 Alpha  occ. eigenvalues --  -24.75197  -1.21174  -0.54319  -0.45607  -0.45607
 Alpha  occ. eigenvalues --   -0.32356
 Alpha virt. eigenvalues --   -0.07000   0.24178   0.36903   0.87924   0.91598
 Alpha virt. eigenvalues --    0.91598   1.02103   1.25146   1.25146   1.25252
 Alpha virt. eigenvalues --    1.45271   1.45271   1.45429   2.14859   2.41444

  Beta  occ. eigenvalues --  -24.72095  -1.12265  -0.42499  -0.42499  -0.32955
  Beta virt. eigenvalues --   -0.25384  -0.06332   0.23938   0.38023   0.93084
  Beta virt. eigenvalues --    0.93084   0.96989   1.06068   1.24457   1.24457
  Beta virt. eigenvalues --    1.24550   1.46074   1.46295   1.46295   2.15100

 Mulliken charges and spin densities:
               1          2
     1  H    0.014924  -0.981795
     2  H    0.000170   0.998357
     3  F   -0.015095   0.983438
 Sum of Mulliken charges =  -0.00000   1.00000

 Dipole moment (field-independent basis, Debye):
    X=             -0.2668    Y=             -0.0000    Z=              0.0000  Tot=              0.2668
 Quadrupole moment (field-independent basis, Debye-Ang):
   XX=             -7.5627   YY=             -7.6191   ZZ=             -7.6191
   XY=              0.0000   XZ=              0.0000   YZ=              0.0000

  Exact polarizability:      25.837       0.000       2.033       0.000       0.000       2.033
 Approx polarizability:      21.404       0.000       1.932       0.000       0.000       1.932

 ******    2 imaginary frequencies (negative Signs) ******

                      1                      2                      3
                      A                      A                      A
 Frequencies --   -255.1689               -99.0765                79.9515
 Red. masses --      1.0363                 1.0760                 1.0187
 Frc consts  --      0.0398                 0.0062                 0.0038
 IR Inten    --     15.0590                 0.8313                 0.2022

                      4
                      A
 Frequencies --     79.9516
 Red. masses --      1.0187
 Frc consts  --      0.0038
 IR Inten    --      0.2022

 - Thermochemistry -
 -------------------
 Temperature   298.150 Kelvin.  Pressure   1.00000 Atm.
 Atom     1 has atomic number  1 and mass   1.00783

 Molecular mass:    21.01405 amu.
 Principal axes and moments of inertia in atomic units:
                           1         2         3
     Eigenvalues --     0.00000 199.28679 199.28679
           X            1.00000  -0.00000   0.00000
           Y            0.00000   1.00000   0.00000
           Z            0.00000   0.00000   1.00000
 This molecule is a prolate symmetric top.
 Rotational symmetry number  1.
 Rotational temperature (Kelvin)      0.43462
 Rotational constant (GHZ):           9.056000
    2 imaginary frequencies ignored.
 Zero-point vibrational energy        956.4 (Joules/Mol)
                                    0.22859 (Kcal/Mol)
 Warning -- explicit consideration of   2 degrees of freedom as
           vibrations may cause significant error
 Vibrational temperatures:    115.03   115.03
          (Kelvin)

 Zero-point correction=                           0.000364 (Hartree/Particle)
 Thermal correction to Energy=                    0.004272
 Thermal correction to Enthalpy=                  0.005216
 Thermal correction to Gibbs Free Energy=        -0.022909
 Sum of electronic and zero-point Energies=           -100.758908
 Sum of electronic and thermal Energies=              -100.755000
 Sum of electronic and thermal Enthalpies=            -100.754056
 Sum of electronic and thermal Free Energies=         -100.782182

                     E (Thermal)             CV                S
                      KCal/Mol        Cal/Mol-Kelvin    Cal/Mol-Kelvin
 Total                    2.681              8.893             59.195
 Electronic               0.000              0.000              1.377
 Translational            0.889              2.981             35.068
 Rotational               0.592              1.987             14.965
 Vibrational              1.200              3.925              7.784
 Vibration     1          0.600              1.963              3.892
 Vibration     2          0.600              1.963              3.892

 Normal termination of Gaussian 16 at Fri Aug 22 21:18:48 2025.
