 Gaussian 16, Revision C.01,
 Gaussian 16:  ES64L-G16RevC.01  3-Jul-2019

 -----------------------------------------
 # sp b3lyp/6-311g** Force nosymm scf=(qc)
 -----------------------------------------

 -------------------
 Title Card Required
 -------------------
 Symbolic Z-matrix:
 Charge =  0 Multiplicity = 2

                          Input orientation:
 ---------------------------------------------------------------------
 Center     Atomic      Atomic             Coordinates (Angstroms)
 Number     Number       Type             X           Y           Z
 ---------------------------------------------------------------------
      1          1           0        0.000000    0.000000    0.000000
      2          1           0       -1.500000    0.000000    0.000000
      3          9           0        1.300000    0.000000    0.000000
 ---------------------------------------------------------------------

 SCF Done:  E(UB3LYP) =  -100.912409470     a.u. after    7 cycles

 Alpha  occ. eigenvalues --  -24.63689  -1.11258  -0.48517  -0.37904  -0.36656
 Alpha  occ. eigenvalues --   -0.36656
 Alpha virt. eigenvalues --   -0.02146   0.20668   0.29005   0.93380   0.93380
 Alpha virt. eigenvalues --    1.01857   1.04826   1.14953   1.14953   1.40846
 Alpha virt. eigenvalues --    1.40846   1.53377   1.85300   2.21192   2.40222

  Beta  occ. eigenvalues --  -24.62918  -1.09268  -0.44538  -0.35939  -0.35939
  Beta virt. eigenvalues --   -0.19920   0.01455   0.24585   0.31552   0.93510
  Beta virt. eigenvalues --    0.93510   1.03781   1.11312   1.23876   1.23876
  Beta virt. eigenvalues --    1.44195   1.44195   1.56727   1.91962   2.27281

 Mulliken charges and spin densities:
               1          2
     1  H    0.295160  -0.083733
     2  H    0.061917   0.851254
     3  F   -0.357078   0.232479
 Sum of Mulliken charges =   0.00000   1.00000

 Dipole moment (field-independent basis, Debye):
    X=             -2.8349    Y=             -0.0000    Z=             -0.0000  Tot=              2.8349
 Quadrupole moment (field-independent basis, Debye-Ang):
   XX=             -8.1022   YY=             -7.0714   ZZ=             -7.0714
   XY=             -0.0000   XZ=             -0.0000   YZ=              0.0000

  Exact polarizability:      24.304      -0.000       2.396      -0.000      -0.000       2.396
 Approx polarizability:      32.275      -0.000       2.359      -0.000      -0.000       2.359

 ******    1 imaginary frequencies (negative Signs) ******

                      1                      2                      3
                      A                      A                      A
 Frequencies --  -2115.6894               306.7034              1111.2083
 Red. masses --      1.0220                 1.0918                 1.0198
 Frc consts  --      2.6954                 0.0605                 0.7419
 IR Inten    --      2.6719                21.5789                54.9156

                      4
                      A
 Frequencies --   1111.2083
 Red. masses --      1.0198
 Frc consts  --      0.7419
 IR Inten    --     54.9156

 - Thermochemistry -
 -------------------
 Temperature   298.150 Kelvin.  Pressure   1.00000 Atm.
 Atom     1 has atomic number  1 and mass   1.00783

 Molecular mass:    21.01405 amu.
 Principal axes and moments of inertia in atomic units:
                           1         2         3
     Eigenvalues --     0.00000  31.39703  31.39703
           X            1.00000  -0.00000   0.00000
           Y            0.00000   1.00000   0.00000
           Z            0.00000   0.00000   1.00000
 This molecule is a prolate symmetric top.
 Rotational symmetry number  1.
 Rotational temperature (Kelvin)      2.75867
 Rotational constant (GHZ):          57.481273
    1 imaginary frequencies ignored.
 Zero-point vibrational energy      15127.5 (Joules/Mol)
                                    3.61556 (Kcal/Mol)
 Warning -- explicit consideration of   1 degrees of freedom as
           vibrations may cause significant error
 Vibrational temperatures:    441.28  1598.78  1598.78
          (Kelvin)

 Zero-point correction=                           0.005762 (Hartree/Particle)
 Thermal correction to Energy=                    0.008582
 Thermal correction to Enthalpy=                  0.009526
 Thermal correction to Gibbs Free Energy=        -0.013868
 Sum of electronic and zero-point Energies=           -100.906648
 Sum of electronic and thermal Energies=              -100.903828
 Sum of electronic and thermal Enthalpies=            -100.902884
 Sum of electronic and thermal Free Energies=         -100.926278

                     E (Thermal)             CV                S
                      KCal/Mol        Cal/Mol-Kelvin    Cal/Mol-Kelvin
 Total                    5.385              7.170             49.238
 Electronic               0.000              0.000              1.377
 Translational            0.889              2.981             35.068
 Rotational               0.592              1.987             11.293
 Vibrational              3.904              2.202              1.499
 Vibration     1          0.697              1.661              1.380

 Normal termination of Gaussian 16 at Fri Aug 22 16:14:41 2025.
