 Gaussian 16, Revision C.01,
 Gaussian 16:  ES64L-G16RevC.01  3-Jul-2019

 -----------------------------------------
 # sp b3lyp/6-311g** Force nosymm scf=(qc)
 -----------------------------------------

 -------------------
 Title Card Required
 -------------------
 Symbolic Z-matrix:
 Charge =  0 Multiplicity = 2

                          Input orientation:
 ---------------------------------------------------------------------
 Center     Atomic      Atomic             Coordinates (Angstroms)
 Number     Number       Type             X           Y           Z
 ---------------------------------------------------------------------
      1          1           0        0.000000    0.000000    0.000000
      2          1           0       -0.500000    0.000000    0.000000
      3          9           0        0.750000    0.000000    0.000000
 ---------------------------------------------------------------------

 SCF Done:  E(UB3LYP) =  -100.658403190     a.u. after    6 cycles

 Alpha  occ. eigenvalues --  -24.69523  -1.36811  -0.73741  -0.47056  -0.47056
 Alpha  occ. eigenvalues --   -0.26863
 Alpha virt. eigenvalues --    0.16560   0.17317   0.80900   0.84696   0.84696
 Alpha virt. eigenvalues --    0.91218   1.12171   1.12171   1.47100   1.63717
 Alpha virt. eigenvalues --    1.98200   1.98200   2.00054   3.35958   3.73928

  Beta  occ. eigenvalues --  -24.68167  -1.32895  -0.68363  -0.45869  -0.45869
  Beta virt. eigenvalues --   -0.09388   0.17770   0.20909   0.84620   0.86526
  Beta virt. eigenvalues --    0.86526   0.95041   1.16569   1.16569   1.48568
  Beta virt. eigenvalues --    1.68155   2.03255   2.03255   2.06943   3.41686

 Mulliken charges and spin densities:
               1          2
     1  H    0.285353  -0.088915
     2  H   -0.186414   0.854083
     3  F   -0.098939   0.234832
 Sum of Mulliken charges =   0.00000   1.00000

 Dipole moment (field-independent basis, Debye):
    X=             -0.4986    Y=              0.0000    Z=              0.0000  Tot=              0.4986
 Quadrupole moment (field-independent basis, Debye-Ang):
   XX=             -7.4822   YY=             -6.4015   ZZ=             -6.4015
   XY=              0.0000   XZ=              0.0000   YZ=              0.0000

  Exact polarizability:       9.422      -0.000       2.445       0.000      -0.000       2.445
 Approx polarizability:       9.678       0.000       2.551      -0.000      -0.000       2.551

 ******    2 imaginary frequencies (negative Signs) ******

                      1                      2                      3
                      A                      A                      A
 Frequencies --  -6073.4636             -6073.4636              5011.4395
 Red. masses --      1.0138                 1.0138                 1.1034
 Frc consts  --     22.0326                22.0326                16.3267
 IR Inten    --     93.6832                93.6832               424.0537

                      4
                      A
 Frequencies --  10980.5615
 Red. masses --      1.0121
 Frc consts  --     71.8997
 IR Inten    --      6.4067

 - Thermochemistry -
 -------------------
 Temperature   298.150 Kelvin.  Pressure   1.00000 Atm.
 Atom     1 has atomic number  1 and mass   1.00783

 Molecular mass:    21.01405 amu.
 Principal axes and moments of inertia in atomic units:
                           1         2         3
     Eigenvalues --     0.00000   6.95747   6.95747
           X            1.00000  -0.00000   0.00000
           Y            0.00000   1.00000   0.00000
           Z            0.00000   0.00000   1.00000
 This molecule is a prolate symmetric top.
 Rotational symmetry number  1.
 Rotational temperature (Kelvin)     12.44906
 Rotational constant (GHZ):         259.396357
    2 imaginary frequencies ignored.
 Zero-point vibrational energy      95653.4 (Joules/Mol)
                                   22.86171 (Kcal/Mol)
 Vibrational temperatures:   7210.34 15798.58
          (Kelvin)

 Zero-point correction=                           0.036432 (Hartree/Particle)
 Thermal correction to Energy=                    0.038793
 Thermal correction to Enthalpy=                  0.039737
 Thermal correction to Gibbs Free Energy=         0.018478
 Sum of electronic and zero-point Energies=           -100.621971
 Sum of electronic and thermal Energies=              -100.619610
 Sum of electronic and thermal Enthalpies=            -100.618666
 Sum of electronic and thermal Free Energies=         -100.639925

                     E (Thermal)             CV                S
                      KCal/Mol        Cal/Mol-Kelvin    Cal/Mol-Kelvin
 Total                   24.343              4.968             44.744
 Electronic               0.000              0.000              1.377
 Translational            0.889              2.981             35.068
 Rotational               0.592              1.987              8.298
 Vibrational             22.862              0.000              0.000

 Normal termination of Gaussian 16 at Fri Aug 22 15:47:43 2025.
