 Gaussian 16, Revision C.01,
 Gaussian 16:  ES64L-G16RevC.01  3-Jul-2019

 -----------------------------------------
 # sp b3lyp/6-311g** Force nosymm scf=(qc)
 -----------------------------------------

 -------------------
 Title Card Required
 -------------------
 Symbolic Z-matrix:
 Charge =  0 Multiplicity = 2

                          Input orientation:
 ---------------------------------------------------------------------
 Center     Atomic      Atomic             Coordinates (Angstroms)
 Number     Number       Type             X           Y           Z
 ---------------------------------------------------------------------
      1          1           0        0.000000    0.000000    0.000000
      2          1           0       -1.600000    0.000000    0.000000
      3          9           0        2.900000    0.000000    0.000000
 ---------------------------------------------------------------------

 SCF Done:  E(UB3LYP) =  -100.807496947     a.u. after   30 cycles

 Alpha  occ. eigenvalues --  -24.74704  -1.20720  -0.53838  -0.45205  -0.45205
 Alpha  occ. eigenvalues --   -0.34519
 Alpha virt. eigenvalues --   -0.11150   0.24651   0.30230   0.89821   0.91858
 Alpha virt. eigenvalues --    0.91858   1.04138   1.06528   1.21122   1.21122
 Alpha virt. eigenvalues --    1.38330   1.38330   1.73651   2.18258   2.44205

  Beta  occ. eigenvalues --  -24.71653  -1.11969  -0.42151  -0.42151  -0.34292
  Beta virt. eigenvalues --   -0.25356  -0.10813   0.25282   0.30410   0.93321
  Beta virt. eigenvalues --    0.93321   0.98261   1.05736   1.09454   1.21384
  Beta virt. eigenvalues --    1.21384   1.38607   1.38607   1.74088   2.19121

 Mulliken charges and spin densities:
               1          2
     1  H    0.005298  -0.458914
     2  H    0.022583   0.492334
     3  F   -0.027882   0.966580
 Sum of Mulliken charges =  -0.00000   1.00000

 Dipole moment (field-independent basis, Debye):
    X=             -0.5841    Y=             -0.0000    Z=             -0.0000  Tot=              0.5841
 Quadrupole moment (field-independent basis, Debye-Ang):
   XX=             -6.5473   YY=             -7.7362   ZZ=             -7.7362
   XY=              0.0000   XZ=              0.0000   YZ=              0.0000

  Exact polarizability:      57.988       0.000       2.030       0.000      -0.000       2.030
 Approx polarizability:      70.927       0.000       1.998       0.000      -0.000       1.998

 ******    2 imaginary frequencies (negative Signs) ******

                      1                      2                      3
                      A                      A                      A
 Frequencies --  -2057.7705              -225.0309              1030.7723
 Red. masses --      1.0079                 1.1084                 1.0123
 Frc consts  --      2.5146                 0.0331                 0.6337
 IR Inten    --    212.1036                25.2088                 0.0092

                      4
                      A
 Frequencies --   1030.7723
 Red. masses --      1.0123
 Frc consts  --      0.6337
 IR Inten    --      0.0092

 - Thermochemistry -
 -------------------
 Temperature   298.150 Kelvin.  Pressure   1.00000 Atm.
 Atom     1 has atomic number  1 and mass   1.00783

 Molecular mass:    21.01405 amu.
 Principal axes and moments of inertia in atomic units:
                           1         2         3
     Eigenvalues --     0.00000  93.69563  93.69563
           X            1.00000  -0.00000   0.00000
           Y            0.00000   1.00000   0.00000
           Z            0.00000   0.00000   1.00000
 This molecule is a prolate symmetric top.
 Rotational symmetry number  1.
 Rotational temperature (Kelvin)      0.92442
 Rotational constant (GHZ):          19.261744
    2 imaginary frequencies ignored.
 Zero-point vibrational energy      12330.8 (Joules/Mol)
                                    2.94713 (Kcal/Mol)
 Vibrational temperatures:   1483.05  1483.05
          (Kelvin)

 Zero-point correction=                           0.004697 (Hartree/Particle)
 Thermal correction to Energy=                    0.007122
 Thermal correction to Enthalpy=                  0.008067
 Thermal correction to Gibbs Free Energy=        -0.015726
 Sum of electronic and zero-point Energies=           -100.802800
 Sum of electronic and thermal Energies=              -100.800375
 Sum of electronic and thermal Enthalpies=            -100.799430
 Sum of electronic and thermal Free Energies=         -100.823223

                     E (Thermal)             CV                S
                      KCal/Mol        Cal/Mol-Kelvin    Cal/Mol-Kelvin
 Total                    4.469              5.657             50.076
 Electronic               0.000              0.000              1.377
 Translational            0.889              2.981             35.068
 Rotational               0.592              1.987             13.466
 Vibrational              2.988              0.689              0.165

 Normal termination of Gaussian 16 at Fri Aug 22 19:02:23 2025.
