 Gaussian 16, Revision C.01,
 Gaussian 16:  ES64L-G16RevC.01  3-Jul-2019

 -----------------------------------------
 # sp b3lyp/6-311g** Force nosymm scf=(qc)
 -----------------------------------------

 -------------------
 Title Card Required
 -------------------
 Symbolic Z-matrix:
 Charge =  0 Multiplicity = 2

                          Input orientation:
 ---------------------------------------------------------------------
 Center     Atomic      Atomic             Coordinates (Angstroms)
 Number     Number       Type             X           Y           Z
 ---------------------------------------------------------------------
      1          1           0        0.000000    0.000000    0.000000
      2          1           0       -1.500000    0.000000    0.000000
      3          9           0        1.800000    0.000000    0.000000
 ---------------------------------------------------------------------

 SCF Done:  E(UB3LYP) =  -100.846194126     a.u. after   11 cycles

 Alpha  occ. eigenvalues --  -24.67920  -1.14376  -0.47897  -0.39579  -0.39579
 Alpha  occ. eigenvalues --   -0.38651
 Alpha virt. eigenvalues --   -0.09688   0.21791   0.30343   0.87626   0.93860
 Alpha virt. eigenvalues --    0.93860   1.03203   1.15878   1.15878   1.36437
 Alpha virt. eigenvalues --    1.39232   1.39232   1.86252   2.19829   2.43373

  Beta  occ. eigenvalues --  -24.65652  -1.08079  -0.38793  -0.37354  -0.37354
  Beta virt. eigenvalues --   -0.22899  -0.07431   0.24250   0.30444   0.91428
  Beta virt. eigenvalues --    0.94451   0.94451   1.07256   1.19274   1.19274
  Beta virt. eigenvalues --    1.40115   1.40115   1.41380   1.88708   2.20755

 Mulliken charges and spin densities:
               1          2
     1  H    0.137634  -0.337125
     2  H    0.069689   0.627830
     3  F   -0.207323   0.709295
 Sum of Mulliken charges =  -0.00000   1.00000

 Dipole moment (field-independent basis, Debye):
    X=             -2.3305    Y=              0.0000    Z=              0.0000  Tot=              2.3305
 Quadrupole moment (field-independent basis, Debye-Ang):
   XX=             -7.9480   YY=             -7.4307   ZZ=             -7.4307
   XY=             -0.0000   XZ=             -0.0000   YZ=              0.0000

  Exact polarizability:      46.822      -0.000       2.175      -0.000       0.000       2.175
 Approx polarizability:      71.315      -0.000       2.116      -0.000      -0.000       2.116

 ******    2 imaginary frequencies (negative Signs) ******

                      1                      2                      3
                      A                      A                      A
 Frequencies --  -2319.4556              -528.1944              1058.4515
 Red. masses --      1.0160                 1.0987                 1.0159
 Frc consts  --      3.2206                 0.1806                 0.6706
 IR Inten    --    724.0343                 3.3349                 6.5805

                      4
                      A
 Frequencies --   1058.4515
 Red. masses --      1.0159
 Frc consts  --      0.6706
 IR Inten    --      6.5805

 - Thermochemistry -
 -------------------
 Temperature   298.150 Kelvin.  Pressure   1.00000 Atm.
 Atom     1 has atomic number  1 and mass   1.00783

 Molecular mass:    21.01405 amu.
 Principal axes and moments of inertia in atomic units:
                           1         2         3
     Eigenvalues --     0.00000  46.36448  46.36448
           X            1.00000  -0.00000   0.00000
           Y            0.00000   1.00000   0.00000
           Z            0.00000   0.00000   1.00000
 This molecule is a prolate symmetric top.
 Rotational symmetry number  1.
 Rotational temperature (Kelvin)      1.86811
 Rotational constant (GHZ):          38.925078
    2 imaginary frequencies ignored.
 Zero-point vibrational energy      12661.9 (Joules/Mol)
                                    3.02626 (Kcal/Mol)
 Vibrational temperatures:   1522.88  1522.88
          (Kelvin)

 Zero-point correction=                           0.004823 (Hartree/Particle)
 Thermal correction to Energy=                    0.007242
 Thermal correction to Enthalpy=                  0.008186
 Thermal correction to Gibbs Free Energy=        -0.014934
 Sum of electronic and zero-point Energies=           -100.841371
 Sum of electronic and thermal Energies=              -100.838952
 Sum of electronic and thermal Enthalpies=            -100.838008
 Sum of electronic and thermal Free Energies=         -100.861128

                     E (Thermal)             CV                S
                      KCal/Mol        Cal/Mol-Kelvin    Cal/Mol-Kelvin
 Total                    4.544              5.603             48.661
 Electronic               0.000              0.000              1.377
 Translational            0.889              2.981             35.068
 Rotational               0.592              1.987             12.068
 Vibrational              3.063              0.635              0.148

 Normal termination of Gaussian 16 at Fri Aug 22 16:43:03 2025.
