 Gaussian 16, Revision C.01,
 Gaussian 16:  ES64L-G16RevC.01  3-Jul-2019

 -----------------------------------------
 # sp b3lyp/6-311g** Force nosymm scf=(qc)
 -----------------------------------------

 -------------------
 Title Card Required
 -------------------
 Symbolic Z-matrix:
 Charge =  0 Multiplicity = 2

                          Input orientation:
 ---------------------------------------------------------------------
 Center     Atomic      Atomic             Coordinates (Angstroms)
 Number     Number       Type             X           Y           Z
 ---------------------------------------------------------------------
      1          1           0        0.000000    0.000000    0.000000
      2          1           0       -2.050000    0.000000    0.000000
      3          9           0        3.150000    0.000000    0.000000
 ---------------------------------------------------------------------

 SCF Done:  E(UB3LYP) =  -100.773521418     a.u. after   26 cycles

 Alpha  occ. eigenvalues --  -24.74805  -1.20809  -0.53925  -0.45278  -0.45278
 Alpha  occ. eigenvalues --   -0.33415
 Alpha virt. eigenvalues --   -0.11381   0.25649   0.32164   0.88994   0.91833
 Alpha virt. eigenvalues --    0.91833   1.03100   1.18734   1.24536   1.24536
 Alpha virt. eigenvalues --    1.37484   1.37484   1.48771   2.12798   2.36253

  Beta  occ. eigenvalues --  -24.71734  -1.11995  -0.42202  -0.42202  -0.33579
  Beta virt. eigenvalues --   -0.25228  -0.10852   0.25827   0.32792   0.93308
  Beta virt. eigenvalues --    0.93308   0.97906   1.07064   1.18621   1.24302
  Beta virt. eigenvalues --    1.24302   1.38288   1.38288   1.49401   2.13861

 Mulliken charges and spin densities:
               1          2
     1  H    0.012550  -0.854285
     2  H    0.010798   0.880850
     3  F   -0.023348   0.973436
 Sum of Mulliken charges =   0.00000   1.00000

 Dipole moment (field-independent basis, Debye):
    X=             -0.4825    Y=             -0.0000    Z=              0.0000  Tot=              0.4825
 Quadrupole moment (field-independent basis, Debye-Ang):
   XX=             -7.1604   YY=             -7.7103   ZZ=             -7.7103
   XY=              0.0000   XZ=             -0.0000   YZ=             -0.0000

  Exact polarizability:      54.331       0.000       2.008      -0.000       0.000       2.008
 Approx polarizability:      47.230       0.000       1.931      -0.000      -0.000       1.931

 ******    2 imaginary frequencies (negative Signs) ******

                      1                      2                      3
                      A                      A                      A
 Frequencies --  -1273.9704              -203.5179               508.0354
 Red. masses --      1.0079                 1.1084                 1.0136
 Frc consts  --      0.9638                 0.0270                 0.1541
 IR Inten    --     25.6616                20.3686                 0.0574

                      4
                      A
 Frequencies --    508.0355
 Red. masses --      1.0136
 Frc consts  --      0.1541
 IR Inten    --      0.0574

 - Thermochemistry -
 -------------------
 Temperature   298.150 Kelvin.  Pressure   1.00000 Atm.
 Atom     1 has atomic number  1 and mass   1.00783

 Molecular mass:    21.01405 amu.
 Principal axes and moments of inertia in atomic units:
                           1         2         3
     Eigenvalues --     0.00000 120.99377 120.99377
           X            1.00000  -0.00000   0.00000
           Y            0.00000   1.00000   0.00000
           Z            0.00000   0.00000   1.00000
 This molecule is a prolate symmetric top.
 Rotational symmetry number  1.
 Rotational temperature (Kelvin)      0.71585
 Rotational constant (GHZ):          14.915985
    2 imaginary frequencies ignored.
 Zero-point vibrational energy       6077.5 (Joules/Mol)
                                    1.45255 (Kcal/Mol)
 Warning -- explicit consideration of   2 degrees of freedom as
           vibrations may cause significant error
 Vibrational temperatures:    730.95   730.95
          (Kelvin)

 Zero-point correction=                           0.002315 (Hartree/Particle)
 Thermal correction to Energy=                    0.005112
 Thermal correction to Enthalpy=                  0.006056
 Thermal correction to Gibbs Free Energy=        -0.018506
 Sum of electronic and zero-point Energies=           -100.771207
 Sum of electronic and thermal Energies=              -100.768410
 Sum of electronic and thermal Enthalpies=            -100.767466
 Sum of electronic and thermal Free Energies=         -100.792028

                     E (Thermal)             CV                S
                      KCal/Mol        Cal/Mol-Kelvin    Cal/Mol-Kelvin
 Total                    3.208              7.432             51.696
 Electronic               0.000              0.000              1.377
 Translational            0.889              2.981             35.068
 Rotational               0.592              1.987             13.974
 Vibrational              1.726              2.464              1.277
 Vibration     1          0.863              1.232              0.638
 Vibration     2          0.863              1.232              0.638

 Normal termination of Gaussian 16 at Fri Aug 22 20:09:57 2025.
