 Gaussian 16, Revision C.01,
 Gaussian 16:  ES64L-G16RevC.01  3-Jul-2019

 -----------------------------------------
 # sp b3lyp/6-311g** Force nosymm scf=(qc)
 -----------------------------------------

 -------------------
 Title Card Required
 -------------------
 Symbolic Z-matrix:
 Charge =  0 Multiplicity = 2

                          Input orientation:
 ---------------------------------------------------------------------
 Center     Atomic      Atomic             Coordinates (Angstroms)
 Number     Number       Type             X           Y           Z
 ---------------------------------------------------------------------
      1          1           0        0.000000    0.000000    0.000000
      2          1           0       -1.050000    0.000000    0.000000
      3          9           0        2.250000    0.000000    0.000000
 ---------------------------------------------------------------------

 SCF Done:  E(UB3LYP) =  -100.900335514     a.u. after   12 cycles

 Alpha  occ. eigenvalues --  -24.74696  -1.20738  -0.54072  -0.45225  -0.45225
 Alpha  occ. eigenvalues --   -0.39759
 Alpha virt. eigenvalues --   -0.00887   0.21577   0.37829   0.89072   0.91492
 Alpha virt. eigenvalues --    0.91492   1.08357   1.08357   1.10223   1.37957
 Alpha virt. eigenvalues --    1.61256   1.61256   2.19007   2.34031   2.56044

  Beta  occ. eigenvalues --  -24.71676  -1.12108  -0.42208  -0.42208  -0.39557
  Beta virt. eigenvalues --   -0.25709  -0.00050   0.22042   0.38261   0.92902
  Beta virt. eigenvalues --    0.92902   0.97065   1.08888   1.08888   1.13570
  Beta virt. eigenvalues --    1.39555   1.61647   1.61647   2.19738   2.34588

 Mulliken charges and spin densities:
               1          2
     1  H    0.002729  -0.039279
     2  H    0.031979   0.087518
     3  F   -0.034708   0.951761
 Sum of Mulliken charges =  -0.00000   1.00000

 Dipole moment (field-independent basis, Debye):
    X=             -0.5455    Y=             -0.0000    Z=             -0.0000  Tot=              0.5455
 Quadrupole moment (field-independent basis, Debye-Ang):
   XX=             -6.1821   YY=             -7.2915   ZZ=             -7.2915
   XY=             -0.0000   XZ=             -0.0000   YZ=              0.0000

  Exact polarizability:      30.266      -0.000       2.134      -0.000      -0.000       2.134
 Approx polarizability:      37.017      -0.000       2.152      -0.000       0.000       2.152

 ******    1 imaginary frequencies (negative Signs) ******

                      1                      2                      3
                      A                      A                      A
 Frequencies --   -339.1495              1218.8155              1475.0874
 Red. masses --      1.1062                 1.0098                 1.0113
 Frc consts  --      0.0750                 0.8838                 1.2965
 IR Inten    --     72.5819               308.7108                 0.0406

                      4
                      A
 Frequencies --   1475.0874
 Red. masses --      1.0113
 Frc consts  --      1.2965
 IR Inten    --      0.0406

 - Thermochemistry -
 -------------------
 Temperature   298.150 Kelvin.  Pressure   1.00000 Atm.
 Atom     1 has atomic number  1 and mass   1.00783

 Molecular mass:    21.01405 amu.
 Principal axes and moments of inertia in atomic units:
                           1         2         3
     Eigenvalues --     0.00000  52.09646  52.09646
           X            1.00000  -0.00000   0.00000
           Y            0.00000   1.00000   0.00000
           Z            0.00000   0.00000   1.00000
 This molecule is a prolate symmetric top.
 Rotational symmetry number  1.
 Rotational temperature (Kelvin)      1.66257
 Rotational constant (GHZ):          34.642301
    1 imaginary frequencies ignored.
 Zero-point vibrational energy      24936.1 (Joules/Mol)
                                    5.95987 (Kcal/Mol)
 Vibrational temperatures:   1753.60  2122.32  2122.32
          (Kelvin)

 Zero-point correction=                           0.009498 (Hartree/Particle)
 Thermal correction to Energy=                    0.011885
 Thermal correction to Enthalpy=                  0.012829
 Thermal correction to Gibbs Free Energy=        -0.010362
 Sum of electronic and zero-point Energies=           -100.890838
 Sum of electronic and thermal Energies=              -100.888451
 Sum of electronic and thermal Enthalpies=            -100.887507
 Sum of electronic and thermal Free Energies=         -100.910698

                     E (Thermal)             CV                S
                      KCal/Mol        Cal/Mol-Kelvin    Cal/Mol-Kelvin
 Total                    7.458              5.324             48.809
 Electronic               0.000              0.000              1.377
 Translational            0.889              2.981             35.068
 Rotational               0.592              1.987             12.299
 Vibrational              5.976              0.356              0.064

 Normal termination of Gaussian 16 at Fri Aug 22 17:15:31 2025.
