 Gaussian 16, Revision C.01,
 Gaussian 16:  ES64L-G16RevC.01  3-Jul-2019

 -----------------------------------------
 # sp b3lyp/6-311g** Force nosymm scf=(qc)
 -----------------------------------------

 -------------------
 Title Card Required
 -------------------
 Symbolic Z-matrix:
 Charge =  0 Multiplicity = 2

                          Input orientation:
 ---------------------------------------------------------------------
 Center     Atomic      Atomic             Coordinates (Angstroms)
 Number     Number       Type             X           Y           Z
 ---------------------------------------------------------------------
      1          1           0        0.000000    0.000000    0.000000
      2          1           0       -3.850000    0.000000    0.000000
      3          9           0        3.050000    0.000000    0.000000
 ---------------------------------------------------------------------

 SCF Done:  E(UB3LYP) =  -100.760545173     a.u. after   22 cycles

 Alpha  occ. eigenvalues --  -24.74250  -1.20298  -0.53370  -0.44812  -0.44812
 Alpha  occ. eigenvalues --   -0.32450
 Alpha virt. eigenvalues --   -0.07649   0.23912   0.36311   0.89179   0.92177
 Alpha virt. eigenvalues --    0.92177   1.03600   1.25048   1.25048   1.25084
 Alpha virt. eigenvalues --    1.44579   1.44579   1.45026   2.14462   2.40873

  Beta  occ. eigenvalues --  -24.71211  -1.11586  -0.41770  -0.41770  -0.33603
  Beta virt. eigenvalues --   -0.24867  -0.06053   0.23768   0.38124   0.93642
  Beta virt. eigenvalues --    0.93642   0.97927   1.07356   1.23730   1.23730
  Beta virt. eigenvalues --    1.24000   1.46457   1.46619   1.46619   2.14594

 Mulliken charges and spin densities:
               1          2
     1  H    0.033569  -0.962176
     2  H    0.000166   0.999124
     3  F   -0.033736   0.963052
 Sum of Mulliken charges =  -0.00000   1.00000

 Dipole moment (field-independent basis, Debye):
    X=             -0.5315    Y=             -0.0000    Z=              0.0000  Tot=              0.5315
 Quadrupole moment (field-independent basis, Debye-Ang):
   XX=             -8.2386   YY=             -7.6077   ZZ=             -7.6077
   XY=             -0.0000   XZ=              0.0000   YZ=              0.0000

  Exact polarizability:      30.672      -0.000       2.028       0.000       0.000       2.028
 Approx polarizability:      30.713      -0.000       1.928       0.000      -0.000       1.928

 ******    2 imaginary frequencies (negative Signs) ******

                      1                      2                      3
                      A                      A                      A
 Frequencies --   -347.7737               -80.8913               119.8872
 Red. masses --      1.0523                 1.0593                 1.0210
 Frc consts  --      0.0750                 0.0041                 0.0086
 IR Inten    --     36.1970                 0.1457                 1.0756

                      4
                      A
 Frequencies --    119.8872
 Red. masses --      1.0210
 Frc consts  --      0.0086
 IR Inten    --      1.0756

 - Thermochemistry -
 -------------------
 Temperature   298.150 Kelvin.  Pressure   1.00000 Atm.
 Atom     1 has atomic number  1 and mass   1.00783

 Molecular mass:    21.01405 amu.
 Principal axes and moments of inertia in atomic units:
                           1         2         3
     Eigenvalues --     0.00000 187.74006 187.74006
           X            1.00000  -0.00000   0.00000
           Y            0.00000   1.00000   0.00000
           Z            0.00000   0.00000   1.00000
 This molecule is a prolate symmetric top.
 Rotational symmetry number  1.
 Rotational temperature (Kelvin)      0.46135
 Rotational constant (GHZ):           9.612979
    2 imaginary frequencies ignored.
 Zero-point vibrational energy       1434.2 (Joules/Mol)
                                    0.34277 (Kcal/Mol)
 Warning -- explicit consideration of   2 degrees of freedom as
           vibrations may cause significant error
 Vibrational temperatures:    172.49   172.49
          (Kelvin)

 Zero-point correction=                           0.000546 (Hartree/Particle)
 Thermal correction to Energy=                    0.004301
 Thermal correction to Enthalpy=                  0.005245
 Thermal correction to Gibbs Free Energy=        -0.022073
 Sum of electronic and zero-point Energies=           -100.759999
 Sum of electronic and thermal Energies=              -100.756244
 Sum of electronic and thermal Enthalpies=            -100.755300
 Sum of electronic and thermal Free Energies=         -100.782618

                     E (Thermal)             CV                S
                      KCal/Mol        Cal/Mol-Kelvin    Cal/Mol-Kelvin
 Total                    2.699              8.833             57.497
 Electronic               0.000              0.000              1.377
 Translational            0.889              2.981             35.068
 Rotational               0.592              1.987             14.847
 Vibrational              1.218              3.865              6.204
 Vibration     1          0.609              1.933              3.102
 Vibration     2          0.609              1.933              3.102

 Normal termination of Gaussian 16 at Fri Aug 22 19:45:41 2025.
