 Gaussian 16, Revision C.01,
 Gaussian 16:  ES64L-G16RevC.01  3-Jul-2019

 -----------------------------------------
 # sp b3lyp/6-311g** Force nosymm scf=(qc)
 -----------------------------------------

 -------------------
 Title Card Required
 -------------------
 Symbolic Z-matrix:
 Charge =  0 Multiplicity = 2

                          Input orientation:
 ---------------------------------------------------------------------
 Center     Atomic      Atomic             Coordinates (Angstroms)
 Number     Number       Type             X           Y           Z
 ---------------------------------------------------------------------
      1          1           0        0.000000    0.000000    0.000000
      2          1           0       -2.450000    0.000000    0.000000
      3          9           0        1.200000    0.000000    0.000000
 ---------------------------------------------------------------------

 SCF Done:  E(UB3LYP) =  -100.926383073     a.u. after    7 cycles

 Alpha  occ. eigenvalues --  -24.64110  -1.12098  -0.47687  -0.37328  -0.37328
 Alpha  occ. eigenvalues --   -0.35429
 Alpha virt. eigenvalues --   -0.04715   0.24531   0.28430   0.93371   0.93371
 Alpha virt. eigenvalues --    1.00918   1.19837   1.22099   1.22099   1.33302
 Alpha virt. eigenvalues --    1.34863   1.34863   1.74072   2.13063   2.29560

  Beta  occ. eigenvalues --  -24.64058  -1.11966  -0.47463  -0.37281  -0.37281
  Beta virt. eigenvalues --   -0.11778  -0.02065   0.28365   0.36274   0.93369
  Beta virt. eigenvalues --    0.93369   1.01043   1.26707   1.34741   1.34741
  Beta virt. eigenvalues --    1.43130   1.43130   1.46447   1.74358   2.28802

 Mulliken charges and spin densities:
               1          2
     1  H    0.344983  -0.001207
     2  H    0.011588   0.985250
     3  F   -0.356570   0.015957
 Sum of Mulliken charges =   0.00000   1.00000

 Dipole moment (field-independent basis, Debye):
    X=             -2.4292    Y=             -0.0000    Z=             -0.0000  Tot=              2.4292
 Quadrupole moment (field-independent basis, Debye-Ang):
   XX=             -8.5104   YY=             -7.1208   ZZ=             -7.1208
   XY=             -0.0000   XZ=             -0.0000   YZ=              0.0000

  Exact polarizability:      12.994       0.000       2.350      -0.000      -0.000       2.350
 Approx polarizability:      16.614       0.000       2.309      -0.000      -0.000       2.309

 ******    1 imaginary frequencies (negative Signs) ******

                      1                      2                      3
                      A                      A                      A
 Frequencies --   -196.5520               930.7817              1178.9352
 Red. masses --      1.0446                 1.0672                 1.0284
 Frc consts  --      0.0238                 0.5447                 0.8421
 IR Inten    --      7.2187               125.7958               129.0870

                      4
                      A
 Frequencies --   1178.9352
 Red. masses --      1.0284
 Frc consts  --      0.8421
 IR Inten    --    129.0870

 - Thermochemistry -
 -------------------
 Temperature   298.150 Kelvin.  Pressure   1.00000 Atm.
 Atom     1 has atomic number  1 and mass   1.00783

 Molecular mass:    21.01405 amu.
 Principal axes and moments of inertia in atomic units:
                           1         2         3
     Eigenvalues --     0.00000  49.07022  49.07022
           X            1.00000  -0.00000   0.00000
           Y            0.00000   1.00000   0.00000
           Z            0.00000   0.00000   1.00000
 This molecule is a prolate symmetric top.
 Rotational symmetry number  1.
 Rotational temperature (Kelvin)      1.76510
 Rotational constant (GHZ):          36.778749
    1 imaginary frequencies ignored.
 Zero-point vibrational energy      19670.5 (Joules/Mol)
                                    4.70136 (Kcal/Mol)
 Vibrational temperatures:   1339.19  1696.22  1696.22
          (Kelvin)

 Zero-point correction=                           0.007492 (Hartree/Particle)
 Thermal correction to Energy=                    0.009937
 Thermal correction to Enthalpy=                  0.010881
 Thermal correction to Gibbs Free Energy=        -0.012324
 Sum of electronic and zero-point Energies=           -100.918891
 Sum of electronic and thermal Energies=              -100.916446
 Sum of electronic and thermal Enthalpies=            -100.915502
 Sum of electronic and thermal Free Energies=         -100.938707

                     E (Thermal)             CV                S
                      KCal/Mol        Cal/Mol-Kelvin    Cal/Mol-Kelvin
 Total                    6.236              5.865             48.839
 Electronic               0.000              0.000              1.377
 Translational            0.889              2.981             35.068
 Rotational               0.592              1.987             12.180
 Vibrational              4.754              0.897              0.214

 Normal termination of Gaussian 16 at Fri Aug 22 16:10:28 2025.
