 Gaussian 16, Revision C.01,
 Gaussian 16:  ES64L-G16RevC.01  3-Jul-2019

 -----------------------------------------
 # sp b3lyp/6-311g** Force nosymm scf=(qc)
 -----------------------------------------

 -------------------
 Title Card Required
 -------------------
 Symbolic Z-matrix:
 Charge =  0 Multiplicity = 2

                          Input orientation:
 ---------------------------------------------------------------------
 Center     Atomic      Atomic             Coordinates (Angstroms)
 Number     Number       Type             X           Y           Z
 ---------------------------------------------------------------------
      1          1           0        0.000000    0.000000    0.000000
      2          1           0       -2.550000    0.000000    0.000000
      3          9           0        2.000000    0.000000    0.000000
 ---------------------------------------------------------------------

 SCF Done:  E(UB3LYP) =  -100.790233342     a.u. after   12 cycles

 Alpha  occ. eigenvalues --  -24.68132  -1.14449  -0.47121  -0.39664  -0.39664
 Alpha  occ. eigenvalues --   -0.34749
 Alpha virt. eigenvalues --   -0.13846   0.23872   0.30936   0.89638   0.94945
 Alpha virt. eigenvalues --    0.94945   1.06207   1.22881   1.22881   1.25538
 Alpha virt. eigenvalues --    1.35014   1.35014   1.60299   2.13874   2.28925

  Beta  occ. eigenvalues --  -24.65763  -1.07826  -0.37750  -0.37329  -0.37329
  Beta virt. eigenvalues --   -0.20817  -0.09705   0.24703   0.34880   0.91722
  Beta virt. eigenvalues --    0.95600   0.95600   1.08678   1.22308   1.22308
  Beta virt. eigenvalues --    1.41584   1.41584   1.42610   1.54117   2.13211

 Mulliken charges and spin densities:
               1          2
     1  H    0.176716  -0.718659
     2  H    0.016059   0.973532
     3  F   -0.192775   0.745127
 Sum of Mulliken charges =   0.00000   1.00000

 Dipole moment (field-independent basis, Debye):
    X=             -2.1029    Y=             -0.0000    Z=              0.0000  Tot=              2.1029
 Quadrupole moment (field-independent basis, Debye-Ang):
   XX=             -9.4648   YY=             -7.5194   ZZ=             -7.5194
   XY=              0.0000   XZ=             -0.0000   YZ=             -0.0000

  Exact polarizability:      36.486       0.000       2.059      -0.000      -0.000       2.059
 Approx polarizability:      44.800      -0.000       1.950      -0.000       0.000       1.950

 ******    2 imaginary frequencies (negative Signs) ******

                      1                      2                      3
                      A                      A                      A
 Frequencies --  -1202.6421              -373.1821               504.4801
 Red. masses --      1.0450                 1.0668                 1.0211
 Frc consts  --      0.8905                 0.0875                 0.1531
 IR Inten    --     97.2295                13.0279                26.0401

                      4
                      A
 Frequencies --    504.4801
 Red. masses --      1.0211
 Frc consts  --      0.1531
 IR Inten    --     26.0401

 - Thermochemistry -
 -------------------
 Temperature   298.150 Kelvin.  Pressure   1.00000 Atm.
 Atom     1 has atomic number  1 and mass   1.00783

 Molecular mass:    21.01405 amu.
 Principal axes and moments of inertia in atomic units:
                           1         2         3
     Eigenvalues --     0.00000  81.49924  81.49924
           X            1.00000  -0.00000   0.00000
           Y            0.00000   1.00000   0.00000
           Z            0.00000   0.00000   1.00000
 This molecule is a prolate symmetric top.
 Rotational symmetry number  1.
 Rotational temperature (Kelvin)      1.06276
 Rotational constant (GHZ):          22.144270
    2 imaginary frequencies ignored.
 Zero-point vibrational energy       6034.9 (Joules/Mol)
                                    1.44238 (Kcal/Mol)
 Warning -- explicit consideration of   2 degrees of freedom as
           vibrations may cause significant error
 Vibrational temperatures:    725.83   725.83
          (Kelvin)

 Zero-point correction=                           0.002299 (Hartree/Particle)
 Thermal correction to Energy=                    0.005101
 Thermal correction to Enthalpy=                  0.006045
 Thermal correction to Gibbs Free Energy=        -0.018153
 Sum of electronic and zero-point Energies=           -100.787935
 Sum of electronic and thermal Energies=              -100.785133
 Sum of electronic and thermal Enthalpies=            -100.784188
 Sum of electronic and thermal Free Energies=         -100.808386

                     E (Thermal)             CV                S
                      KCal/Mol        Cal/Mol-Kelvin    Cal/Mol-Kelvin
 Total                    3.201              7.448             50.928
 Electronic               0.000              0.000              1.377
 Translational            0.889              2.981             35.068
 Rotational               0.592              1.987             13.189
 Vibrational              1.720              2.480              1.294
 Vibration     1          0.860              1.240              0.647
 Vibration     2          0.860              1.240              0.647

 Normal termination of Gaussian 16 at Fri Aug 22 16:56:58 2025.
