 Gaussian 16, Revision C.01,
 Gaussian 16:  ES64L-G16RevC.01  3-Jul-2019

 -----------------------------------------
 # sp b3lyp/6-311g** Force nosymm scf=(qc)
 -----------------------------------------

 -------------------
 Title Card Required
 -------------------
 Symbolic Z-matrix:
 Charge =  0 Multiplicity = 2

                          Input orientation:
 ---------------------------------------------------------------------
 Center     Atomic      Atomic             Coordinates (Angstroms)
 Number     Number       Type             X           Y           Z
 ---------------------------------------------------------------------
      1          1           0        0.000000    0.000000    0.000000
      2          1           0       -3.600000    0.000000    0.000000
      3          9           0        1.650000    0.000000    0.000000
 ---------------------------------------------------------------------

 SCF Done:  E(UB3LYP) =  -100.823870508     a.u. after    9 cycles

 Alpha  occ. eigenvalues --  -24.64260  -1.08996  -0.41461  -0.36083  -0.36083
 Alpha  occ. eigenvalues --   -0.33938
 Alpha virt. eigenvalues --   -0.17848   0.19878   0.27365   0.94473   0.94473
 Alpha virt. eigenvalues --    0.98613   1.07128   1.23569   1.23569   1.23577
 Alpha virt. eigenvalues --    1.28451   1.28451   1.71779   2.12770   2.16812

  Beta  occ. eigenvalues --  -24.64279  -1.09048  -0.41493  -0.36102  -0.36102
  Beta virt. eigenvalues --   -0.17906  -0.06715   0.22732   0.38127   0.94484
  Beta virt. eigenvalues --    0.94484   0.98638   1.07132   1.28589   1.28589
  Beta virt. eigenvalues --    1.45708   1.46150   1.46150   1.71875   2.16041

 Mulliken charges and spin densities:
               1          2
     1  H    0.332427   0.008068
     2  H    0.001848   0.998076
     3  F   -0.334275  -0.006145
 Sum of Mulliken charges =  -0.00000   1.00000

 Dipole moment (field-independent basis, Debye):
    X=             -2.7415    Y=             -0.0000    Z=             -0.0000  Tot=              2.7415
 Quadrupole moment (field-independent basis, Debye-Ang):
   XX=            -10.4526   YY=             -7.3964   ZZ=             -7.3964
   XY=             -0.0000   XZ=             -0.0000   YZ=              0.0000

  Exact polarizability:      18.859       0.000       2.123      -0.000      -0.000       2.123
 Approx polarizability:      41.612      -0.000       2.037      -0.000       0.000       2.037

 ******    2 imaginary frequencies (negative Signs) ******

                      1                      2                      3
                      A                      A                      A
 Frequencies --  -1189.0622               -79.4145               903.8221
 Red. masses --      1.0576                 1.0540                 1.0295
 Frc consts  --      0.8810                 0.0039                 0.4955
 IR Inten    --     37.4186                 0.2566               105.6912

                      4
                      A
 Frequencies --    903.8221
 Red. masses --      1.0295
 Frc consts  --      0.4955
 IR Inten    --    105.6912

 - Thermochemistry -
 -------------------
 Temperature   298.150 Kelvin.  Pressure   1.00000 Atm.
 Atom     1 has atomic number  1 and mass   1.00783

 Molecular mass:    21.01405 amu.
 Principal axes and moments of inertia in atomic units:
                           1         2         3
     Eigenvalues --     0.00000 100.77816 100.77816
           X            1.00000  -0.00000   0.00000
           Y            0.00000   1.00000   0.00000
           Z            0.00000   0.00000   1.00000
 This molecule is a prolate symmetric top.
 Rotational symmetry number  1.
 Rotational temperature (Kelvin)      0.85945
 Rotational constant (GHZ):          17.908059
    2 imaginary frequencies ignored.
 Zero-point vibrational energy      10812.1 (Joules/Mol)
                                    2.58416 (Kcal/Mol)
 Vibrational temperatures:   1300.40  1300.40
          (Kelvin)

 Zero-point correction=                           0.004118 (Hartree/Particle)
 Thermal correction to Energy=                    0.006585
 Thermal correction to Enthalpy=                  0.007529
 Thermal correction to Gibbs Free Energy=        -0.016385
 Sum of electronic and zero-point Energies=           -100.819752
 Sum of electronic and thermal Energies=              -100.817285
 Sum of electronic and thermal Enthalpies=            -100.816341
 Sum of electronic and thermal Free Energies=         -100.840255

                     E (Thermal)             CV                S
                      KCal/Mol        Cal/Mol-Kelvin    Cal/Mol-Kelvin
 Total                    4.132              5.958             50.331
 Electronic               0.000              0.000              1.377
 Translational            0.889              2.981             35.068
 Rotational               0.592              1.987             13.610
 Vibrational              2.651              0.990              0.275

 Normal termination of Gaussian 16 at Fri Aug 22 16:35:45 2025.
