 Gaussian 16, Revision C.01,
 Gaussian 16:  ES64L-G16RevC.01  3-Jul-2019

 -----------------------------------------
 # sp b3lyp/6-311g** Force nosymm scf=(qc)
 -----------------------------------------

 -------------------
 Title Card Required
 -------------------
 Symbolic Z-matrix:
 Charge =  0 Multiplicity = 2

                          Input orientation:
 ---------------------------------------------------------------------
 Center     Atomic      Atomic             Coordinates (Angstroms)
 Number     Number       Type             X           Y           Z
 ---------------------------------------------------------------------
      1          1           0        0.000000    0.000000    0.000000
      2          1           0       -2.150000    0.000000    0.000000
      3          9           0        3.600000    0.000000    0.000000
 ---------------------------------------------------------------------

 SCF Done:  E(UB3LYP) =  -100.769144715     a.u. after   31 cycles

 Alpha  occ. eigenvalues --  -24.75665  -1.21607  -0.54788  -0.46004  -0.46004
 Alpha  occ. eigenvalues --   -0.32896
 Alpha virt. eigenvalues --   -0.10565   0.25930   0.33126   0.87293   0.91297
 Alpha virt. eigenvalues --    0.91297   1.01510   1.22235   1.24989   1.24989
 Alpha virt. eigenvalues --    1.38972   1.38972   1.46487   2.13747   2.35562

  Beta  occ. eigenvalues --  -24.72536  -1.12615  -0.42868  -0.42868  -0.33020
  Beta virt. eigenvalues --   -0.25657  -0.10291   0.25782   0.33571   0.92791
  Beta virt. eigenvalues --    0.92791   0.96531   1.05585   1.22134   1.24837
  Beta virt. eigenvalues --    1.24837   1.39367   1.39367   1.46797   2.14210

 Mulliken charges and spin densities:
               1          2
     1  H    0.003172  -0.903819
     2  H    0.003885   0.911950
     3  F   -0.007057   0.991869
 Sum of Mulliken charges =   0.00000   1.00000

 Dipole moment (field-independent basis, Debye):
    X=             -0.1699    Y=             -0.0000    Z=             -0.0000  Tot=              0.1699
 Quadrupole moment (field-independent basis, Debye-Ang):
   XX=             -6.6897   YY=             -7.7057   ZZ=             -7.7057
   XY=             -0.0000   XZ=             -0.0000   YZ=             -0.0000

  Exact polarizability:      37.230       0.000       2.007       0.000       0.000       2.007
 Approx polarizability:      30.020      -0.000       1.932      -0.000      -0.000       1.932

 ******    2 imaginary frequencies (negative Signs) ******

                      1                      2                      3
                      A                      A                      A
 Frequencies --  -1099.5235              -122.1434               430.0492
 Red. masses --      1.0078                 1.1085                 1.0129
 Frc consts  --      0.7179                 0.0097                 0.1104
 IR Inten    --      4.9440                 4.5555                 0.0027

                      4
                      A
 Frequencies --    430.0492
 Red. masses --      1.0129
 Frc consts  --      0.1104
 IR Inten    --      0.0027

 - Thermochemistry -
 -------------------
 Temperature   298.150 Kelvin.  Pressure   1.00000 Atm.
 Atom     1 has atomic number  1 and mass   1.00783

 Molecular mass:    21.01405 amu.
 Principal axes and moments of inertia in atomic units:
                           1         2         3
     Eigenvalues --     0.00000 150.54564 150.54564
           X            1.00000  -0.00000   0.00000
           Y            0.00000   1.00000   0.00000
           Z            0.00000   0.00000   1.00000
 This molecule is a prolate symmetric top.
 Rotational symmetry number  1.
 Rotational temperature (Kelvin)      0.57533
 Rotational constant (GHZ):          11.988000
    2 imaginary frequencies ignored.
 Zero-point vibrational energy       5144.5 (Joules/Mol)
                                    1.22957 (Kcal/Mol)
 Warning -- explicit consideration of   2 degrees of freedom as
           vibrations may cause significant error
 Vibrational temperatures:    618.74   618.74
          (Kelvin)

 Zero-point correction=                           0.001959 (Hartree/Particle)
 Thermal correction to Energy=                    0.004882
 Thermal correction to Enthalpy=                  0.005827
 Thermal correction to Gibbs Free Energy=        -0.019151
 Sum of electronic and zero-point Energies=           -100.767185
 Sum of electronic and thermal Energies=              -100.764262
 Sum of electronic and thermal Enthalpies=            -100.763318
 Sum of electronic and thermal Free Energies=         -100.788296

                     E (Thermal)             CV                S
                      KCal/Mol        Cal/Mol-Kelvin    Cal/Mol-Kelvin
 Total                    3.064              7.778             52.570
 Electronic               0.000              0.000              1.377
 Translational            0.889              2.981             35.068
 Rotational               0.592              1.987             14.408
 Vibrational              1.583              2.810              1.717
 Vibration     1          0.791              1.405              0.858
 Vibration     2          0.791              1.405              0.858

 Normal termination of Gaussian 16 at Fri Aug 22 23:05:46 2025.
