 Gaussian 16, Revision C.01,
 Gaussian 16:  ES64L-G16RevC.01  3-Jul-2019

 -----------------------------------------
 # sp b3lyp/6-311g** Force nosymm scf=(qc)
 -----------------------------------------

 -------------------
 Title Card Required
 -------------------
 Symbolic Z-matrix:
 Charge =  0 Multiplicity = 2

                          Input orientation:
 ---------------------------------------------------------------------
 Center     Atomic      Atomic             Coordinates (Angstroms)
 Number     Number       Type             X           Y           Z
 ---------------------------------------------------------------------
      1          1           0        0.000000    0.000000    0.000000
      2          1           0       -2.450000    0.000000    0.000000
      3          9           0        3.200000    0.000000    0.000000
 ---------------------------------------------------------------------

 SCF Done:  E(UB3LYP) =  -100.764368673     a.u. after   22 cycles

 Alpha  occ. eigenvalues --  -24.74806  -1.20810  -0.53925  -0.45277  -0.45277
 Alpha  occ. eigenvalues --   -0.32923
 Alpha virt. eigenvalues --   -0.10173   0.25561   0.33688   0.88740   0.91838
 Alpha virt. eigenvalues --    0.91838   1.02863   1.24752   1.24752   1.26357
 Alpha virt. eigenvalues --    1.40284   1.40284   1.42335   2.15370   2.36430

  Beta  occ. eigenvalues --  -24.71731  -1.11987  -0.42198  -0.42198  -0.33407
  Beta virt. eigenvalues --   -0.25193  -0.09345   0.25516   0.34737   0.93315
  Beta virt. eigenvalues --    0.93315   0.97704   1.06821   1.24158   1.24158
  Beta virt. eigenvalues --    1.25608   1.41604   1.41604   1.43645   2.16296

 Mulliken charges and spin densities:
               1          2
     1  H    0.018317  -0.940081
     2  H    0.004527   0.965581
     3  F   -0.022844   0.974500
 Sum of Mulliken charges =   0.00000   1.00000

 Dipole moment (field-independent basis, Debye):
    X=             -0.4281    Y=             -0.0000    Z=             -0.0000  Tot=              0.4281
 Quadrupole moment (field-independent basis, Debye-Ang):
   XX=             -7.5328   YY=             -7.6640   ZZ=             -7.6640
   XY=              0.0000   XZ=             -0.0000   YZ=             -0.0000

  Exact polarizability:      42.297       0.000       2.016       0.000       0.000       2.016
 Approx polarizability:      34.760       0.000       1.925       0.000      -0.000       1.925

 ******    2 imaginary frequencies (negative Signs) ******

                      1                      2                      3
                      A                      A                      A
 Frequencies --   -732.4547              -193.6014               272.4716
 Red. masses --      1.0085                 1.1077                 1.0150
 Frc consts  --      0.3188                 0.0245                 0.0444
 IR Inten    --     14.6671                14.4637                 0.2408

                      4
                      A
 Frequencies --    272.4716
 Red. masses --      1.0150
 Frc consts  --      0.0444
 IR Inten    --      0.2408

 - Thermochemistry -
 -------------------
 Temperature   298.150 Kelvin.  Pressure   1.00000 Atm.
 Atom     1 has atomic number  1 and mass   1.00783

 Molecular mass:    21.01405 amu.
 Principal axes and moments of inertia in atomic units:
                           1         2         3
     Eigenvalues --     0.00000 138.22419 138.22419
           X            1.00000  -0.00000   0.00000
           Y            0.00000   1.00000   0.00000
           Z            0.00000   0.00000   1.00000
 This molecule is a prolate symmetric top.
 Rotational symmetry number  1.
 Rotational temperature (Kelvin)      0.62662
 Rotational constant (GHZ):          13.056623
    2 imaginary frequencies ignored.
 Zero-point vibrational energy       3259.5 (Joules/Mol)
                                    0.77904 (Kcal/Mol)
 Warning -- explicit consideration of   2 degrees of freedom as
           vibrations may cause significant error
 Vibrational temperatures:    392.03   392.03
          (Kelvin)

 Zero-point correction=                           0.001241 (Hartree/Particle)
 Thermal correction to Energy=                    0.004513
 Thermal correction to Enthalpy=                  0.005458
 Thermal correction to Gibbs Free Energy=        -0.020126
 Sum of electronic and zero-point Energies=           -100.763127
 Sum of electronic and thermal Energies=              -100.759855
 Sum of electronic and thermal Enthalpies=            -100.758911
 Sum of electronic and thermal Free Energies=         -100.784494

                     E (Thermal)             CV                S
                      KCal/Mol        Cal/Mol-Kelvin    Cal/Mol-Kelvin
 Total                    2.832              8.416             53.845
 Electronic               0.000              0.000              1.377
 Translational            0.889              2.981             35.068
 Rotational               0.592              1.987             14.238
 Vibrational              1.351              3.448              3.161
 Vibration     1          0.675              1.724              1.580
 Vibration     2          0.675              1.724              1.580

 Normal termination of Gaussian 16 at Fri Aug 22 20:23:41 2025.
