 Gaussian 16, Revision C.01,
 Gaussian 16:  ES64L-G16RevC.01  3-Jul-2019

 -----------------------------------------
 # sp b3lyp/6-311g** Force nosymm scf=(qc)
 -----------------------------------------

 -------------------
 Title Card Required
 -------------------
 Symbolic Z-matrix:
 Charge =  0 Multiplicity = 2

                          Input orientation:
 ---------------------------------------------------------------------
 Center     Atomic      Atomic             Coordinates (Angstroms)
 Number     Number       Type             X           Y           Z
 ---------------------------------------------------------------------
      1          1           0        0.000000    0.000000    0.000000
      2          1           0       -4.000000    0.000000    0.000000
      3          9           0        3.600000    0.000000    0.000000
 ---------------------------------------------------------------------

 SCF Done:  E(UB3LYP) =  -100.758702678     a.u. after   39 cycles

 Alpha  occ. eigenvalues --  -24.75530  -1.21482  -0.54653  -0.45887  -0.45887
 Alpha  occ. eigenvalues --   -0.32269
 Alpha virt. eigenvalues --   -0.05784   0.24168   0.37635   0.87297   0.91392
 Alpha virt. eigenvalues --    0.91392   1.01583   1.25225   1.25225   1.25245
 Alpha virt. eigenvalues --    1.47425   1.47425   1.48166   2.14543   2.43087

  Beta  occ. eigenvalues --  -24.72407  -1.12506  -0.42757  -0.42757  -0.32696
  Beta virt. eigenvalues --   -0.25555  -0.05800   0.23882   0.38201   0.92884
  Beta virt. eigenvalues --    0.92884   0.96499   1.05625   1.24743   1.24743
  Beta virt. eigenvalues --    1.24746   1.46736   1.46818   1.46818   2.14640

 Mulliken charges and spin densities:
               1          2
     1  H    0.008768  -0.989697
     2  H    0.000037   0.999378
     3  F   -0.008806   0.990319
 Sum of Mulliken charges =  -0.00000   1.00000

 Dipole moment (field-independent basis, Debye):
    X=             -0.1639    Y=             -0.0000    Z=             -0.0000  Tot=              0.1639
 Quadrupole moment (field-independent basis, Debye-Ang):
   XX=             -7.2924   YY=             -7.6177   ZZ=             -7.6177
   XY=             -0.0000   XZ=             -0.0000   YZ=              0.0000

  Exact polarizability:      20.084      -0.000       2.042      -0.000      -0.000       2.042
 Approx polarizability:      15.387      -0.000       1.935      -0.000      -0.000       1.935

 ******    2 imaginary frequencies (negative Signs) ******

                      1                      2                      3
                      A                      A                      A
 Frequencies --   -193.5108               -66.1338                44.3457
 Red. masses --      1.0434                 1.0685                 1.0193
 Frc consts  --      0.0230                 0.0028                 0.0012
 IR Inten    --      7.8780                 0.1844                 0.0638

                      4
                      A
 Frequencies --     44.3460
 Red. masses --      1.0193
 Frc consts  --      0.0012
 IR Inten    --      0.0638

 - Thermochemistry -
 -------------------
 Temperature   298.150 Kelvin.  Pressure   1.00000 Atm.
 Atom     1 has atomic number  1 and mass   1.00783

 Molecular mass:    21.01405 amu.
 Principal axes and moments of inertia in atomic units:
                           1         2         3
     Eigenvalues --     0.00000 232.87007 232.87007
           X            1.00000  -0.00000   0.00000
           Y            0.00000   1.00000   0.00000
           Z            0.00000   0.00000   1.00000
 This molecule is a prolate symmetric top.
 Rotational symmetry number  1.
 Rotational temperature (Kelvin)      0.37194
 Rotational constant (GHZ):           7.749992
    2 imaginary frequencies ignored.
 Zero-point vibrational energy        530.5 (Joules/Mol)
                                    0.12679 (Kcal/Mol)
 Warning -- explicit consideration of   2 degrees of freedom as
           vibrations may cause significant error
 Vibrational temperatures:     63.80    63.80
          (Kelvin)

 Zero-point correction=                           0.000202 (Hartree/Particle)
 Thermal correction to Energy=                    0.004256
 Thermal correction to Enthalpy=                  0.005200
 Thermal correction to Gibbs Free Energy=        -0.024177
 Sum of electronic and zero-point Energies=           -100.758501
 Sum of electronic and thermal Energies=              -100.754447
 Sum of electronic and thermal Enthalpies=            -100.753502
 Sum of electronic and thermal Free Energies=         -100.782880

                     E (Thermal)             CV                S
                      KCal/Mol        Cal/Mol-Kelvin    Cal/Mol-Kelvin
 Total                    2.671              8.927             61.830
 Electronic               0.000              0.000              1.377
 Translational            0.889              2.981             35.068
 Rotational               0.592              1.987             15.275
 Vibrational              1.189              3.959             10.110
 Vibration     1          0.595              1.980              5.055
 Vibration     2          0.595              1.980              5.055

 Normal termination of Gaussian 16 at Fri Aug 22 23:08:50 2025.
