 Gaussian 16, Revision C.01,
 Gaussian 16:  ES64L-G16RevC.01  3-Jul-2019

 -----------------------------------------
 # sp b3lyp/6-311g** Force nosymm scf=(qc)
 -----------------------------------------

 -------------------
 Title Card Required
 -------------------
 Symbolic Z-matrix:
 Charge =  0 Multiplicity = 2

                          Input orientation:
 ---------------------------------------------------------------------
 Center     Atomic      Atomic             Coordinates (Angstroms)
 Number     Number       Type             X           Y           Z
 ---------------------------------------------------------------------
      1          1           0        0.000000    0.000000    0.000000
      2          1           0       -1.600000    0.000000    0.000000
      3          9           0        0.700000    0.000000    0.000000
 ---------------------------------------------------------------------

 SCF Done:  E(UB3LYP) =  -100.871175399     a.u. after    6 cycles

 Alpha  occ. eigenvalues --  -24.63122  -1.28312  -0.59149  -0.41727  -0.41727
 Alpha  occ. eigenvalues --   -0.35938
 Alpha virt. eigenvalues --    0.12673   0.22213   0.51270   0.93351   0.93351
 Alpha virt. eigenvalues --    0.95667   1.19062   1.19062   1.29929   1.46592
 Alpha virt. eigenvalues --    1.46592   1.57758   2.01870   2.16121   3.03777

  Beta  occ. eigenvalues --  -24.63025  -1.28035  -0.58597  -0.41654  -0.41654
  Beta virt. eigenvalues --   -0.12058   0.14030   0.30783   0.54825   0.93437
  Beta virt. eigenvalues --    0.93437   0.95888   1.33769   1.33769   1.36764
  Beta virt. eigenvalues --    1.50348   1.50348   1.65693   2.02862   2.38194

 Mulliken charges and spin densities:
               1          2
     1  H    0.244326   0.013933
     2  H    0.013923   0.970751
     3  F   -0.258249   0.015316
 Sum of Mulliken charges =   0.00000   1.00000

 Dipole moment (field-independent basis, Debye):
    X=             -1.6639    Y=              0.0000    Z=              0.0000  Tot=              1.6639
 Quadrupole moment (field-independent basis, Debye-Ang):
   XX=             -7.0444   YY=             -6.5862   ZZ=             -6.5862
   XY=             -0.0000   XZ=              0.0000   YZ=             -0.0000

  Exact polarizability:       7.193       0.000       2.528       0.000       0.000       2.528
 Approx polarizability:       7.014       0.000       2.534      -0.000       0.000       2.534

 ******    2 imaginary frequencies (negative Signs) ******

                      1                      2                      3
                      A                      A                      A
 Frequencies --  -3478.4867             -3478.4867               691.8674
 Red. masses --      1.0302                 1.0302                 1.0534
 Frc consts  --      7.3445                 7.3445                 0.2971
 IR Inten    --    157.5622               157.5622                 1.2330

                      4
                      A
 Frequencies --   9058.0078
 Red. masses --      1.0581
 Frc consts  --     51.1518
 IR Inten    --    149.0222

 - Thermochemistry -
 -------------------
 Temperature   298.150 Kelvin.  Pressure   1.00000 Atm.
 Atom     1 has atomic number  1 and mass   1.00783

 Molecular mass:    21.01405 amu.
 Principal axes and moments of inertia in atomic units:
                           1         2         3
     Eigenvalues --     0.00000  19.24881  19.24881
           X            1.00000  -0.00000   0.00000
           Y            0.00000   1.00000   0.00000
           Z            0.00000   0.00000   1.00000
 This molecule is a prolate symmetric top.
 Rotational symmetry number  1.
 Rotational temperature (Kelvin)      4.49970
 Rotational constant (GHZ):          93.758600
    2 imaginary frequencies ignored.
 Zero-point vibrational energy      58317.2 (Joules/Mol)
                                   13.93815 (Kcal/Mol)
 Vibrational temperatures:    995.44 13032.45
          (Kelvin)

 Zero-point correction=                           0.022212 (Hartree/Particle)
 Thermal correction to Energy=                    0.024688
 Thermal correction to Enthalpy=                  0.025632
 Thermal correction to Gibbs Free Energy=         0.003262
 Sum of electronic and zero-point Energies=           -100.848964
 Sum of electronic and thermal Energies=              -100.846487
 Sum of electronic and thermal Enthalpies=            -100.845543
 Sum of electronic and thermal Free Energies=         -100.867913

                     E (Thermal)             CV                S
                      KCal/Mol        Cal/Mol-Kelvin    Cal/Mol-Kelvin
 Total                   15.492              5.813             47.082
 Electronic               0.000              0.000              1.377
 Translational            0.889              2.981             35.068
 Rotational               0.592              1.987             10.321
 Vibrational             14.011              0.845              0.316

 Normal termination of Gaussian 16 at Fri Aug 22 15:46:09 2025.
