 Gaussian 16, Revision C.01,
 Gaussian 16:  ES64L-G16RevC.01  3-Jul-2019

 -----------------------------------------
 # sp b3lyp/6-311g** Force nosymm scf=(qc)
 -----------------------------------------

 -------------------
 Title Card Required
 -------------------
 Symbolic Z-matrix:
 Charge =  0 Multiplicity = 2

                          Input orientation:
 ---------------------------------------------------------------------
 Center     Atomic      Atomic             Coordinates (Angstroms)
 Number     Number       Type             X           Y           Z
 ---------------------------------------------------------------------
      1          1           0        0.000000    0.000000    0.000000
      2          1           0       -1.200000    0.000000    0.000000
      3          9           0        0.550000    0.000000    0.000000
 ---------------------------------------------------------------------

 SCF Done:  E(UB3LYP) =  -100.493960692     a.u. after    6 cycles

 Alpha  occ. eigenvalues --  -24.63827  -1.40377  -0.64619  -0.44785  -0.44785
 Alpha  occ. eigenvalues --   -0.34822
 Alpha virt. eigenvalues --    0.15756   0.20925   0.72476   0.88911   0.88911
 Alpha virt. eigenvalues --    0.89132   1.13163   1.13163   1.49378   1.67272
 Alpha virt. eigenvalues --    1.67272   1.75934   2.02327   2.36425   3.76124

  Beta  occ. eigenvalues --  -24.63622  -1.39685  -0.63645  -0.44636  -0.44636
  Beta virt. eigenvalues --   -0.11629   0.16620   0.28821   0.78254   0.89531
  Beta virt. eigenvalues --    0.89598   0.89598   1.24176   1.24176   1.50105
  Beta virt. eigenvalues --    1.72319   1.72319   1.83298   2.10264   2.56353

 Mulliken charges and spin densities:
               1          2
     1  H    0.206715   0.007593
     2  H   -0.009209   0.978420
     3  F   -0.197506   0.013988
 Sum of Mulliken charges =   0.00000   1.00000

 Dipole moment (field-independent basis, Debye):
    X=             -1.1518    Y=              0.0000    Z=              0.0000  Tot=              1.1518
 Quadrupole moment (field-independent basis, Debye-Ang):
   XX=             -6.9772   YY=             -6.3889   ZZ=             -6.3889
   XY=              0.0000   XZ=              0.0000   YZ=             -0.0000

  Exact polarizability:       6.114      -0.000       2.509       0.000       0.000       2.509
 Approx polarizability:       5.800       0.000       2.550       0.000       0.000       2.550

 ******    2 imaginary frequencies (negative Signs) ******

                      1                      2                      3
                      A                      A                      A
 Frequencies --  -7287.1319             -7287.1319              1586.4859
 Red. masses --      1.0295                 1.0295                 1.0538
 Frc consts  --     32.2088                32.2088                 1.5627
 IR Inten    --    173.6089               173.6089                40.6579

                      4
                      A
 Frequencies --  15785.8124
 Red. masses --      1.0578
 Frc consts  --    155.3036
 IR Inten    --     63.7492

 - Thermochemistry -
 -------------------
 Temperature   298.150 Kelvin.  Pressure   1.00000 Atm.
 Atom     1 has atomic number  1 and mass   1.00783

 Molecular mass:    21.01405 amu.
 Principal axes and moments of inertia in atomic units:
                           1         2         3
     Eigenvalues --     0.00000  11.19757  11.19757
           X            1.00000  -0.00000   0.00000
           Y            0.00000   1.00000   0.00000
           Z            0.00000   0.00000   1.00000
 This molecule is a prolate symmetric top.
 Rotational symmetry number  1.
 Rotational temperature (Kelvin)      7.73506
 Rotational constant (GHZ):         161.172531
    2 imaginary frequencies ignored.
 Zero-point vibrational energy     103909.4 (Joules/Mol)
                                   24.83495 (Kcal/Mol)
 Vibrational temperatures:   2282.60 22712.26
          (Kelvin)

 Zero-point correction=                           0.039577 (Hartree/Particle)
 Thermal correction to Energy=                    0.041941
 Thermal correction to Enthalpy=                  0.042885
 Thermal correction to Gibbs Free Energy=         0.021173
 Sum of electronic and zero-point Energies=           -100.454384
 Sum of electronic and thermal Energies=              -100.452020
 Sum of electronic and thermal Enthalpies=            -100.451076
 Sum of electronic and thermal Free Energies=         -100.472788

                     E (Thermal)             CV                S
                      KCal/Mol        Cal/Mol-Kelvin    Cal/Mol-Kelvin
 Total                   26.318              5.023             45.698
 Electronic               0.000              0.000              1.377
 Translational            0.889              2.981             35.068
 Rotational               0.592              1.987              9.244
 Vibrational             24.837              0.055              0.008

 Normal termination of Gaussian 16 at Fri Aug 22 15:38:47 2025.
