 Gaussian 16, Revision C.01,
 Gaussian 16:  ES64L-G16RevC.01  3-Jul-2019

 -----------------------------------------
 # sp b3lyp/6-311g** Force nosymm scf=(qc)
 -----------------------------------------

 -------------------
 Title Card Required
 -------------------
 Symbolic Z-matrix:
 Charge =  0 Multiplicity = 2

                          Input orientation:
 ---------------------------------------------------------------------
 Center     Atomic      Atomic             Coordinates (Angstroms)
 Number     Number       Type             X           Y           Z
 ---------------------------------------------------------------------
      1          1           0        0.000000    0.000000    0.000000
      2          1           0       -1.700000    0.000000    0.000000
      3          9           0        2.100000    0.000000    0.000000
 ---------------------------------------------------------------------

 SCF Done:  E(UB3LYP) =  -100.811606308     a.u. after   10 cycles

 Alpha  occ. eigenvalues --  -24.69617  -1.15939  -0.48839  -0.40930  -0.40930
 Alpha  occ. eigenvalues --   -0.36963
 Alpha virt. eigenvalues --   -0.12385   0.23326   0.31028   0.85524   0.94365
 Alpha virt. eigenvalues --    0.94365   1.03019   1.19908   1.19908   1.25222
 Alpha virt. eigenvalues --    1.35050   1.35050   1.68256   2.14523   2.38445

  Beta  occ. eigenvalues --  -24.67026  -1.08640  -0.38364  -0.38364  -0.36785
  Beta virt. eigenvalues --   -0.22877  -0.11136   0.25789   0.30515   0.89193
  Beta virt. eigenvalues --    0.95412   0.95412   1.07095   1.21575   1.21575
  Beta virt. eigenvalues --    1.30380   1.35858   1.35858   1.68866   2.15324

 Mulliken charges and spin densities:
               1          2
     1  H    0.090729  -0.529344
     2  H    0.055495   0.714228
     3  F   -0.146224   0.815116
 Sum of Mulliken charges =  -0.00000   1.00000

 Dipole moment (field-independent basis, Debye):
    X=             -1.9882    Y=              0.0000    Z=              0.0000  Tot=              1.9882
 Quadrupole moment (field-independent basis, Debye-Ang):
   XX=             -8.0539   YY=             -7.5860   ZZ=             -7.5860
   XY=              0.0000   XZ=              0.0000   YZ=             -0.0000

  Exact polarizability:      56.006      -0.000       2.064      -0.000       0.000       2.064
 Approx polarizability:      76.120       0.000       1.997       0.000      -0.000       1.997

 ******    2 imaginary frequencies (negative Signs) ******

                      1                      2                      3
                      A                      A                      A
 Frequencies --  -1964.9588              -520.3116               865.0075
 Red. masses --      1.0111                 1.1046                 1.0156
 Frc consts  --      2.3001                 0.1762                 0.4477
 IR Inten    --    338.1535                37.2549                 3.2034

                      4
                      A
 Frequencies --    865.0075
 Red. masses --      1.0156
 Frc consts  --      0.4477
 IR Inten    --      3.2034

 - Thermochemistry -
 -------------------
 Temperature   298.150 Kelvin.  Pressure   1.00000 Atm.
 Atom     1 has atomic number  1 and mass   1.00783

 Molecular mass:    21.01405 amu.
 Principal axes and moments of inertia in atomic units:
                           1         2         3
     Eigenvalues --     0.00000  61.83286  61.83286
           X            1.00000  -0.00000   0.00000
           Y            0.00000   1.00000   0.00000
           Z            0.00000   0.00000   1.00000
 This molecule is a prolate symmetric top.
 Rotational symmetry number  1.
 Rotational temperature (Kelvin)      1.40077
 Rotational constant (GHZ):          29.187411
    2 imaginary frequencies ignored.
 Zero-point vibrational energy      10347.8 (Joules/Mol)
                                    2.47318 (Kcal/Mol)
 Vibrational temperatures:   1244.55  1244.55
          (Kelvin)

 Zero-point correction=                           0.003941 (Hartree/Particle)
 Thermal correction to Energy=                    0.006425
 Thermal correction to Enthalpy=                  0.007369
 Thermal correction to Gibbs Free Energy=        -0.016105
 Sum of electronic and zero-point Energies=           -100.807665
 Sum of electronic and thermal Energies=              -100.805181
 Sum of electronic and thermal Enthalpies=            -100.804237
 Sum of electronic and thermal Free Energies=         -100.827712

                     E (Thermal)             CV                S
                      KCal/Mol        Cal/Mol-Kelvin    Cal/Mol-Kelvin
 Total                    4.032              6.067             49.406
 Electronic               0.000              0.000              1.377
 Translational            0.889              2.981             35.068
 Rotational               0.592              1.987             12.640
 Vibrational              2.550              1.099              0.321

 Normal termination of Gaussian 16 at Fri Aug 22 17:03:33 2025.
