 Gaussian 16, Revision C.01,
 Gaussian 16:  ES64L-G16RevC.01  3-Jul-2019

 -----------------------------------------
 # sp b3lyp/6-311g** Force nosymm scf=(qc)
 -----------------------------------------

 -------------------
 Title Card Required
 -------------------
 Symbolic Z-matrix:
 Charge =  0 Multiplicity = 2

                          Input orientation:
 ---------------------------------------------------------------------
 Center     Atomic      Atomic             Coordinates (Angstroms)
 Number     Number       Type             X           Y           Z
 ---------------------------------------------------------------------
      1          1           0        0.000000    0.000000    0.000000
      2          1           0       -1.150000    0.000000    0.000000
      3          9           0        0.500000    0.000000    0.000000
 ---------------------------------------------------------------------

 SCF Done:  E(UB3LYP) =  -100.236008018     a.u. after    7 cycles

 Alpha  occ. eigenvalues --  -24.64584  -1.45019  -0.66224  -0.45915  -0.45915
 Alpha  occ. eigenvalues --   -0.34315
 Alpha virt. eigenvalues --    0.16061   0.21044   0.77914   0.86991   0.87321
 Alpha virt. eigenvalues --    0.87321   1.13101   1.13101   1.50802   1.73869
 Alpha virt. eigenvalues --    1.73869   1.76809   2.12791   2.41776   3.75143

  Beta  occ. eigenvalues --  -24.64365  -1.44245  -0.65320  -0.45761  -0.45761
  Beta virt. eigenvalues --   -0.11086   0.16895   0.29161   0.83903   0.87346
  Beta virt. eigenvalues --    0.88107   0.88107   1.23925   1.23925   1.51393
  Beta virt. eigenvalues --    1.78843   1.78843   1.83388   2.23677   2.60054

 Mulliken charges and spin densities:
               1          2
     1  H    0.149714   0.001897
     2  H   -0.020587   0.989011
     3  F   -0.129127   0.009092
 Sum of Mulliken charges =   0.00000   1.00000

 Dipole moment (field-independent basis, Debye):
    X=             -0.9949    Y=             -0.0000    Z=              0.0000  Tot=              0.9949
 Quadrupole moment (field-independent basis, Debye-Ang):
   XX=             -6.9425   YY=             -6.3359   ZZ=             -6.3359
   XY=             -0.0000   XZ=              0.0000   YZ=              0.0000

  Exact polarizability:       5.753       0.000       2.481      -0.000      -0.000       2.481
 Approx polarizability:       5.422       0.000       2.529      -0.000       0.000       2.529

 ******    2 imaginary frequencies (negative Signs) ******

                      1                      2                      3
                      A                      A                      A
 Frequencies --  -9312.9037             -9312.9037              1796.6361
 Red. masses --      1.0303                 1.0303                 1.0537
 Frc consts  --     52.6494                52.6494                 2.0040
 IR Inten    --    191.1702               191.1702                58.3450

                      4
                      A
 Frequencies --  19176.5641
 Red. masses --      1.0578
 Frc consts  --    229.1951
 IR Inten    --     41.6010

 - Thermochemistry -
 -------------------
 Temperature   298.150 Kelvin.  Pressure   1.00000 Atm.
 Atom     1 has atomic number  1 and mass   1.00783

 Molecular mass:    21.01405 amu.
 Principal axes and moments of inertia in atomic units:
                           1         2         3
     Eigenvalues --     0.00000   9.90018   9.90018
           X            1.00000  -0.00000   0.00000
           Y            0.00000   1.00000   0.00000
           Z            0.00000   0.00000   1.00000
 This molecule is a prolate symmetric top.
 Rotational symmetry number  1.
 Rotational temperature (Kelvin)      8.74872
 Rotational constant (GHZ):         182.293824
    2 imaginary frequencies ignored.
 Zero-point vibrational energy     125447.6 (Joules/Mol)
                                   29.98269 (Kcal/Mol)
 Vibrational temperatures:   2584.96 27590.80
          (Kelvin)

 Zero-point correction=                           0.047780 (Hartree/Particle)
 Thermal correction to Energy=                    0.050142
 Thermal correction to Enthalpy=                  0.051087
 Thermal correction to Gibbs Free Energy=         0.029493
 Sum of electronic and zero-point Energies=           -100.188228
 Sum of electronic and thermal Energies=              -100.185866
 Sum of electronic and thermal Enthalpies=            -100.184921
 Sum of electronic and thermal Free Energies=         -100.206515

                     E (Thermal)             CV                S
                      KCal/Mol        Cal/Mol-Kelvin    Cal/Mol-Kelvin
 Total                   31.465              4.994             45.448
 Electronic               0.000              0.000              1.377
 Translational            0.889              2.981             35.068
 Rotational               0.592              1.987              8.999
 Vibrational             29.984              0.026              0.003

 Normal termination of Gaussian 16 at Fri Aug 22 15:36:19 2025.
