 Gaussian 16, Revision C.01,
 Gaussian 16:  ES64L-G16RevC.01  3-Jul-2019

 -----------------------------------------
 # sp b3lyp/6-311g** Force nosymm scf=(qc)
 -----------------------------------------

 -------------------
 Title Card Required
 -------------------
 Symbolic Z-matrix:
 Charge =  0 Multiplicity = 2

                          Input orientation:
 ---------------------------------------------------------------------
 Center     Atomic      Atomic             Coordinates (Angstroms)
 Number     Number       Type             X           Y           Z
 ---------------------------------------------------------------------
      1          1           0        0.000000    0.000000    0.000000
      2          1           0       -3.050000    0.000000    0.000000
      3          9           0        1.200000    0.000000    0.000000
 ---------------------------------------------------------------------

 SCF Done:  E(UB3LYP) =  -100.925722643     a.u. after    6 cycles

 Alpha  occ. eigenvalues --  -24.64303  -1.12234  -0.47721  -0.37487  -0.37487
 Alpha  occ. eigenvalues --   -0.34346
 Alpha virt. eigenvalues --   -0.05550   0.23187   0.29079   0.93216   0.93216
 Alpha virt. eigenvalues --    1.00830   1.23044   1.23181   1.23181   1.27418
 Alpha virt. eigenvalues --    1.34672   1.34672   1.73263   2.14085   2.28843

  Beta  occ. eigenvalues --  -24.64291  -1.12203  -0.47681  -0.37476  -0.37476
  Beta virt. eigenvalues --   -0.09142  -0.03682   0.27467   0.37848   0.93216
  Beta virt. eigenvalues --    0.93216   1.00860   1.26909   1.34647   1.34647
  Beta virt. eigenvalues --    1.45776   1.46003   1.46003   1.73398   2.28812

 Mulliken charges and spin densities:
               1          2
     1  H    0.351256   0.000121
     2  H    0.003388   0.996040
     3  F   -0.354644   0.003840
 Sum of Mulliken charges =   0.00000   1.00000

 Dipole moment (field-independent basis, Debye):
    X=             -2.3285    Y=              0.0000    Z=              0.0000  Tot=              2.3285
 Quadrupole moment (field-independent basis, Debye-Ang):
   XX=             -8.7559   YY=             -7.1277   ZZ=             -7.1277
   XY=              0.0000   XZ=              0.0000   YZ=             -0.0000

  Exact polarizability:      10.574      -0.000       2.330       0.000       0.000       2.330
 Approx polarizability:      14.403       0.000       2.286      -0.000       0.000       2.286

 ******    1 imaginary frequencies (negative Signs) ******

                      1                      2                      3
                      A                      A                      A
 Frequencies --    -98.9838               991.8897              1195.9925
 Red. masses --      1.0514                 1.0601                 1.0319
 Frc consts  --      0.0061                 0.6145                 0.8697
 IR Inten    --      0.6861                80.4957               141.7451

                      4
                      A
 Frequencies --   1195.9925
 Red. masses --      1.0319
 Frc consts  --      0.8697
 IR Inten    --    141.7451

 - Thermochemistry -
 -------------------
 Temperature   298.150 Kelvin.  Pressure   1.00000 Atm.
 Atom     1 has atomic number  1 and mass   1.00783

 Molecular mass:    21.01405 amu.
 Principal axes and moments of inertia in atomic units:
                           1         2         3
     Eigenvalues --     0.00000  65.06281  65.06281
           X            1.00000  -0.00000   0.00000
           Y            0.00000   1.00000   0.00000
           Z            0.00000   0.00000   1.00000
 This molecule is a prolate symmetric top.
 Rotational symmetry number  1.
 Rotational temperature (Kelvin)      1.33124
 Rotational constant (GHZ):          27.738447
    1 imaginary frequencies ignored.
 Zero-point vibrational energy      20240.1 (Joules/Mol)
                                    4.83749 (Kcal/Mol)
 Vibrational temperatures:   1427.11  1720.77  1720.77
          (Kelvin)

 Zero-point correction=                           0.007709 (Hartree/Particle)
 Thermal correction to Energy=                    0.010142
 Thermal correction to Enthalpy=                  0.011086
 Thermal correction to Gibbs Free Energy=        -0.012370
 Sum of electronic and zero-point Energies=           -100.918014
 Sum of electronic and thermal Energies=              -100.915581
 Sum of electronic and thermal Enthalpies=            -100.914637
 Sum of electronic and thermal Free Energies=         -100.938093

                     E (Thermal)             CV                S
                      KCal/Mol        Cal/Mol-Kelvin    Cal/Mol-Kelvin
 Total                    6.364              5.769             49.367
 Electronic               0.000              0.000              1.377
 Translational            0.889              2.981             35.068
 Rotational               0.592              1.987             12.741
 Vibrational              4.883              0.801              0.181

 Normal termination of Gaussian 16 at Fri Aug 22 16:10:51 2025.
