 Gaussian 16, Revision C.01,
 Gaussian 16:  ES64L-G16RevC.01  3-Jul-2019

 -----------------------------------------
 # sp b3lyp/6-311g** Force nosymm scf=(qc)
 -----------------------------------------

 -------------------
 Title Card Required
 -------------------
 Symbolic Z-matrix:
 Charge =  0 Multiplicity = 2

                          Input orientation:
 ---------------------------------------------------------------------
 Center     Atomic      Atomic             Coordinates (Angstroms)
 Number     Number       Type             X           Y           Z
 ---------------------------------------------------------------------
      1          1           0        0.000000    0.000000    0.000000
      2          1           0       -3.000000    0.000000    0.000000
      3          9           0        3.850000    0.000000    0.000000
 ---------------------------------------------------------------------

 SCF Done:  E(UB3LYP) =  -100.759583959     a.u. after   32 cycles

 Alpha  occ. eigenvalues --  -24.75803  -1.21736  -0.54928  -0.46119  -0.46119
 Alpha  occ. eigenvalues --   -0.32358
 Alpha virt. eigenvalues --   -0.07739   0.25047   0.36425   0.86768   0.91218
 Alpha virt. eigenvalues --    0.91218   1.01201   1.25177   1.25177   1.25881
 Alpha virt. eigenvalues --    1.44304   1.44333   1.44333   2.15799   2.39558

  Beta  occ. eigenvalues --  -24.72663  -1.12707  -0.42971  -0.42971  -0.32579
  Beta virt. eigenvalues --   -0.25697  -0.07470   0.24871   0.36803   0.92715
  Beta virt. eigenvalues --    0.92715   0.96103   1.05310   1.24934   1.24934
  Beta virt. eigenvalues --    1.25617   1.44712   1.44740   1.44740   2.15870

 Mulliken charges and spin densities:
               1          2
     1  H    0.003556  -0.988017
     2  H    0.000328   0.992358
     3  F   -0.003884   0.995659
 Sum of Mulliken charges =   0.00000   1.00000

 Dipole moment (field-independent basis, Debye):
    X=             -0.0819    Y=             -0.0000    Z=             -0.0000  Tot=              0.0819
 Quadrupole moment (field-independent basis, Debye-Ang):
   XX=             -6.9309   YY=             -7.6363   ZZ=             -7.6363
   XY=             -0.0000   XZ=             -0.0000   YZ=              0.0000

  Exact polarizability:      16.497      -0.000       2.028       0.000       0.000       2.028
 Approx polarizability:      12.228      -0.000       1.934      -0.000      -0.000       1.934

 ******    2 imaginary frequencies (negative Signs) ******

                      1                      2                      3
                      A                      A                      A
 Frequencies --   -339.1180               -86.9540               119.6275
 Red. masses --      1.0083                 1.1079                 1.0152
 Frc consts  --      0.0683                 0.0049                 0.0086
 IR Inten    --      1.4010                 1.1972                 0.0111

                      4
                      A
 Frequencies --    119.6275
 Red. masses --      1.0152
 Frc consts  --      0.0086
 IR Inten    --      0.0111

 - Thermochemistry -
 -------------------
 Temperature   298.150 Kelvin.  Pressure   1.00000 Atm.
 Atom     1 has atomic number  1 and mass   1.00783

 Molecular mass:    21.01405 amu.
 Principal axes and moments of inertia in atomic units:
                           1         2         3
     Eigenvalues --     0.00000 202.45902 202.45902
           X            1.00000  -0.00000   0.00000
           Y            0.00000   1.00000   0.00000
           Z            0.00000   0.00000   1.00000
 This molecule is a prolate symmetric top.
 Rotational symmetry number  1.
 Rotational temperature (Kelvin)      0.42781
 Rotational constant (GHZ):           8.914106
    2 imaginary frequencies ignored.
 Zero-point vibrational energy       1431.1 (Joules/Mol)
                                    0.34203 (Kcal/Mol)
 Warning -- explicit consideration of   2 degrees of freedom as
           vibrations may cause significant error
 Vibrational temperatures:    172.12   172.12
          (Kelvin)

 Zero-point correction=                           0.000545 (Hartree/Particle)
 Thermal correction to Energy=                    0.004301
 Thermal correction to Enthalpy=                  0.005245
 Thermal correction to Gibbs Free Energy=        -0.022149
 Sum of electronic and zero-point Energies=           -100.759039
 Sum of electronic and thermal Energies=              -100.755283
 Sum of electronic and thermal Enthalpies=            -100.754339
 Sum of electronic and thermal Free Energies=         -100.781733

                     E (Thermal)             CV                S
                      KCal/Mol        Cal/Mol-Kelvin    Cal/Mol-Kelvin
 Total                    2.699              8.834             57.655
 Electronic               0.000              0.000              1.377
 Translational            0.889              2.981             35.068
 Rotational               0.592              1.987             14.997
 Vibrational              1.218              3.866              6.213
 Vibration     1          0.609              1.933              3.106
 Vibration     2          0.609              1.933              3.106

 Normal termination of Gaussian 16 at Sat Aug 23 01:10:05 2025.
