 Gaussian 16, Revision C.01,
 Gaussian 16:  ES64L-G16RevC.01  3-Jul-2019

 -----------------------------------------
 # sp b3lyp/6-311g** Force nosymm scf=(qc)
 -----------------------------------------

 -------------------
 Title Card Required
 -------------------
 Symbolic Z-matrix:
 Charge =  0 Multiplicity = 2

                          Input orientation:
 ---------------------------------------------------------------------
 Center     Atomic      Atomic             Coordinates (Angstroms)
 Number     Number       Type             X           Y           Z
 ---------------------------------------------------------------------
      1          1           0        0.000000    0.000000    0.000000
      2          1           0       -2.650000    0.000000    0.000000
      3          9           0        1.400000    0.000000    0.000000
 ---------------------------------------------------------------------

 SCF Done:  E(UB3LYP) =  -100.878106613     a.u. after    7 cycles

 Alpha  occ. eigenvalues --  -24.64162  -1.10164  -0.44533  -0.36538  -0.36538
 Alpha  occ. eigenvalues --   -0.35232
 Alpha virt. eigenvalues --   -0.11300   0.22916   0.27031   0.93304   0.93304
 Alpha virt. eigenvalues --    1.03242   1.15959   1.22279   1.22279   1.24333
 Alpha virt. eigenvalues --    1.32933   1.32933   1.72774   2.13443   2.22172

  Beta  occ. eigenvalues --  -24.64076  -1.09940  -0.44246  -0.36458  -0.36458
  Beta virt. eigenvalues --   -0.13699  -0.06683   0.25551   0.36356   0.93282
  Beta virt. eigenvalues --    0.93282   1.03456   1.16617   1.32632   1.32632
  Beta virt. eigenvalues --    1.43546   1.43546   1.43961   1.72975   2.21691

 Mulliken charges and spin densities:
               1          2
     1  H    0.348168  -0.013847
     2  H    0.011478   0.986827
     3  F   -0.359646   0.027020
 Sum of Mulliken charges =  -0.00000   1.00000

 Dipole moment (field-independent basis, Debye):
    X=             -2.6502    Y=              0.0000    Z=              0.0000  Tot=              2.6502
 Quadrupole moment (field-independent basis, Debye-Ang):
   XX=             -9.1883   YY=             -7.2646   ZZ=             -7.2646
   XY=              0.0000   XZ=              0.0000   YZ=             -0.0000

  Exact polarizability:      17.195       0.000       2.246      -0.000       0.000       2.246
 Approx polarizability:      26.129       0.000       2.183       0.000       0.000       2.183

 ******    2 imaginary frequencies (negative Signs) ******

                      1                      2                      3
                      A                      A                      A
 Frequencies --  -1085.2552              -186.5904              1073.5300
 Red. masses --      1.0512                 1.0604                 1.0272
 Frc consts  --      0.7295                 0.0218                 0.6975
 IR Inten    --    108.2927                 1.4110               113.3839

                      4
                      A
 Frequencies --   1073.5300
 Red. masses --      1.0272
 Frc consts  --      0.6975
 IR Inten    --    113.3839

 - Thermochemistry -
 -------------------
 Temperature   298.150 Kelvin.  Pressure   1.00000 Atm.
 Atom     1 has atomic number  1 and mass   1.00783

 Molecular mass:    21.01405 amu.
 Principal axes and moments of inertia in atomic units:
                           1         2         3
     Eigenvalues --     0.00000  60.95994  60.95994
           X            1.00000  -0.00000   0.00000
           Y            0.00000   1.00000   0.00000
           Z            0.00000   0.00000   1.00000
 This molecule is a prolate symmetric top.
 Rotational symmetry number  1.
 Rotational temperature (Kelvin)      1.42083
 Rotational constant (GHZ):          29.605365
    2 imaginary frequencies ignored.
 Zero-point vibrational energy      12842.3 (Joules/Mol)
                                    3.06938 (Kcal/Mol)
 Vibrational temperatures:   1544.57  1544.57
          (Kelvin)

 Zero-point correction=                           0.004891 (Hartree/Particle)
 Thermal correction to Energy=                    0.007307
 Thermal correction to Enthalpy=                  0.008251
 Thermal correction to Gibbs Free Energy=        -0.015123
 Sum of electronic and zero-point Energies=           -100.873215
 Sum of electronic and thermal Energies=              -100.870799
 Sum of electronic and thermal Enthalpies=            -100.869855
 Sum of electronic and thermal Free Energies=         -100.893230

                     E (Thermal)             CV                S
                      KCal/Mol        Cal/Mol-Kelvin    Cal/Mol-Kelvin
 Total                    4.585              5.575             49.196
 Electronic               0.000              0.000              1.377
 Translational            0.889              2.981             35.068
 Rotational               0.592              1.987             12.611
 Vibrational              3.104              0.607              0.139

 Normal termination of Gaussian 16 at Fri Aug 22 16:20:38 2025.
