 Gaussian 16, Revision C.01,
 Gaussian 16:  ES64L-G16RevC.01  3-Jul-2019

 -----------------------------------------
 # sp b3lyp/6-311g** Force nosymm scf=(qc)
 -----------------------------------------

 -------------------
 Title Card Required
 -------------------
 Symbolic Z-matrix:
 Charge =  0 Multiplicity = 2

                          Input orientation:
 ---------------------------------------------------------------------
 Center     Atomic      Atomic             Coordinates (Angstroms)
 Number     Number       Type             X           Y           Z
 ---------------------------------------------------------------------
      1          1           0        0.000000    0.000000    0.000000
      2          1           0       -3.000000    0.000000    0.000000
      3          9           0        1.450000    0.000000    0.000000
 ---------------------------------------------------------------------

 SCF Done:  E(UB3LYP) =  -100.866111780     a.u. after    8 cycles

 Alpha  occ. eigenvalues --  -24.64280  -1.09919  -0.43864  -0.36492  -0.36492
 Alpha  occ. eigenvalues --   -0.34610
 Alpha virt. eigenvalues --   -0.13005   0.21454   0.27592   0.93360   0.93360
 Alpha virt. eigenvalues --    1.03528   1.12705   1.22907   1.22907   1.23446
 Alpha virt. eigenvalues --    1.32072   1.32072   1.72973   2.13708   2.20231

  Beta  occ. eigenvalues --  -24.64224  -1.09772  -0.43706  -0.36439  -0.36439
  Beta virt. eigenvalues --   -0.13966  -0.07074   0.24396   0.37340   0.93342
  Beta virt. eigenvalues --    0.93342   1.03678   1.12830   1.31843   1.31843
  Beta virt. eigenvalues --    1.44659   1.44991   1.44991   1.73005   2.19889

 Mulliken charges and spin densities:
               1          2
     1  H    0.349617  -0.011462
     2  H    0.005814   0.993639
     3  F   -0.355431   0.017823
 Sum of Mulliken charges =  -0.00000   1.00000

 Dipole moment (field-independent basis, Debye):
    X=             -2.6276    Y=              0.0000    Z=             -0.0000  Tot=              2.6276
 Quadrupole moment (field-independent basis, Debye-Ang):
   XX=             -9.5337   YY=             -7.2953   ZZ=             -7.2953
   XY=              0.0000   XZ=             -0.0000   YZ=             -0.0000

  Exact polarizability:      16.407      -0.000       2.215       0.000      -0.000       2.215
 Approx polarizability:      27.413      -0.000       2.145      -0.000      -0.000       2.145

 ******    2 imaginary frequencies (negative Signs) ******

                      1                      2                      3
                      A                      A                      A
 Frequencies --  -1125.8171              -137.1510              1044.5167
 Red. masses --      1.0553                 1.0562                 1.0286
 Frc consts  --      0.7881                 0.0117                 0.6612
 IR Inten    --     70.4175                 0.9027               115.9806

                      4
                      A
 Frequencies --   1044.5167
 Red. masses --      1.0286
 Frc consts  --      0.6612
 IR Inten    --    115.9806

 - Thermochemistry -
 -------------------
 Temperature   298.150 Kelvin.  Pressure   1.00000 Atm.
 Atom     1 has atomic number  1 and mass   1.00783

 Molecular mass:    21.01405 amu.
 Principal axes and moments of inertia in atomic units:
                           1         2         3
     Eigenvalues --     0.00000  72.82784  72.82784
           X            1.00000  -0.00000   0.00000
           Y            0.00000   1.00000   0.00000
           Z            0.00000   0.00000   1.00000
 This molecule is a prolate symmetric top.
 Rotational symmetry number  1.
 Rotational temperature (Kelvin)      1.18930
 Rotational constant (GHZ):          24.780926
    2 imaginary frequencies ignored.
 Zero-point vibrational energy      12495.2 (Joules/Mol)
                                    2.98642 (Kcal/Mol)
 Vibrational temperatures:   1502.83  1502.83
          (Kelvin)

 Zero-point correction=                           0.004759 (Hartree/Particle)
 Thermal correction to Energy=                    0.007182
 Thermal correction to Enthalpy=                  0.008126
 Thermal correction to Gibbs Free Energy=        -0.015425
 Sum of electronic and zero-point Energies=           -100.861353
 Sum of electronic and thermal Energies=              -100.858930
 Sum of electronic and thermal Enthalpies=            -100.857986
 Sum of electronic and thermal Free Energies=         -100.881537

                     E (Thermal)             CV                S
                      KCal/Mol        Cal/Mol-Kelvin    Cal/Mol-Kelvin
 Total                    4.507              5.630             49.567
 Electronic               0.000              0.000              1.377
 Translational            0.889              2.981             35.068
 Rotational               0.592              1.987             12.965
 Vibrational              3.025              0.662              0.156

 Normal termination of Gaussian 16 at Fri Aug 22 16:23:32 2025.
