 Gaussian 16, Revision C.01,
 Gaussian 16:  ES64L-G16RevC.01  3-Jul-2019

 -----------------------------------------
 # sp b3lyp/6-311g** Force nosymm scf=(qc)
 -----------------------------------------

 -------------------
 Title Card Required
 -------------------
 Symbolic Z-matrix:
 Charge =  0 Multiplicity = 2

                          Input orientation:
 ---------------------------------------------------------------------
 Center     Atomic      Atomic             Coordinates (Angstroms)
 Number     Number       Type             X           Y           Z
 ---------------------------------------------------------------------
      1          1           0        0.000000    0.000000    0.000000
      2          1           0       -2.600000    0.000000    0.000000
      3          9           0        2.850000    0.000000    0.000000
 ---------------------------------------------------------------------

 SCF Done:  E(UB3LYP) =  -100.765121704     a.u. after   22 cycles

 Alpha  occ. eigenvalues --  -24.73547  -1.19642  -0.52662  -0.44220  -0.44220
 Alpha  occ. eigenvalues --   -0.33145
 Alpha virt. eigenvalues --   -0.10541   0.25119   0.33730   0.89985   0.92600
 Alpha virt. eigenvalues --    0.92600   1.04885   1.24471   1.24471   1.26433
 Alpha virt. eigenvalues --    1.39984   1.39984   1.41585   2.15439   2.36572

  Beta  occ. eigenvalues --  -24.70559  -1.11092  -0.41232  -0.41232  -0.34171
  Beta virt. eigenvalues --   -0.24477  -0.08965   0.25456   0.35192   0.94048
  Beta virt. eigenvalues --    0.94048   0.98500   1.08662   1.23277   1.23277
  Beta virt. eigenvalues --    1.25485   1.42513   1.42513   1.43630   2.16097

 Mulliken charges and spin densities:
               1          2
     1  H    0.042795  -0.924171
     2  H    0.005512   0.978010
     3  F   -0.048307   0.946161
 Sum of Mulliken charges =  -0.00000   1.00000

 Dipole moment (field-independent basis, Debye):
    X=             -0.7742    Y=             -0.0000    Z=              0.0000  Tot=              0.7742
 Quadrupole moment (field-independent basis, Debye-Ang):
   XX=             -8.2899   YY=             -7.6357   ZZ=             -7.6357
   XY=             -0.0000   XZ=              0.0000   YZ=              0.0000

  Exact polarizability:      42.215      -0.000       2.015       0.000       0.000       2.015
 Approx polarizability:      41.170      -0.000       1.920       0.000      -0.000       1.920

 ******    2 imaginary frequencies (negative Signs) ******

                      1                      2                      3
                      A                      A                      A
 Frequencies --   -651.8658              -258.0613               246.8889
 Red. masses --      1.0141                 1.1011                 1.0169
 Frc consts  --      0.2539                 0.0432                 0.0365
 IR Inten    --     33.5321                18.6053                 1.5069

                      4
                      A
 Frequencies --    246.8889
 Red. masses --      1.0169
 Frc consts  --      0.0365
 IR Inten    --      1.5069

 - Thermochemistry -
 -------------------
 Temperature   298.150 Kelvin.  Pressure   1.00000 Atm.
 Atom     1 has atomic number  1 and mass   1.00783

 Molecular mass:    21.01405 amu.
 Principal axes and moments of inertia in atomic units:
                           1         2         3
     Eigenvalues --     0.00000 124.24161 124.24161
           X            1.00000  -0.00000   0.00000
           Y            0.00000   1.00000   0.00000
           Z            0.00000   0.00000   1.00000
 This molecule is a prolate symmetric top.
 Rotational symmetry number  1.
 Rotational temperature (Kelvin)      0.69714
 Rotational constant (GHZ):          14.526061
    2 imaginary frequencies ignored.
 Zero-point vibrational energy       2953.4 (Joules/Mol)
                                    0.70589 (Kcal/Mol)
 Warning -- explicit consideration of   2 degrees of freedom as
           vibrations may cause significant error
 Vibrational temperatures:    355.22   355.22
          (Kelvin)

 Zero-point correction=                           0.001125 (Hartree/Particle)
 Thermal correction to Energy=                    0.004467
 Thermal correction to Enthalpy=                  0.005411
 Thermal correction to Gibbs Free Energy=        -0.020235
 Sum of electronic and zero-point Energies=           -100.763997
 Sum of electronic and thermal Energies=              -100.760655
 Sum of electronic and thermal Enthalpies=            -100.759710
 Sum of electronic and thermal Free Energies=         -100.785357

                     E (Thermal)             CV                S
                      KCal/Mol        Cal/Mol-Kelvin    Cal/Mol-Kelvin
 Total                    2.803              8.504             53.977
 Electronic               0.000              0.000              1.377
 Translational            0.889              2.981             35.068
 Rotational               0.592              1.987             14.026
 Vibrational              1.322              3.536              3.505
 Vibration     1          0.661              1.768              1.753
 Vibration     2          0.661              1.768              1.753

 Normal termination of Gaussian 16 at Fri Aug 22 18:53:59 2025.
