 Gaussian 16, Revision C.01,
 Gaussian 16:  ES64L-G16RevC.01  3-Jul-2019

 -----------------------------------------
 # sp b3lyp/6-311g** Force nosymm scf=(qc)
 -----------------------------------------

 -------------------
 Title Card Required
 -------------------
 Symbolic Z-matrix:
 Charge =  0 Multiplicity = 2

                          Input orientation:
 ---------------------------------------------------------------------
 Center     Atomic      Atomic             Coordinates (Angstroms)
 Number     Number       Type             X           Y           Z
 ---------------------------------------------------------------------
      1          1           0        0.000000    0.000000    0.000000
      2          1           0       -2.400000    0.000000    0.000000
      3          9           0        2.600000    0.000000    0.000000
 ---------------------------------------------------------------------

 SCF Done:  E(UB3LYP) =  -100.770420144     a.u. after   18 cycles

 Alpha  occ. eigenvalues --  -24.72334  -1.18506  -0.51439  -0.43199  -0.43199
 Alpha  occ. eigenvalues --   -0.33781
 Alpha virt. eigenvalues --   -0.11846   0.25018   0.33045   0.90293   0.93308
 Alpha virt. eigenvalues --    0.93308   1.06284   1.23918   1.23918   1.26663
 Alpha virt. eigenvalues --    1.37758   1.37758   1.41971   2.14339   2.33961

  Beta  occ. eigenvalues --  -24.69441  -1.10255  -0.40311  -0.40311  -0.34925
  Beta virt. eigenvalues --   -0.23761  -0.09934   0.25973   0.34269   0.94709
  Beta virt. eigenvalues --    0.94709   0.97929   1.09556   1.22683   1.22683
  Beta virt. eigenvalues --    1.27863   1.40849   1.40849   1.43373   2.14598

 Mulliken charges and spin densities:
               1          2
     1  H    0.062660  -0.875724
     2  H    0.012264   0.960809
     3  F   -0.074924   0.914915
 Sum of Mulliken charges =  -0.00000   1.00000

 Dipole moment (field-independent basis, Debye):
    X=             -1.1347    Y=             -0.0000    Z=             -0.0000  Tot=              1.1347
 Quadrupole moment (field-independent basis, Debye-Ang):
   XX=             -8.5628   YY=             -7.6311   ZZ=             -7.6311
   XY=             -0.0000   XZ=             -0.0000   YZ=              0.0000

  Exact polarizability:      47.238      -0.000       2.012      -0.000      -0.000       2.012
 Approx polarizability:      48.439      -0.000       1.918      -0.000       0.000       1.918

 ******    2 imaginary frequencies (negative Signs) ******

                      1                      2                      3
                      A                      A                      A
 Frequencies --   -860.7635              -335.3181               335.8687
 Red. masses --      1.0139                 1.1013                 1.0170
 Frc consts  --      0.4426                 0.0730                 0.0676
 IR Inten    --     42.2789                31.2265                 3.0377

                      4
                      A
 Frequencies --    335.8687
 Red. masses --      1.0170
 Frc consts  --      0.0676
 IR Inten    --      3.0377

 - Thermochemistry -
 -------------------
 Temperature   298.150 Kelvin.  Pressure   1.00000 Atm.
 Atom     1 has atomic number  1 and mass   1.00783

 Molecular mass:    21.01405 amu.
 Principal axes and moments of inertia in atomic units:
                           1         2         3
     Eigenvalues --     0.00000 104.33474 104.33474
           X            1.00000  -0.00000   0.00000
           Y            0.00000   1.00000   0.00000
           Z            0.00000   0.00000   1.00000
 This molecule is a prolate symmetric top.
 Rotational symmetry number  1.
 Rotational temperature (Kelvin)      0.83015
 Rotational constant (GHZ):          17.297606
    2 imaginary frequencies ignored.
 Zero-point vibrational energy       4017.9 (Joules/Mol)
                                    0.96030 (Kcal/Mol)
 Warning -- explicit consideration of   2 degrees of freedom as
           vibrations may cause significant error
 Vibrational temperatures:    483.24   483.24
          (Kelvin)

 Zero-point correction=                           0.001530 (Hartree/Particle)
 Thermal correction to Energy=                    0.004645
 Thermal correction to Enthalpy=                  0.005589
 Thermal correction to Gibbs Free Energy=        -0.019397
 Sum of electronic and zero-point Energies=           -100.768890
 Sum of electronic and thermal Energies=              -100.765775
 Sum of electronic and thermal Enthalpies=            -100.764831
 Sum of electronic and thermal Free Energies=         -100.789817

                     E (Thermal)             CV                S
                      KCal/Mol        Cal/Mol-Kelvin    Cal/Mol-Kelvin
 Total                    2.915              8.176             52.588
 Electronic               0.000              0.000              1.377
 Translational            0.889              2.981             35.068
 Rotational               0.592              1.987             13.679
 Vibrational              1.434              3.208              2.463
 Vibration     1          0.717              1.604              1.232
 Vibration     2          0.717              1.604              1.232

 Normal termination of Gaussian 16 at Fri Aug 22 18:04:08 2025.
