 Gaussian 16, Revision C.01,
 Gaussian 16:  ES64L-G16RevC.01  3-Jul-2019

 -----------------------------------------
 # sp b3lyp/6-311g** Force nosymm scf=(qc)
 -----------------------------------------

 -------------------
 Title Card Required
 -------------------
 Symbolic Z-matrix:
 Charge =  0 Multiplicity = 2

                          Input orientation:
 ---------------------------------------------------------------------
 Center     Atomic      Atomic             Coordinates (Angstroms)
 Number     Number       Type             X           Y           Z
 ---------------------------------------------------------------------
      1          1           0        0.000000    0.000000    0.000000
      2          1           0       -0.700000    0.000000    0.000000
      3          9           0        2.450000    0.000000    0.000000
 ---------------------------------------------------------------------

 SCF Done:  E(UB3LYP) =  -100.932953451     a.u. after  169 cycles

 Alpha  occ. eigenvalues --  -24.76955  -1.22731  -0.55901  -0.47591  -0.47047
 Alpha  occ. eigenvalues --   -0.43419
 Alpha virt. eigenvalues --    0.08019   0.20368   0.49734   0.85559   0.90415
 Alpha virt. eigenvalues --    0.93373   1.09341   1.09370   1.12721   1.58245
 Alpha virt. eigenvalues --    1.86237   1.86262   1.90971   2.40302   3.56992

  Beta  occ. eigenvalues --  -24.73790  -1.13637  -0.45215  -0.43874  -0.42618
  Beta virt. eigenvalues --   -0.26510   0.08121   0.20437   0.49837   0.91906
  Beta virt. eigenvalues --    0.94979   0.95251   1.09366   1.09372   1.16288
  Beta virt. eigenvalues --    1.58261   1.86238   1.86260   1.90977   2.40316

 Mulliken charges and spin densities:
               1          2
     1  H   -0.008647  -0.002090
     2  H   -0.007696  -0.000400
     3  F    0.016343   1.002490
 Sum of Mulliken charges =   0.00000   1.00000

 Dipole moment (field-independent basis, Debye):
    X=              0.1637    Y=              0.0000    Z=              0.0000  Tot=              0.1637
 Quadrupole moment (field-independent basis, Debye-Ang):
   XX=             -6.0161   YY=             -6.8941   ZZ=             -6.0314
   XY=              0.0000   XZ=             -0.0000   YZ=             -0.0125

  Exact polarizability:       8.265       0.000       1.969      -0.000      -0.006       2.405
 Approx polarizability:       9.148       0.000       2.051      -0.000      -0.008       2.609

 ******    2 imaginary frequencies (negative Signs) ******

                      1                      2                      3
                      A                      A                      A
 Frequencies --  -1195.4844             -1153.7866               232.2445
 Red. masses --      1.0094                 1.0094                 1.1085
 Frc consts  --      0.8500                 0.7917                 0.0352
 IR Inten    --      0.0234                 0.0355                 0.7558

                      4
                      A
 Frequencies --   5089.5402
 Red. masses --      1.0078
 Frc consts  --     15.3813
 IR Inten    --      4.1481

 - Thermochemistry -
 -------------------
 Temperature   298.150 Kelvin.  Pressure   1.00000 Atm.
 Atom     1 has atomic number  1 and mass   1.00783

 Molecular mass:    21.01405 amu.
 Principal axes and moments of inertia in atomic units:
                           1         2         3
     Eigenvalues --     0.00000  51.90126  51.90126
           X            1.00000  -0.00000   0.00000
           Y            0.00000   1.00000   0.00000
           Z            0.00000   0.00000   1.00000
 This molecule is a prolate symmetric top.
 Rotational symmetry number  1.
 Rotational temperature (Kelvin)      1.66882
 Rotational constant (GHZ):          34.772591
    2 imaginary frequencies ignored.
 Zero-point vibrational energy      31831.3 (Joules/Mol)
                                    7.60787 (Kcal/Mol)
 Warning -- explicit consideration of   1 degrees of freedom as
           vibrations may cause significant error
 Vibrational temperatures:    334.15  7322.71
          (Kelvin)

 Zero-point correction=                           0.012124 (Hartree/Particle)
 Thermal correction to Energy=                    0.014996
 Thermal correction to Enthalpy=                  0.015940
 Thermal correction to Gibbs Free Energy=        -0.008101
 Sum of electronic and zero-point Energies=           -100.920830
 Sum of electronic and thermal Energies=              -100.917957
 Sum of electronic and thermal Enthalpies=            -100.917013
 Sum of electronic and thermal Free Energies=         -100.941054

                     E (Thermal)             CV                S
                      KCal/Mol        Cal/Mol-Kelvin    Cal/Mol-Kelvin
 Total                    9.410              6.760             50.599
 Electronic               0.000              0.000              1.377
 Translational            0.889              2.981             35.068
 Rotational               0.592              1.987             12.292
 Vibrational              7.929              1.792              1.862
 Vibration     1          0.653              1.792              1.862

 Normal termination of Gaussian 16 at Fri Aug 22 17:35:34 2025.
