 Gaussian 16, Revision C.01,
 Gaussian 16:  ES64L-G16RevC.01  3-Jul-2019

 -----------------------------------------
 # sp b3lyp/6-311g** Force nosymm scf=(qc)
 -----------------------------------------

 -------------------
 Title Card Required
 -------------------
 Symbolic Z-matrix:
 Charge =  0 Multiplicity = 2

                          Input orientation:
 ---------------------------------------------------------------------
 Center     Atomic      Atomic             Coordinates (Angstroms)
 Number     Number       Type             X           Y           Z
 ---------------------------------------------------------------------
      1          1           0        0.000000    0.000000    0.000000
      2          1           0       -0.850000    0.000000    0.000000
      3          9           0        0.950000    0.000000    0.000000
 ---------------------------------------------------------------------

 SCF Done:  E(UB3LYP) =  -100.943678312     a.u. after    6 cycles

 Alpha  occ. eigenvalues --  -24.65779  -1.20273  -0.61515  -0.40904  -0.40904
 Alpha  occ. eigenvalues --   -0.35360
 Alpha virt. eigenvalues --    0.14183   0.18359   0.54054   0.88305   0.88305
 Alpha virt. eigenvalues --    0.95895   1.08685   1.08685   1.45223   1.70156
 Alpha virt. eigenvalues --    1.70156   1.74343   2.14640   2.30811   3.41505

  Beta  occ. eigenvalues --  -24.64642  -1.17383  -0.55265  -0.39890  -0.39890
  Beta virt. eigenvalues --   -0.17516   0.16098   0.20665   0.59661   0.90244
  Beta virt. eigenvalues --    0.90244   0.98193   1.13652   1.13652   1.47060
  Beta virt. eigenvalues --    1.74874   1.74874   1.83551   2.14534   2.41382

 Mulliken charges and spin densities:
               1          2
     1  H    0.276118  -0.017662
     2  H   -0.014203   0.738916
     3  F   -0.261916   0.278746
 Sum of Mulliken charges =   0.00000   1.00000

 Dipole moment (field-independent basis, Debye):
    X=             -1.6527    Y=             -0.0000    Z=             -0.0000  Tot=              1.6527
 Quadrupole moment (field-independent basis, Debye-Ang):
   XX=             -7.5561   YY=             -6.5866   ZZ=             -6.5866
   XY=              0.0000   XZ=             -0.0000   YZ=             -0.0000

  Exact polarizability:      13.185       0.000       2.567      -0.000       0.000       2.567
 Approx polarizability:      15.283       0.000       2.614       0.000       0.000       2.614

 ******    2 imaginary frequencies (negative Signs) ******

                      1                      2                      3
                      A                      A                      A
 Frequencies --  -1515.9169             -1515.9169              2270.2694
 Red. masses --      1.0167                 1.0167                 1.0818
 Frc consts  --      1.3765                 1.3765                 3.2852
 IR Inten    --     53.0963                53.0963               106.3194

                      4
                      A
 Frequencies --   3322.0273
 Red. masses --      1.0309
 Frc consts  --      6.7034
 IR Inten    --      4.7538

 - Thermochemistry -
 -------------------
 Temperature   298.150 Kelvin.  Pressure   1.00000 Atm.
 Atom     1 has atomic number  1 and mass   1.00783

 Molecular mass:    21.01405 amu.
 Principal axes and moments of inertia in atomic units:
                           1         2         3
     Eigenvalues --     0.00000  13.60355  13.60355
           X            1.00000  -0.00000   0.00000
           Y            0.00000   1.00000   0.00000
           Z            0.00000   0.00000   1.00000
 This molecule is a prolate symmetric top.
 Rotational symmetry number  1.
 Rotational temperature (Kelvin)      6.36701
 Rotational constant (GHZ):         132.666899
    2 imaginary frequencies ignored.
 Zero-point vibrational energy      33449.4 (Joules/Mol)
                                    7.99459 (Kcal/Mol)
 Vibrational temperatures:   3266.41  4779.66
          (Kelvin)

 Zero-point correction=                           0.012740 (Hartree/Particle)
 Thermal correction to Energy=                    0.015101
 Thermal correction to Enthalpy=                  0.016045
 Thermal correction to Gibbs Free Energy=        -0.005848
 Sum of electronic and zero-point Energies=           -100.930938
 Sum of electronic and thermal Energies=              -100.928577
 Sum of electronic and thermal Enthalpies=            -100.927633
 Sum of electronic and thermal Free Energies=         -100.949526

                     E (Thermal)             CV                S
                      KCal/Mol        Cal/Mol-Kelvin    Cal/Mol-Kelvin
 Total                    9.476              4.972             46.077
 Electronic               0.000              0.000              1.377
 Translational            0.889              2.981             35.068
 Rotational               0.592              1.987              9.631
 Vibrational              7.995              0.004              0.000

 Normal termination of Gaussian 16 at Fri Aug 22 15:57:21 2025.
