 Gaussian 16, Revision C.01,
 Gaussian 16:  ES64L-G16RevC.01  3-Jul-2019

 -----------------------------------------
 # sp b3lyp/6-311g** Force nosymm scf=(qc)
 -----------------------------------------

 -------------------
 Title Card Required
 -------------------
 Symbolic Z-matrix:
 Charge =  0 Multiplicity = 2

                          Input orientation:
 ---------------------------------------------------------------------
 Center     Atomic      Atomic             Coordinates (Angstroms)
 Number     Number       Type             X           Y           Z
 ---------------------------------------------------------------------
      1          1           0        0.000000    0.000000    0.000000
      2          1           0       -0.500000    0.000000    0.000000
      3          9           0        0.650000    0.000000    0.000000
 ---------------------------------------------------------------------

 SCF Done:  E(UB3LYP) =  -100.497034150     a.u. after    6 cycles

 Alpha  occ. eigenvalues --  -24.71354  -1.47018  -0.76218  -0.50286  -0.50286
 Alpha  occ. eigenvalues --   -0.24116
 Alpha virt. eigenvalues --    0.16732   0.18425   0.82554   0.83190   0.83190
 Alpha virt. eigenvalues --    0.92916   1.11926   1.11926   1.45670   1.56366
 Alpha virt. eigenvalues --    2.04448   2.04448   2.12640   3.69344   3.70736

  Beta  occ. eigenvalues --  -24.70258  -1.43504  -0.72458  -0.49344  -0.49344
  Beta virt. eigenvalues --   -0.07010   0.17338   0.23798   0.84578   0.84772
  Beta virt. eigenvalues --    0.84772   0.98310   1.16672   1.16672   1.46966
  Beta virt. eigenvalues --    1.60412   2.09795   2.09795   2.20435   3.71323

 Mulliken charges and spin densities:
               1          2
     1  H    0.284901  -0.130771
     2  H   -0.248108   1.002579
     3  F   -0.036793   0.128191
 Sum of Mulliken charges =   0.00000   1.00000

 Dipole moment (field-independent basis, Debye):
    X=             -0.0278    Y=              0.0000    Z=              0.0000  Tot=              0.0278
 Quadrupole moment (field-independent basis, Debye-Ang):
   XX=             -7.6392   YY=             -6.4914   ZZ=             -6.4914
   XY=              0.0000   XZ=              0.0000   YZ=             -0.0000

  Exact polarizability:       8.960       0.000       2.413      -0.000       0.000       2.413
 Approx polarizability:       8.765      -0.000       2.531      -0.000       0.000       2.531

 ******    2 imaginary frequencies (negative Signs) ******

                      1                      2                      3
                      A                      A                      A
 Frequencies --  -6953.7609             -6953.7609              6146.5652
 Red. masses --      1.0151                 1.0151                 1.0894
 Frc consts  --     28.9193                28.9193                24.2504
 IR Inten    --    158.0040               158.0040               648.4618

                      4
                      A
 Frequencies --  13091.5079
 Red. masses --      1.0241
 Frc consts  --    103.4149
 IR Inten    --      5.2730

 - Thermochemistry -
 -------------------
 Temperature   298.150 Kelvin.  Pressure   1.00000 Atm.
 Atom     1 has atomic number  1 and mass   1.00783

 Molecular mass:    21.01405 amu.
 Principal axes and moments of inertia in atomic units:
                           1         2         3
     Eigenvalues --     0.00000   5.72102   5.72102
           X            1.00000  -0.00000   0.00000
           Y            0.00000   1.00000   0.00000
           Z            0.00000   0.00000   1.00000
 This molecule is a prolate symmetric top.
 Rotational symmetry number  1.
 Rotational temperature (Kelvin)     15.13959
 Rotational constant (GHZ):         315.457751
    2 imaginary frequencies ignored.
 Zero-point vibrational energy     115069.2 (Joules/Mol)
                                   27.50221 (Kcal/Mol)
 Vibrational temperatures:   8843.54 18835.76
          (Kelvin)

 Zero-point correction=                           0.043828 (Hartree/Particle)
 Thermal correction to Energy=                    0.046188
 Thermal correction to Enthalpy=                  0.047132
 Thermal correction to Gibbs Free Energy=         0.026058
 Sum of electronic and zero-point Energies=           -100.453207
 Sum of electronic and thermal Energies=              -100.450846
 Sum of electronic and thermal Enthalpies=            -100.449902
 Sum of electronic and thermal Free Energies=         -100.470976

                     E (Thermal)             CV                S
                      KCal/Mol        Cal/Mol-Kelvin    Cal/Mol-Kelvin
 Total                   28.983              4.968             44.355
 Electronic               0.000              0.000              1.377
 Translational            0.889              2.981             35.068
 Rotational               0.592              1.987              7.910
 Vibrational             27.502              0.000              0.000

 Normal termination of Gaussian 16 at Fri Aug 22 15:43:01 2025.
