 Gaussian 16, Revision C.01,
 Gaussian 16:  ES64L-G16RevC.01  3-Jul-2019

 -----------------------------------------
 # sp b3lyp/6-311g** Force nosymm scf=(qc)
 -----------------------------------------

 -------------------
 Title Card Required
 -------------------
 Symbolic Z-matrix:
 Charge =  0 Multiplicity = 2

                          Input orientation:
 ---------------------------------------------------------------------
 Center     Atomic      Atomic             Coordinates (Angstroms)
 Number     Number       Type             X           Y           Z
 ---------------------------------------------------------------------
      1          1           0        0.000000    0.000000    0.000000
      2          1           0       -3.750000    0.000000    0.000000
      3          9           0        1.300000    0.000000    0.000000
 ---------------------------------------------------------------------

 SCF Done:  E(UB3LYP) =  -100.901221755     a.u. after    7 cycles

 Alpha  occ. eigenvalues --  -24.64381  -1.11120  -0.46066  -0.37078  -0.37078
 Alpha  occ. eigenvalues --   -0.33689
 Alpha virt. eigenvalues --   -0.08960   0.21374   0.28211   0.92994   0.92994
 Alpha virt. eigenvalues --    1.02056   1.21376   1.23804   1.23821   1.23821
 Alpha virt. eigenvalues --    1.33783   1.33783   1.70413   2.13399   2.24717

  Beta  occ. eigenvalues --  -24.64377  -1.11110  -0.46057  -0.37074  -0.37074
  Beta virt. eigenvalues --   -0.09409  -0.05739   0.24945   0.38540   0.92994
  Beta virt. eigenvalues --    0.92994   1.02066   1.21407   1.33772   1.33772
  Beta virt. eigenvalues --    1.46799   1.47145   1.47145   1.70436   2.24022

 Mulliken charges and spin densities:
               1          2
     1  H    0.358396  -0.000345
     2  H    0.000796   0.999147
     3  F   -0.359192   0.001199
 Sum of Mulliken charges =   0.00000   1.00000

 Dipole moment (field-independent basis, Debye):
    X=             -2.4015    Y=              0.0000    Z=              0.0000  Tot=              2.4015
 Quadrupole moment (field-independent basis, Debye-Ang):
   XX=             -9.2377   YY=             -7.1994   ZZ=             -7.1994
   XY=              0.0000   XZ=              0.0000   YZ=             -0.0000

  Exact polarizability:      10.989       0.000       2.278      -0.000      -0.000       2.278
 Approx polarizability:      17.167      -0.000       2.222      -0.000       0.000       2.222

 ******    2 imaginary frequencies (negative Signs) ******

                      1                      2                      3
                      A                      A                      A
 Frequencies --   -604.3548               -48.5568              1164.4246
 Red. masses --      1.0573                 1.0543                 1.0340
 Frc consts  --      0.2275                 0.0015                 0.8260
 IR Inten    --     55.7267                 0.0219               137.5550

                      4
                      A
 Frequencies --   1164.4246
 Red. masses --      1.0340
 Frc consts  --      0.8260
 IR Inten    --    137.5550

 - Thermochemistry -
 -------------------
 Temperature   298.150 Kelvin.  Pressure   1.00000 Atm.
 Atom     1 has atomic number  1 and mass   1.00783

 Molecular mass:    21.01405 amu.
 Principal axes and moments of inertia in atomic units:
                           1         2         3
     Eigenvalues --     0.00000  90.90610  90.90610
           X            1.00000  -0.00000   0.00000
           Y            0.00000   1.00000   0.00000
           Z            0.00000   0.00000   1.00000
 This molecule is a prolate symmetric top.
 Rotational symmetry number  1.
 Rotational temperature (Kelvin)      0.95278
 Rotational constant (GHZ):          19.852807
    2 imaginary frequencies ignored.
 Zero-point vibrational energy      13929.6 (Joules/Mol)
                                    3.32926 (Kcal/Mol)
 Vibrational temperatures:   1675.35  1675.35
          (Kelvin)

 Zero-point correction=                           0.005306 (Hartree/Particle)
 Thermal correction to Energy=                    0.007705
 Thermal correction to Enthalpy=                  0.008649
 Thermal correction to Gibbs Free Energy=        -0.015083
 Sum of electronic and zero-point Energies=           -100.895916
 Sum of electronic and thermal Energies=              -100.893517
 Sum of electronic and thermal Enthalpies=            -100.892573
 Sum of electronic and thermal Free Energies=         -100.916304

                     E (Thermal)             CV                S
                      KCal/Mol        Cal/Mol-Kelvin    Cal/Mol-Kelvin
 Total                    4.835              5.427             49.947
 Electronic               0.000              0.000              1.377
 Translational            0.889              2.981             35.068
 Rotational               0.592              1.987             13.406
 Vibrational              3.354              0.459              0.096

 Normal termination of Gaussian 16 at Fri Aug 22 16:16:14 2025.
