 Gaussian 16, Revision C.01,
 Gaussian 16:  ES64L-G16RevC.01  3-Jul-2019

 -----------------------------------------
 # sp b3lyp/6-311g** Force nosymm scf=(qc)
 -----------------------------------------

 -------------------
 Title Card Required
 -------------------
 Symbolic Z-matrix:
 Charge =  0 Multiplicity = 2

                          Input orientation:
 ---------------------------------------------------------------------
 Center     Atomic      Atomic             Coordinates (Angstroms)
 Number     Number       Type             X           Y           Z
 ---------------------------------------------------------------------
      1          1           0        0.000000    0.000000    0.000000
      2          1           0       -3.500000    0.000000    0.000000
      3          9           0        1.200000    0.000000    0.000000
 ---------------------------------------------------------------------

 SCF Done:  E(UB3LYP) =  -100.925577910     a.u. after    6 cycles

 Alpha  occ. eigenvalues --  -24.64347  -1.12267  -0.47742  -0.37525  -0.37525
 Alpha  occ. eigenvalues --   -0.33844
 Alpha virt. eigenvalues --   -0.05728   0.22278   0.29430   0.93178   0.93178
 Alpha virt. eigenvalues --    1.00806   1.23618   1.23671   1.23671   1.26310
 Alpha virt. eigenvalues --    1.34624   1.34624   1.72796   2.13831   2.28505

  Beta  occ. eigenvalues --  -24.64343  -1.12256  -0.47730  -0.37521  -0.37521
  Beta virt. eigenvalues --   -0.07669  -0.04252   0.26868   0.38684   0.93178
  Beta virt. eigenvalues --    0.93178   1.00818   1.26269   1.34615   1.34615
  Beta virt. eigenvalues --    1.47555   1.47555   1.47868   1.72828   2.28155

 Mulliken charges and spin densities:
               1          2
     1  H    0.352946   0.000069
     2  H    0.001261   0.998598
     3  F   -0.354207   0.001333
 Sum of Mulliken charges =   0.00000   1.00000

 Dipole moment (field-independent basis, Debye):
    X=             -2.2970    Y=             -0.0000    Z=              0.0000  Tot=              2.2970
 Quadrupole moment (field-independent basis, Debye-Ang):
   XX=             -8.8636   YY=             -7.1278   ZZ=             -7.1278
   XY=             -0.0000   XZ=              0.0000   YZ=             -0.0000

  Exact polarizability:       9.596      -0.000       2.324       0.000      -0.000       2.324
 Approx polarizability:      13.544      -0.000       2.278       0.000       0.000       2.278

 ******    1 imaginary frequencies (negative Signs) ******

                      1                      2                      3
                      A                      A                      A
 Frequencies --    -58.6744              1003.5268              1204.5788
 Red. masses --      1.0527                 1.0589                 1.0341
 Frc consts  --      0.0021                 0.6283                 0.8841
 IR Inten    --      0.1246                68.2864               146.1818

                      4
                      A
 Frequencies --   1204.5788
 Red. masses --      1.0341
 Frc consts  --      0.8841
 IR Inten    --    146.1818

 - Thermochemistry -
 -------------------
 Temperature   298.150 Kelvin.  Pressure   1.00000 Atm.
 Atom     1 has atomic number  1 and mass   1.00783

 Molecular mass:    21.01405 amu.
 Principal axes and moments of inertia in atomic units:
                           1         2         3
     Eigenvalues --     0.00000  78.67622  78.67622
           X            1.00000  -0.00000   0.00000
           Y            0.00000   1.00000   0.00000
           Z            0.00000   0.00000   1.00000
 This molecule is a prolate symmetric top.
 Rotational symmetry number  1.
 Rotational temperature (Kelvin)      1.10089
 Rotational constant (GHZ):          22.938839
    1 imaginary frequencies ignored.
 Zero-point vibrational energy      20412.4 (Joules/Mol)
                                    4.87868 (Kcal/Mol)
 Vibrational temperatures:   1443.85  1733.12  1733.12
          (Kelvin)

 Zero-point correction=                           0.007775 (Hartree/Particle)
 Thermal correction to Energy=                    0.010204
 Thermal correction to Enthalpy=                  0.011149
 Thermal correction to Gibbs Free Energy=        -0.012483
 Sum of electronic and zero-point Energies=           -100.917803
 Sum of electronic and thermal Energies=              -100.915374
 Sum of electronic and thermal Enthalpies=            -100.914429
 Sum of electronic and thermal Free Energies=         -100.938061

                     E (Thermal)             CV                S
                      KCal/Mol        Cal/Mol-Kelvin    Cal/Mol-Kelvin
 Total                    6.403              5.745             49.737
 Electronic               0.000              0.000              1.377
 Translational            0.889              2.981             35.068
 Rotational               0.592              1.987             13.118
 Vibrational              4.922              0.777              0.173

 Normal termination of Gaussian 16 at Fri Aug 22 16:11:08 2025.
