 Gaussian 16, Revision C.01,
 Gaussian 16:  ES64L-G16RevC.01  3-Jul-2019

 -----------------------------------------
 # sp b3lyp/6-311g** Force nosymm scf=(qc)
 -----------------------------------------

 -------------------
 Title Card Required
 -------------------
 Symbolic Z-matrix:
 Charge =  0 Multiplicity = 2

                          Input orientation:
 ---------------------------------------------------------------------
 Center     Atomic      Atomic             Coordinates (Angstroms)
 Number     Number       Type             X           Y           Z
 ---------------------------------------------------------------------
      1          1           0        0.000000    0.000000    0.000000
      2          1           0       -0.950000    0.000000    0.000000
      3          9           0        1.200000    0.000000    0.000000
 ---------------------------------------------------------------------

 SCF Done:  E(UB3LYP) =  -100.947256559     a.u. after    6 cycles

 Alpha  occ. eigenvalues --  -24.66334  -1.15504  -0.56249  -0.39554  -0.39554
 Alpha  occ. eigenvalues --   -0.38150
 Alpha virt. eigenvalues --    0.08945   0.19099   0.38929   0.89200   0.89200
 Alpha virt. eigenvalues --    0.98091   1.07922   1.07922   1.36542   1.62667
 Alpha virt. eigenvalues --    1.65520   1.65520   2.24582   2.28309   2.67618

  Beta  occ. eigenvalues --  -24.64721  -1.11333  -0.48765  -0.38054  -0.38054
  Beta virt. eigenvalues --   -0.21118   0.11255   0.20963   0.43181   0.90530
  Beta virt. eigenvalues --    0.90530   1.01633   1.12453   1.12453   1.40612
  Beta virt. eigenvalues --    1.67511   1.68811   1.68811   2.24050   2.38308

 Mulliken charges and spin densities:
               1          2
     1  H    0.254376  -0.057344
     2  H    0.029277   0.596980
     3  F   -0.283653   0.460365
 Sum of Mulliken charges =  -0.00000   1.00000

 Dipole moment (field-independent basis, Debye):
    X=             -1.9955    Y=              0.0000    Z=              0.0000  Tot=              1.9955
 Quadrupole moment (field-independent basis, Debye-Ang):
   XX=             -7.5825   YY=             -6.7924   ZZ=             -6.7924
   XY=              0.0000   XZ=              0.0000   YZ=              0.0000

  Exact polarizability:      20.272      -0.000       2.510       0.000      -0.000       2.510
 Approx polarizability:      27.214      -0.000       2.521       0.000      -0.000       2.521

 ******    1 imaginary frequencies (negative Signs) ******

                      1                      2                      3
                      A                      A                      A
 Frequencies --  -1801.3252               827.2214               827.2214
 Red. masses --      1.0429                 1.0154                 1.0154
 Frc consts  --      1.9937                 0.4094                 0.4094
 IR Inten    --    297.8284                22.2496                22.2496

                      4
                      A
 Frequencies --   1458.3506
 Red. masses --      1.0690
 Frc consts  --      1.3395
 IR Inten    --    128.6136

 - Thermochemistry -
 -------------------
 Temperature   298.150 Kelvin.  Pressure   1.00000 Atm.
 Atom     1 has atomic number  1 and mass   1.00783

 Molecular mass:    21.01405 amu.
 Principal axes and moments of inertia in atomic units:
                           1         2         3
     Eigenvalues --     0.00000  19.88191  19.88191
           X            1.00000  -0.00000   0.00000
           Y            0.00000   1.00000   0.00000
           Z            0.00000   0.00000   1.00000
 This molecule is a prolate symmetric top.
 Rotational symmetry number  1.
 Rotational temperature (Kelvin)      4.35642
 Rotational constant (GHZ):          90.773038
    1 imaginary frequencies ignored.
 Zero-point vibrational energy      18618.6 (Joules/Mol)
                                    4.44996 (Kcal/Mol)
 Vibrational temperatures:   1190.19  1190.19  2098.24
          (Kelvin)

 Zero-point correction=                           0.007091 (Hartree/Particle)
 Thermal correction to Energy=                    0.009600
 Thermal correction to Enthalpy=                  0.010544
 Thermal correction to Gibbs Free Energy=        -0.011891
 Sum of electronic and zero-point Energies=           -100.940165
 Sum of electronic and thermal Energies=              -100.937657
 Sum of electronic and thermal Enthalpies=            -100.936713
 Sum of electronic and thermal Free Energies=         -100.959147

                     E (Thermal)             CV                S
                      KCal/Mol        Cal/Mol-Kelvin    Cal/Mol-Kelvin
 Total                    6.024              6.268             47.217
 Electronic               0.000              0.000              1.377
 Translational            0.889              2.981             35.068
 Rotational               0.592              1.987             10.385
 Vibrational              4.543              1.300              0.387

 Normal termination of Gaussian 16 at Fri Aug 22 16:09:24 2025.
