 Gaussian 16, Revision C.01,
 Gaussian 16:  ES64L-G16RevC.01  3-Jul-2019

 -----------------------------------------
 # sp b3lyp/6-311g** Force nosymm scf=(qc)
 -----------------------------------------

 -------------------
 Title Card Required
 -------------------
 Symbolic Z-matrix:
 Charge =  0 Multiplicity = 2

                          Input orientation:
 ---------------------------------------------------------------------
 Center     Atomic      Atomic             Coordinates (Angstroms)
 Number     Number       Type             X           Y           Z
 ---------------------------------------------------------------------
      1          1           0        0.000000    0.000000    0.000000
      2          1           0       -0.600000    0.000000    0.000000
      3          9           0        2.100000    0.000000    0.000000
 ---------------------------------------------------------------------

 SCF Done:  E(UB3LYP) =  -100.912876338     a.u. after   18 cycles

 Alpha  occ. eigenvalues --  -24.77085  -1.22945  -0.56077  -0.49118  -0.47225
 Alpha  occ. eigenvalues --   -0.44123
 Alpha virt. eigenvalues --    0.10829   0.20545   0.51596   0.85032   0.89814
 Alpha virt. eigenvalues --    0.94760   1.11197   1.11309   1.15944   1.65226
 Alpha virt. eigenvalues --    1.82982   1.93736   1.93803   2.43597   3.64403

  Beta  occ. eigenvalues --  -24.73921  -1.13856  -0.47604  -0.44052  -0.42458
  Beta virt. eigenvalues --   -0.26694   0.10982   0.20672   0.51681   0.91278
  Beta virt. eigenvalues --    0.94289   0.96554   1.11332   1.11364   1.19358
  Beta virt. eigenvalues --    1.65393   1.83018   1.93756   1.93801   2.43659

 Mulliken charges and spin densities:
               1          2
     1  H   -0.005124  -0.001963
     2  H   -0.014693  -0.001126
     3  F    0.019817   1.003089
 Sum of Mulliken charges =   0.00000   1.00000

 Dipole moment (field-independent basis, Debye):
    X=              0.2205    Y=             -0.0000    Z=              0.0000  Tot=              0.2205
 Quadrupole moment (field-independent basis, Debye-Ang):
   XX=             -6.0436   YY=             -6.0534   ZZ=             -6.5764
   XY=             -0.0000   XZ=              0.0000   YZ=             -0.3434

  Exact polarizability:       7.103       0.000       2.289      -0.000      -0.153       2.057
 Approx polarizability:       7.574       0.000       2.486      -0.000      -0.206       2.173

 ******    2 imaginary frequencies (negative Signs) ******

                      1                      2                      3
                      A                      A                      A
 Frequencies --  -2734.8207             -2716.6211               453.1355
 Red. masses --      1.0094                 1.0094                 1.1085
 Frc consts  --      4.4480                 4.3890                 0.1341
 IR Inten    --      0.0784                 0.0181                 1.6566

                      4
                      A
 Frequencies --   7045.2021
 Red. masses --      1.0078
 Frc consts  --     29.4729
 IR Inten    --     16.0299

 - Thermochemistry -
 -------------------
 Temperature   298.150 Kelvin.  Pressure   1.00000 Atm.
 Atom     1 has atomic number  1 and mass   1.00783

 Molecular mass:    21.01405 amu.
 Principal axes and moments of inertia in atomic units:
                           1         2         3
     Eigenvalues --     0.00000  38.13154  38.13154
           X            1.00000  -0.00000   0.00000
           Y            0.00000   1.00000   0.00000
           Z            0.00000   0.00000   1.00000
 This molecule is a prolate symmetric top.
 Rotational symmetry number  1.
 Rotational temperature (Kelvin)      2.27145
 Rotational constant (GHZ):          47.329359
    2 imaginary frequencies ignored.
 Zero-point vibrational energy      44850.0 (Joules/Mol)
                                   10.71941 (Kcal/Mol)
 Warning -- explicit consideration of   1 degrees of freedom as
           vibrations may cause significant error
 Vibrational temperatures:    651.96 10136.47
          (Kelvin)

 Zero-point correction=                           0.017082 (Hartree/Particle)
 Thermal correction to Energy=                    0.019704
 Thermal correction to Enthalpy=                  0.020648
 Thermal correction to Gibbs Free Energy=        -0.002591
 Sum of electronic and zero-point Energies=           -100.895794
 Sum of electronic and thermal Energies=              -100.893172
 Sum of electronic and thermal Enthalpies=            -100.892228
 Sum of electronic and thermal Free Energies=         -100.915467

                     E (Thermal)             CV                S
                      KCal/Mol        Cal/Mol-Kelvin    Cal/Mol-Kelvin
 Total                   12.365              6.322             48.911
 Electronic               0.000              0.000              1.377
 Translational            0.889              2.981             35.068
 Rotational               0.592              1.987             11.679
 Vibrational             10.883              1.354              0.786
 Vibration     1          0.812              1.354              0.786

 Normal termination of Gaussian 16 at Fri Aug 22 17:02:36 2025.
