 Gaussian 16, Revision C.01,
 Gaussian 16:  ES64L-G16RevC.01  3-Jul-2019

 -----------------------------------------
 # sp b3lyp/6-311g** Force nosymm scf=(qc)
 -----------------------------------------

 -------------------
 Title Card Required
 -------------------
 Symbolic Z-matrix:
 Charge =  0 Multiplicity = 2

                          Input orientation:
 ---------------------------------------------------------------------
 Center     Atomic      Atomic             Coordinates (Angstroms)
 Number     Number       Type             X           Y           Z
 ---------------------------------------------------------------------
      1          1           0        0.000000    0.000000    0.000000
      2          1           0       -1.150000    0.000000    0.000000
      3          9           0        3.600000    0.000000    0.000000
 ---------------------------------------------------------------------

 SCF Done:  E(UB3LYP) =  -100.880788563     a.u. after  480 cycles

 Alpha  occ. eigenvalues --  -24.76328  -1.22207  -0.55407  -0.46596  -0.46562
 Alpha  occ. eigenvalues --   -0.36884
 Alpha virt. eigenvalues --   -0.02968   0.22495   0.35181   0.85984   0.90860
 Alpha virt. eigenvalues --    0.92005   1.01260   1.11811   1.11813   1.25873
 Alpha virt. eigenvalues --    1.57110   1.57113   2.12095   2.33061   2.54973

  Beta  occ. eigenvalues --  -24.73171  -1.13130  -0.43433  -0.43397  -0.36882
  Beta virt. eigenvalues --   -0.26051  -0.02963   0.22502   0.35210   0.92360
  Beta virt. eigenvalues --    0.93504   0.95449   1.05376   1.11810   1.11813
  Beta virt. eigenvalues --    1.25879   1.57109   1.57112   2.12100   2.33063

 Mulliken charges and spin densities:
               1          2
     1  H    0.000279  -0.000169
     2  H   -0.002742  -0.000113
     3  F    0.002463   1.000282
 Sum of Mulliken charges =  -0.00000   1.00000

 Dipole moment (field-independent basis, Debye):
    X=              0.0401    Y=             -0.0000    Z=             -0.0000  Tot=              0.0401
 Quadrupole moment (field-independent basis, Debye-Ang):
   XX=             -6.2804   YY=             -6.5790   ZZ=             -7.4434
   XY=             -0.0000   XZ=             -0.0000   YZ=              0.0034

  Exact polarizability:      14.957      -0.000       2.543      -0.000       0.002       2.078
 Approx polarizability:      21.725      -0.000       2.692      -0.000       0.002       2.110

 ******    1 imaginary frequencies (negative Signs) ******

                      1                      2                      3
                      A                      A                      A
 Frequencies --    -47.8865               583.2920              1503.4804
 Red. masses --      1.1085                 1.0078                 1.0097
 Frc consts  --      0.0015                 0.2020                 1.3448
 IR Inten    --      0.1193                 0.1280                 0.0009

                      4
                      A
 Frequencies --   1504.1827
 Red. masses --      1.0097
 Frc consts  --      1.3460
 IR Inten    --      0.0008

 - Thermochemistry -
 -------------------
 Temperature   298.150 Kelvin.  Pressure   1.00000 Atm.
 Atom     1 has atomic number  1 and mass   1.00783

 Molecular mass:    21.01405 amu.
 Principal axes and moments of inertia in atomic units:
                           1         2         3
     Eigenvalues --     0.00000 115.81120 115.81120
           X            1.00000  -0.00000   0.00000
           Y            0.00000   1.00000   0.00000
           Z            0.00000   0.00000   1.00000
 This molecule is a prolate symmetric top.
 Rotational symmetry number  1.
 Rotational temperature (Kelvin)      0.74789
 Rotational constant (GHZ):          15.583478
    1 imaginary frequencies ignored.
 Zero-point vibrational energy      21478.7 (Joules/Mol)
                                    5.13353 (Kcal/Mol)
 Warning -- explicit consideration of   1 degrees of freedom as
           vibrations may cause significant error
 Vibrational temperatures:    839.23  2163.17  2164.18
          (Kelvin)

 Zero-point correction=                           0.008181 (Hartree/Particle)
 Thermal correction to Energy=                    0.010720
 Thermal correction to Enthalpy=                  0.011665
 Thermal correction to Gibbs Free Energy=        -0.012489
 Sum of electronic and zero-point Energies=           -100.872608
 Sum of electronic and thermal Energies=              -100.870068
 Sum of electronic and thermal Enthalpies=            -100.869124
 Sum of electronic and thermal Free Energies=         -100.893277

                     E (Thermal)             CV                S
                      KCal/Mol        Cal/Mol-Kelvin    Cal/Mol-Kelvin
 Total                    6.727              6.183             50.835
 Electronic               0.000              0.000              1.377
 Translational            0.889              2.981             35.068
 Rotational               0.592              1.987             13.887
 Vibrational              5.246              1.215              0.502
 Vibration     1          0.940              1.067              0.479

 Normal termination of Gaussian 16 at Fri Aug 22 22:52:38 2025.
