 Gaussian 16, Revision C.01,
 Gaussian 16:  ES64L-G16RevC.01  3-Jul-2019

 -----------------------------------------
 # sp b3lyp/6-311g** Force nosymm scf=(qc)
 -----------------------------------------

 -------------------
 Title Card Required
 -------------------
 Symbolic Z-matrix:
 Charge =  0 Multiplicity = 2

                          Input orientation:
 ---------------------------------------------------------------------
 Center     Atomic      Atomic             Coordinates (Angstroms)
 Number     Number       Type             X           Y           Z
 ---------------------------------------------------------------------
      1          1           0        0.000000    0.000000    0.000000
      2          1           0       -1.400000    0.000000    0.000000
      3          9           0        3.850000    0.000000    0.000000
 ---------------------------------------------------------------------

 SCF Done:  E(UB3LYP) =  -100.836412685     a.u. after  170 cycles

 Alpha  occ. eigenvalues --  -24.76250  -1.22148  -0.55351  -0.46529  -0.46507
 Alpha  occ. eigenvalues --   -0.34379
 Alpha virt. eigenvalues --   -0.08133   0.24255   0.31380   0.86020   0.90897
 Alpha virt. eigenvalues --    0.91394   1.00902   1.10710   1.17913   1.17915
 Alpha virt. eigenvalues --    1.45109   1.45111   1.89847   2.25412   2.49629

  Beta  occ. eigenvalues --  -24.73095  -1.13075  -0.43366  -0.43344  -0.34379
  Beta virt. eigenvalues --   -0.26000  -0.08131   0.24259   0.31392   0.92398
  Beta virt. eigenvalues --    0.92888   0.95486   1.05046   1.10716   1.17913
  Beta virt. eigenvalues --    1.17914   1.45109   1.45111   1.89849   2.25413

 Mulliken charges and spin densities:
               1          2
     1  H    0.001008   0.000060
     2  H   -0.002117  -0.000185
     3  F    0.001109   1.000125
 Sum of Mulliken charges =   0.00000   1.00000

 Dipole moment (field-independent basis, Debye):
    X=              0.0263    Y=              0.0000    Z=             -0.0000  Tot=              0.0263
 Quadrupole moment (field-independent basis, Debye-Ang):
   XX=             -6.3121   YY=             -7.5407   ZZ=             -6.9576
   XY=              0.0000   XZ=             -0.0001   YZ=             -0.3192

  Exact polarizability:      20.222      -0.000       2.137       0.000      -0.178       2.462
 Approx polarizability:      35.868       0.000       2.157      -0.000      -0.215       2.550

 ******    2 imaginary frequencies (negative Signs) ******

                      1                      2                      3
                      A                      A                      A
 Frequencies --  -1167.8828               -51.7809              1302.2189
 Red. masses --      1.0078                 1.1085                 1.0102
 Frc consts  --      0.8099                 0.0018                 1.0093
 IR Inten    --      0.0731                 0.0512                 0.0290

                      4
                      A
 Frequencies --   1313.1228
 Red. masses --      1.0102
 Frc consts  --      1.0263
 IR Inten    --      0.0016

 - Thermochemistry -
 -------------------
 Temperature   298.150 Kelvin.  Pressure   1.00000 Atm.
 Atom     1 has atomic number  1 and mass   1.00783

 Molecular mass:    21.01405 amu.
 Principal axes and moments of inertia in atomic units:
                           1         2         3
     Eigenvalues --     0.00000 138.25040 138.25040
           X            1.00000  -0.00000   0.00000
           Y            0.00000   1.00000   0.00000
           Z            0.00000   0.00000   1.00000
 This molecule is a prolate symmetric top.
 Rotational symmetry number  1.
 Rotational temperature (Kelvin)      0.62650
 Rotational constant (GHZ):          13.054148
    2 imaginary frequencies ignored.
 Zero-point vibrational energy      15643.2 (Joules/Mol)
                                    3.73882 (Kcal/Mol)
 Vibrational temperatures:   1873.60  1889.29
          (Kelvin)

 Zero-point correction=                           0.005958 (Hartree/Particle)
 Thermal correction to Energy=                    0.008340
 Thermal correction to Enthalpy=                  0.009285
 Thermal correction to Gibbs Free Energy=        -0.014822
 Sum of electronic and zero-point Energies=           -100.830454
 Sum of electronic and thermal Energies=              -100.828072
 Sum of electronic and thermal Enthalpies=            -100.827128
 Sum of electronic and thermal Free Energies=         -100.851235

                     E (Thermal)             CV                S
                      KCal/Mol        Cal/Mol-Kelvin    Cal/Mol-Kelvin
 Total                    5.234              5.257             50.737
 Electronic               0.000              0.000              1.377
 Translational            0.889              2.981             35.068
 Rotational               0.592              1.987             14.239
 Vibrational              3.752              0.289              0.053

 Normal termination of Gaussian 16 at Sat Aug 23 01:01:04 2025.
