 Gaussian 16, Revision C.01,
 Gaussian 16:  ES64L-G16RevC.01  3-Jul-2019

 -----------------------------------------
 # sp b3lyp/6-311g** Force nosymm scf=(qc)
 -----------------------------------------

 -------------------
 Title Card Required
 -------------------
 Symbolic Z-matrix:
 Charge =  0 Multiplicity = 2

                          Input orientation:
 ---------------------------------------------------------------------
 Center     Atomic      Atomic             Coordinates (Angstroms)
 Number     Number       Type             X           Y           Z
 ---------------------------------------------------------------------
      1          1           0        0.000000    0.000000    0.000000
      2          1           0       -1.050000    0.000000    0.000000
      3          9           0        3.300000    0.000000    0.000000
 ---------------------------------------------------------------------

 SCF Done:  E(UB3LYP) =  -100.898819749     a.u. after  219 cycles

 Alpha  occ. eigenvalues --  -24.76474  -1.22322  -0.55519  -0.46730  -0.46671
 Alpha  occ. eigenvalues --   -0.38097
 Alpha virt. eigenvalues --   -0.00653   0.21830   0.37425   0.85905   0.90780
 Alpha virt. eigenvalues --    0.92933   1.02316   1.09991   1.09995   1.33786
 Alpha virt. eigenvalues --    1.62901   1.62905   2.20783   2.35613   2.56499

  Beta  occ. eigenvalues --  -24.73316  -1.13241  -0.43569  -0.43504  -0.38089
  Beta virt. eigenvalues --   -0.26153  -0.00640   0.21845   0.37481   0.92279
  Beta virt. eigenvalues --    0.94498   0.95367   1.06324   1.09991   1.09995
  Beta virt. eigenvalues --    1.33795   1.62900   1.62905   2.20794   2.35617

 Mulliken charges and spin densities:
               1          2
     1  H   -0.001155  -0.000387
     2  H   -0.003857  -0.000221
     3  F    0.005012   1.000608
 Sum of Mulliken charges =  -0.00000   1.00000

 Dipole moment (field-independent basis, Debye):
    X=              0.0658    Y=             -0.0000    Z=              0.0000  Tot=              0.0658
 Quadrupole moment (field-independent basis, Debye-Ang):
   XX=             -6.2051   YY=             -6.6316   ZZ=             -7.1761
   XY=              0.0000   XZ=             -0.0000   YZ=             -0.3354

  Exact polarizability:      13.262       0.000       2.445      -0.000      -0.180       2.153
 Approx polarizability:      17.885       0.000       2.587      -0.000      -0.226       2.221

 ******    1 imaginary frequencies (negative Signs) ******

                      1                      2                      3
                      A                      A                      A
 Frequencies --    -33.7598              1410.9687              1543.0807
 Red. masses --      1.1085                 1.0078                 1.0097
 Frc consts  --      0.0007                 1.1821                 1.4165
 IR Inten    --      0.2387                 0.2863                 0.0001

                      4
                      A
 Frequencies --   1543.8891
 Red. masses --      1.0097
 Frc consts  --      1.4180
 IR Inten    --      0.0001

 - Thermochemistry -
 -------------------
 Temperature   298.150 Kelvin.  Pressure   1.00000 Atm.
 Atom     1 has atomic number  1 and mass   1.00783

 Molecular mass:    21.01405 amu.
 Principal axes and moments of inertia in atomic units:
                           1         2         3
     Eigenvalues --     0.00000  97.19405  97.19405
           X            1.00000  -0.00000   0.00000
           Y            0.00000   1.00000   0.00000
           Z            0.00000   0.00000   1.00000
 This molecule is a prolate symmetric top.
 Rotational symmetry number  1.
 Rotational temperature (Kelvin)      0.89114
 Rotational constant (GHZ):          18.568432
    1 imaginary frequencies ignored.
 Zero-point vibrational energy      26903.6 (Joules/Mol)
                                    6.43013 (Kcal/Mol)
 Vibrational temperatures:   2030.07  2220.15  2221.31
          (Kelvin)

 Zero-point correction=                           0.010247 (Hartree/Particle)
 Thermal correction to Energy=                    0.012623
 Thermal correction to Enthalpy=                  0.013567
 Thermal correction to Gibbs Free Energy=        -0.010199
 Sum of electronic and zero-point Energies=           -100.888573
 Sum of electronic and thermal Energies=              -100.886197
 Sum of electronic and thermal Enthalpies=            -100.885253
 Sum of electronic and thermal Free Energies=         -100.909019

                     E (Thermal)             CV                S
                      KCal/Mol        Cal/Mol-Kelvin    Cal/Mol-Kelvin
 Total                    7.921              5.199             50.021
 Electronic               0.000              0.000              1.377
 Translational            0.889              2.981             35.068
 Rotational               0.592              1.987             13.539
 Vibrational              6.440              0.230              0.037

 Normal termination of Gaussian 16 at Fri Aug 22 20:40:54 2025.
