 Gaussian 16, Revision C.01,
 Gaussian 16:  ES64L-G16RevC.01  3-Jul-2019

 -----------------------------------------
 # sp b3lyp/6-311g** Force nosymm scf=(qc)
 -----------------------------------------

 -------------------
 Title Card Required
 -------------------
 Symbolic Z-matrix:
 Charge =  0 Multiplicity = 2

                          Input orientation:
 ---------------------------------------------------------------------
 Center     Atomic      Atomic             Coordinates (Angstroms)
 Number     Number       Type             X           Y           Z
 ---------------------------------------------------------------------
      1          1           0        0.000000    0.000000    0.000000
      2          1           0       -1.450000    0.000000    0.000000
      3          9           0        2.350000    0.000000    0.000000
 ---------------------------------------------------------------------

 SCF Done:  E(UB3LYP) =  -100.832868007     a.u. after   16 cycles

 Alpha  occ. eigenvalues --  -24.72858  -1.19021  -0.52104  -0.43675  -0.43675
 Alpha  occ. eigenvalues --   -0.36582
 Alpha virt. eigenvalues --   -0.10005   0.23264   0.31640   0.87853   0.92785
 Alpha virt. eigenvalues --    0.92785   1.03892   1.16621   1.16621   1.18343
 Alpha virt. eigenvalues --    1.41124   1.41124   1.83834   2.21452   2.47573

  Beta  occ. eigenvalues --  -24.69963  -1.10770  -0.40788  -0.40788  -0.36042
  Beta virt. eigenvalues --   -0.24776  -0.09022   0.24377   0.31804   0.94087
  Beta virt. eigenvalues --    0.94150   0.94150   1.06881   1.17449   1.17449
  Beta virt. eigenvalues --    1.21948   1.41738   1.41738   1.84691   2.22512

 Mulliken charges and spin densities:
               1          2
     1  H    0.026644  -0.258091
     2  H    0.043843   0.344286
     3  F   -0.070487   0.913804
 Sum of Mulliken charges =  -0.00000   1.00000

 Dipole moment (field-independent basis, Debye):
    X=             -1.1361    Y=              0.0000    Z=             -0.0000  Tot=              1.1361
 Quadrupole moment (field-independent basis, Debye-Ang):
   XX=             -6.9619   YY=             -7.6184   ZZ=             -7.6184
   XY=              0.0000   XZ=             -0.0000   YZ=             -0.0000

  Exact polarizability:      55.624       0.000       2.075      -0.000      -0.000       2.075
 Approx polarizability:      80.383      -0.000       2.053       0.000      -0.000       2.053

 ******    2 imaginary frequencies (negative Signs) ******

                      1                      2                      3
                      A                      A                      A
 Frequencies --  -1966.7666              -327.2580              1188.8160
 Red. masses --      1.0092                 1.1068                 1.0132
 Frc consts  --      2.3001                 0.0698                 0.8436
 IR Inten    --    840.4633                25.4146                 0.0256

                      4
                      A
 Frequencies --   1188.8160
 Red. masses --      1.0132
 Frc consts  --      0.8436
 IR Inten    --      0.0256

 - Thermochemistry -
 -------------------
 Temperature   298.150 Kelvin.  Pressure   1.00000 Atm.
 Atom     1 has atomic number  1 and mass   1.00783

 Molecular mass:    21.01405 amu.
 Principal axes and moments of inertia in atomic units:
                           1         2         3
     Eigenvalues --     0.00000  65.31678  65.31678
           X            1.00000  -0.00000   0.00000
           Y            0.00000   1.00000   0.00000
           Z            0.00000   0.00000   1.00000
 This molecule is a prolate symmetric top.
 Rotational symmetry number  1.
 Rotational temperature (Kelvin)      1.32606
 Rotational constant (GHZ):          27.630589
    2 imaginary frequencies ignored.
 Zero-point vibrational energy      14221.4 (Joules/Mol)
                                    3.39900 (Kcal/Mol)
 Vibrational temperatures:   1710.44  1710.44
          (Kelvin)

 Zero-point correction=                           0.005417 (Hartree/Particle)
 Thermal correction to Energy=                    0.007812
 Thermal correction to Enthalpy=                  0.008756
 Thermal correction to Gibbs Free Energy=        -0.014659
 Sum of electronic and zero-point Energies=           -100.827451
 Sum of electronic and thermal Energies=              -100.825056
 Sum of electronic and thermal Enthalpies=            -100.824112
 Sum of electronic and thermal Free Energies=         -100.847527

                     E (Thermal)             CV                S
                      KCal/Mol        Cal/Mol-Kelvin    Cal/Mol-Kelvin
 Total                    4.902              5.393             49.281
 Electronic               0.000              0.000              1.377
 Translational            0.889              2.981             35.068
 Rotational               0.592              1.987             12.749
 Vibrational              3.421              0.425              0.087

 Normal termination of Gaussian 16 at Fri Aug 22 17:25:46 2025.
