 Gaussian 16, Revision C.01,
 Gaussian 16:  ES64L-G16RevC.01  3-Jul-2019

 -----------------------------------------
 # sp b3lyp/6-311g** Force nosymm scf=(qc)
 -----------------------------------------

 -------------------
 Title Card Required
 -------------------
 Symbolic Z-matrix:
 Charge =  0 Multiplicity = 2

                          Input orientation:
 ---------------------------------------------------------------------
 Center     Atomic      Atomic             Coordinates (Angstroms)
 Number     Number       Type             X           Y           Z
 ---------------------------------------------------------------------
      1          1           0        0.000000    0.000000    0.000000
      2          1           0       -1.150000    0.000000    0.000000
      3          9           0        3.800000    0.000000    0.000000
 ---------------------------------------------------------------------

 SCF Done:  E(UB3LYP) =  -100.880650950     a.u. after  150 cycles

 Alpha  occ. eigenvalues --  -24.76251  -1.22144  -0.55347  -0.46526  -0.46502
 Alpha  occ. eigenvalues --   -0.36906
 Alpha virt. eigenvalues --   -0.02995   0.22488   0.35217   0.86029   0.90906
 Alpha virt. eigenvalues --    0.91595   1.01009   1.11791   1.11793   1.25825
 Alpha virt. eigenvalues --    1.57090   1.57092   2.11844   2.32937   2.54824

  Beta  occ. eigenvalues --  -24.73096  -1.13070  -0.43363  -0.43339  -0.36905
  Beta virt. eigenvalues --   -0.25995  -0.02992   0.22492   0.35234   0.92407
  Beta virt. eigenvalues --    0.93088   0.95495   1.05149   1.11791   1.11793
  Beta virt. eigenvalues --    1.25828   1.57090   1.57092   2.11848   2.32938

 Mulliken charges and spin densities:
               1          2
     1  H    0.000731  -0.000095
     2  H   -0.002189  -0.000067
     3  F    0.001458   1.000162
 Sum of Mulliken charges =   0.00000   1.00000

 Dipole moment (field-independent basis, Debye):
    X=              0.0276    Y=              0.0000    Z=             -0.0000  Tot=              0.0276
 Quadrupole moment (field-independent basis, Debye-Ang):
   XX=             -6.3200   YY=             -7.3061   ZZ=             -6.7132
   XY=              0.0000   XZ=             -0.0000   YZ=             -0.3146

  Exact polarizability:      14.822       0.000       2.151      -0.000      -0.170       2.472
 Approx polarizability:      21.621       0.000       2.201      -0.000      -0.212       2.601

 ******    1 imaginary frequencies (negative Signs) ******

                      1                      2                      3
                      A                      A                      A
 Frequencies --    -56.9169               583.1041              1502.6146
 Red. masses --      1.1085                 1.0078                 1.0095
 Frc consts  --      0.0021                 0.2019                 1.3430
 IR Inten    --      0.0630                 0.0762                 0.0025

                      4
                      A
 Frequencies --   1504.8869
 Red. masses --      1.0095
 Frc consts  --      1.3470
 IR Inten    --      0.0009

 - Thermochemistry -
 -------------------
 Temperature   298.150 Kelvin.  Pressure   1.00000 Atm.
 Atom     1 has atomic number  1 and mass   1.00783

 Molecular mass:    21.01405 amu.
 Principal axes and moments of inertia in atomic units:
                           1         2         3
     Eigenvalues --     0.00000 126.93917 126.93917
           X            1.00000  -0.00000   0.00000
           Y            0.00000   1.00000   0.00000
           Z            0.00000   0.00000   1.00000
 This molecule is a prolate symmetric top.
 Rotational symmetry number  1.
 Rotational temperature (Kelvin)      0.68233
 Rotational constant (GHZ):          14.217370
    1 imaginary frequencies ignored.
 Zero-point vibrational energy      21476.6 (Joules/Mol)
                                    5.13303 (Kcal/Mol)
 Warning -- explicit consideration of   1 degrees of freedom as
           vibrations may cause significant error
 Vibrational temperatures:    838.96  2161.93  2165.20
          (Kelvin)

 Zero-point correction=                           0.008180 (Hartree/Particle)
 Thermal correction to Energy=                    0.010720
 Thermal correction to Enthalpy=                  0.011664
 Thermal correction to Gibbs Free Energy=        -0.012576
 Sum of electronic and zero-point Energies=           -100.872471
 Sum of electronic and thermal Energies=              -100.869931
 Sum of electronic and thermal Enthalpies=            -100.868987
 Sum of electronic and thermal Free Energies=         -100.893227

                     E (Thermal)             CV                S
                      KCal/Mol        Cal/Mol-Kelvin    Cal/Mol-Kelvin
 Total                    6.727              6.184             51.017
 Electronic               0.000              0.000              1.377
 Translational            0.889              2.981             35.068
 Rotational               0.592              1.987             14.069
 Vibrational              5.245              1.216              0.503
 Vibration     1          0.940              1.068              0.480

 Normal termination of Gaussian 16 at Sat Aug 23 00:32:49 2025.
