 Gaussian 16, Revision C.01,
 Gaussian 16:  ES64L-G16RevC.01  3-Jul-2019

 -----------------------------------------
 # sp b3lyp/6-311g** Force nosymm scf=(qc)
 -----------------------------------------

 -------------------
 Title Card Required
 -------------------
 Symbolic Z-matrix:
 Charge =  0 Multiplicity = 2

                          Input orientation:
 ---------------------------------------------------------------------
 Center     Atomic      Atomic             Coordinates (Angstroms)
 Number     Number       Type             X           Y           Z
 ---------------------------------------------------------------------
      1          1           0        0.000000    0.000000    0.000000
      2          1           0       -2.600000    0.000000    0.000000
      3          9           0        0.800000    0.000000    0.000000
 ---------------------------------------------------------------------

 SCF Done:  E(UB3LYP) =  -100.950520684     a.u. after    6 cycles

 Alpha  occ. eigenvalues --  -24.63619  -1.22985  -0.56166  -0.40594  -0.40594
 Alpha  occ. eigenvalues --   -0.34492
 Alpha virt. eigenvalues --    0.06186   0.25439   0.45840   0.94257   0.94257
 Alpha virt. eigenvalues --    0.96917   1.19387   1.23055   1.23055   1.39020
 Alpha virt. eigenvalues --    1.39874   1.39874   2.03008   2.14147   2.53178

  Beta  occ. eigenvalues --  -24.63610  -1.22960  -0.56131  -0.40587  -0.40587
  Beta virt. eigenvalues --   -0.08348   0.07615   0.37852   0.46074   0.94258
  Beta virt. eigenvalues --    0.94258   0.96990   1.29227   1.39863   1.39863
  Beta virt. eigenvalues --    1.46285   1.46285   1.53428   2.02868   2.42342

 Mulliken charges and spin densities:
               1          2
     1  H    0.271163   0.002991
     2  H    0.004318   0.993734
     3  F   -0.275481   0.003275
 Sum of Mulliken charges =   0.00000   1.00000

 Dipole moment (field-independent basis, Debye):
    X=             -1.7910    Y=             -0.0000    Z=             -0.0000  Tot=              1.7910
 Quadrupole moment (field-independent basis, Debye-Ang):
   XX=             -7.4326   YY=             -6.7640   ZZ=             -6.7640
   XY=             -0.0000   XZ=             -0.0000   YZ=             -0.0000

  Exact polarizability:       6.113       0.000       2.466      -0.000       0.000       2.466
 Approx polarizability:       6.471       0.000       2.451      -0.000       0.000       2.451

 ******    2 imaginary frequencies (negative Signs) ******

                      1                      2                      3
                      A                      A                      A
 Frequencies --  -1962.9260             -1962.9260                51.9421
 Red. masses --      1.0358                 1.0358                 1.0532
 Frc consts  --      2.3515                 2.3515                 0.0017
 IR Inten    --    184.1262               184.1262                 0.3147

                      4
                      A
 Frequencies --   6347.4224
 Red. masses --      1.0583
 Frc consts  --     25.1229
 IR Inten    --    123.5821

 - Thermochemistry -
 -------------------
 Temperature   298.150 Kelvin.  Pressure   1.00000 Atm.
 Atom     1 has atomic number  1 and mass   1.00783

 Molecular mass:    21.01405 amu.
 Principal axes and moments of inertia in atomic units:
                           1         2         3
     Eigenvalues --     0.00000  40.86312  40.86312
           X            1.00000  -0.00000   0.00000
           Y            0.00000   1.00000   0.00000
           Z            0.00000   0.00000   1.00000
 This molecule is a prolate symmetric top.
 Rotational symmetry number  1.
 Rotational temperature (Kelvin)      2.11961
 Rotational constant (GHZ):          44.165528
    2 imaginary frequencies ignored.
 Zero-point vibrational energy      38276.7 (Joules/Mol)
                                    9.14835 (Kcal/Mol)
 Warning -- explicit consideration of   1 degrees of freedom as
           vibrations may cause significant error
 Vibrational temperatures:     74.73  9132.53
          (Kelvin)

 Zero-point correction=                           0.014579 (Hartree/Particle)
 Thermal correction to Energy=                    0.017770
 Thermal correction to Enthalpy=                  0.018714
 Thermal correction to Gibbs Free Energy=        -0.006470
 Sum of electronic and zero-point Energies=           -100.935942
 Sum of electronic and thermal Energies=              -100.932751
 Sum of electronic and thermal Enthalpies=            -100.931806
 Sum of electronic and thermal Free Energies=         -100.956990

                     E (Thermal)             CV                S
                      KCal/Mol        Cal/Mol-Kelvin    Cal/Mol-Kelvin
 Total                   11.151              6.945             53.004
 Electronic               0.000              0.000              1.377
 Translational            0.889              2.981             35.068
 Rotational               0.592              1.987             11.817
 Vibrational              9.670              1.977              4.742
 Vibration     1          0.596              1.977              4.742

 Normal termination of Gaussian 16 at Fri Aug 22 15:51:30 2025.
