 Gaussian 16, Revision C.01,
 Gaussian 16:  ES64L-G16RevC.01  3-Jul-2019

 -----------------------------------------
 # sp b3lyp/6-311g** Force nosymm scf=(qc)
 -----------------------------------------

 -------------------
 Title Card Required
 -------------------
 Symbolic Z-matrix:
 Charge =  0 Multiplicity = 2

                          Input orientation:
 ---------------------------------------------------------------------
 Center     Atomic      Atomic             Coordinates (Angstroms)
 Number     Number       Type             X           Y           Z
 ---------------------------------------------------------------------
      1          1           0        0.000000    0.000000    0.000000
      2          1           0       -3.850000    0.000000    0.000000
      3          9           0        3.850000    0.000000    0.000000
 ---------------------------------------------------------------------

 SCF Done:  E(UB3LYP) =  -100.758502548     a.u. after   39 cycles

 Alpha  occ. eigenvalues --  -24.75789  -1.21722  -0.54913  -0.46106  -0.46106
 Alpha  occ. eigenvalues --   -0.32244
 Alpha virt. eigenvalues --   -0.06173   0.24192   0.37751   0.86766   0.91229
 Alpha virt. eigenvalues --    0.91229   1.01209   1.25252   1.25252   1.25291
 Alpha virt. eigenvalues --    1.46287   1.46287   1.46292   2.14688   2.42137

  Beta  occ. eigenvalues --  -24.72649  -1.12695  -0.42958  -0.42958  -0.32504
  Beta virt. eigenvalues --   -0.25685  -0.05954   0.24000   0.38202   0.92726
  Beta virt. eigenvalues --    0.92726   0.96093   1.05314   1.24967   1.24967
  Beta virt. eigenvalues --    1.24991   1.46530   1.46663   1.46663   2.14694

 Mulliken charges and spin densities:
               1          2
     1  H    0.004015  -0.994611
     2  H    0.000034   0.999093
     3  F   -0.004050   0.995518
 Sum of Mulliken charges =  -0.00000   1.00000

 Dipole moment (field-independent basis, Debye):
    X=             -0.0812    Y=              0.0000    Z=              0.0000  Tot=              0.0812
 Quadrupole moment (field-independent basis, Debye-Ang):
   XX=             -7.0235   YY=             -7.6197   ZZ=             -7.6197
   XY=              0.0000   XZ=              0.0000   YZ=              0.0000

  Exact polarizability:      13.517       0.000       2.033       0.000       0.000       2.033
 Approx polarizability:       9.960       0.000       1.937       0.000      -0.000       1.937

 ******    2 imaginary frequencies (negative Signs) ******

                      1                      2                      3
                      A                      A                      A
 Frequencies --   -157.6062               -67.1013                49.5461
 Red. masses --      1.0251                 1.0883                 1.0179
 Frc consts  --      0.0150                 0.0029                 0.0015
 IR Inten    --      2.3116                 0.3381                 0.0158

                      4
                      A
 Frequencies --     49.5461
 Red. masses --      1.0179
 Frc consts  --      0.0015
 IR Inten    --      0.0158

 - Thermochemistry -
 -------------------
 Temperature   298.150 Kelvin.  Pressure   1.00000 Atm.
 Atom     1 has atomic number  1 and mass   1.00783

 Molecular mass:    21.01405 amu.
 Principal axes and moments of inertia in atomic units:
                           1         2         3
     Eigenvalues --     0.00000 243.70533 243.70533
           X            1.00000  -0.00000   0.00000
           Y            0.00000   1.00000   0.00000
           Z            0.00000   0.00000   1.00000
 This molecule is a prolate symmetric top.
 Rotational symmetry number  1.
 Rotational temperature (Kelvin)      0.35540
 Rotational constant (GHZ):           7.405424
    2 imaginary frequencies ignored.
 Zero-point vibrational energy        592.7 (Joules/Mol)
                                    0.14166 (Kcal/Mol)
 Warning -- explicit consideration of   2 degrees of freedom as
           vibrations may cause significant error
 Vibrational temperatures:     71.29    71.29
          (Kelvin)

 Zero-point correction=                           0.000226 (Hartree/Particle)
 Thermal correction to Energy=                    0.004258
 Thermal correction to Enthalpy=                  0.005202
 Thermal correction to Gibbs Free Energy=        -0.024010
 Sum of electronic and zero-point Energies=           -100.758277
 Sum of electronic and thermal Energies=              -100.754245
 Sum of electronic and thermal Enthalpies=            -100.753301
 Sum of electronic and thermal Free Energies=         -100.782512

                     E (Thermal)             CV                S
                      KCal/Mol        Cal/Mol-Kelvin    Cal/Mol-Kelvin
 Total                    2.672              8.924             61.482
 Electronic               0.000              0.000              1.377
 Translational            0.889              2.981             35.068
 Rotational               0.592              1.987             15.365
 Vibrational              1.191              3.956              9.671
 Vibration     1          0.595              1.978              4.835
 Vibration     2          0.595              1.978              4.835

 Normal termination of Gaussian 16 at Sat Aug 23 01:11:51 2025.
