 Gaussian 16, Revision C.01,
 Gaussian 16:  ES64L-G16RevC.01  3-Jul-2019

 -----------------------------------------
 # sp b3lyp/6-311g** Force nosymm scf=(qc)
 -----------------------------------------

 -------------------
 Title Card Required
 -------------------
 Symbolic Z-matrix:
 Charge =  0 Multiplicity = 2

                          Input orientation:
 ---------------------------------------------------------------------
 Center     Atomic      Atomic             Coordinates (Angstroms)
 Number     Number       Type             X           Y           Z
 ---------------------------------------------------------------------
      1          1           0        0.000000    0.000000    0.000000
      2          1           0       -0.600000    0.000000    0.000000
      3          9           0        1.750000    0.000000    0.000000
 ---------------------------------------------------------------------

 SCF Done:  E(UB3LYP) =  -100.914216711     a.u. after    6 cycles

 Alpha  occ. eigenvalues --  -24.74110  -1.20462  -0.56233  -0.46632  -0.44886
 Alpha  occ. eigenvalues --   -0.44886
 Alpha virt. eigenvalues --    0.10757   0.19932   0.48736   0.89613   0.89613
 Alpha virt. eigenvalues --    0.95542   1.09725   1.09725   1.22536   1.68947
 Alpha virt. eigenvalues --    1.82065   1.91940   1.91940   2.47179   3.69213

  Beta  occ. eigenvalues --  -24.71127  -1.12047  -0.49022  -0.41933  -0.41933
  Beta virt. eigenvalues --   -0.24821   0.11448   0.20597   0.49944   0.90897
  Beta virt. eigenvalues --    0.90897   1.02799   1.10757   1.10757   1.26137
  Beta virt. eigenvalues --    1.70658   1.82778   1.92399   1.92399   2.48377

 Mulliken charges and spin densities:
               1          2
     1  H    0.039843  -0.027177
     2  H    0.018544   0.102354
     3  F   -0.058388   0.924823
 Sum of Mulliken charges =   0.00000   1.00000

 Dipole moment (field-independent basis, Debye):
    X=             -0.5289    Y=              0.0000    Z=             -0.0000  Tot=              0.5289
 Quadrupole moment (field-independent basis, Debye-Ang):
   XX=             -6.1792   YY=             -6.6734   ZZ=             -6.6734
   XY=              0.0000   XZ=             -0.0000   YZ=              0.0000

  Exact polarizability:      14.447       0.000       2.114       0.000      -0.000       2.114
 Approx polarizability:      16.019       0.000       2.180      -0.000      -0.000       2.180

 ******    2 imaginary frequencies (negative Signs) ******

                      1                      2                      3
                      A                      A                      A
 Frequencies --  -2845.4417             -2845.4417               290.9270
 Red. masses --      1.0099                 1.0099                 1.1085
 Frc consts  --      4.8178                 4.8178                 0.0553
 IR Inten    --      0.1748                 0.1748                36.2569

                      4
                      A
 Frequencies --   6963.3050
 Red. masses --      1.0078
 Frc consts  --     28.7918
 IR Inten    --    306.2035

 - Thermochemistry -
 -------------------
 Temperature   298.150 Kelvin.  Pressure   1.00000 Atm.
 Atom     1 has atomic number  1 and mass   1.00783

 Molecular mass:    21.01405 amu.
 Principal axes and moments of inertia in atomic units:
                           1         2         3
     Eigenvalues --     0.00000  27.99597  27.99597
           X            1.00000  -0.00000   0.00000
           Y            0.00000   1.00000   0.00000
           Z            0.00000   0.00000   1.00000
 This molecule is a prolate symmetric top.
 Rotational symmetry number  1.
 Rotational temperature (Kelvin)      3.09380
 Rotational constant (GHZ):          64.464330
    2 imaginary frequencies ignored.
 Zero-point vibrational energy      43389.9 (Joules/Mol)
                                   10.37045 (Kcal/Mol)
 Warning -- explicit consideration of   1 degrees of freedom as
           vibrations may cause significant error
 Vibrational temperatures:    418.58 10018.64
          (Kelvin)

 Zero-point correction=                           0.016526 (Hartree/Particle)
 Thermal correction to Energy=                    0.019318
 Thermal correction to Enthalpy=                  0.020263
 Thermal correction to Gibbs Free Energy=        -0.003009
 Sum of electronic and zero-point Energies=           -100.897690
 Sum of electronic and thermal Energies=              -100.894898
 Sum of electronic and thermal Enthalpies=            -100.893954
 Sum of electronic and thermal Free Energies=         -100.917226

                     E (Thermal)             CV                S
                      KCal/Mol        Cal/Mol-Kelvin    Cal/Mol-Kelvin
 Total                   12.123              6.659             48.979
 Electronic               0.000              0.000              1.377
 Translational            0.889              2.981             35.068
 Rotational               0.592              1.987             11.065
 Vibrational             10.641              1.691              1.469
 Vibration     1          0.687              1.691              1.469

 Normal termination of Gaussian 16 at Fri Aug 22 16:39:14 2025.
