 Gaussian 16, Revision C.01,
 Gaussian 16:  ES64L-G16RevC.01  3-Jul-2019

 -----------------------------------------
 # sp b3lyp/6-311g** Force nosymm scf=(qc)
 -----------------------------------------

 -------------------
 Title Card Required
 -------------------
 Symbolic Z-matrix:
 Charge =  0 Multiplicity = 2

                          Input orientation:
 ---------------------------------------------------------------------
 Center     Atomic      Atomic             Coordinates (Angstroms)
 Number     Number       Type             X           Y           Z
 ---------------------------------------------------------------------
      1          1           0        0.000000    0.000000    0.000000
      2          1           0       -2.200000    0.000000    0.000000
      3          9           0        2.000000    0.000000    0.000000
 ---------------------------------------------------------------------

 SCF Done:  E(UB3LYP) =  -100.794914173     a.u. after   14 cycles

 Alpha  occ. eigenvalues --  -24.68064  -1.14388  -0.47092  -0.39597  -0.39597
 Alpha  occ. eigenvalues --   -0.35742
 Alpha virt. eigenvalues --   -0.13797   0.24125   0.30822   0.89342   0.95009
 Alpha virt. eigenvalues --    0.95009   1.05836   1.22062   1.22062   1.27454
 Alpha virt. eigenvalues --    1.34345   1.34345   1.59413   2.11626   2.29211

  Beta  occ. eigenvalues --  -24.65689  -1.07746  -0.37531  -0.37256  -0.37256
  Beta virt. eigenvalues --   -0.21033  -0.11043   0.25676   0.33042   0.91864
  Beta virt. eigenvalues --    0.95701   0.95701   1.08751   1.22771   1.22771
  Beta virt. eigenvalues --    1.38341   1.38341   1.41849   1.53831   2.12244

 Mulliken charges and spin densities:
               1          2
     1  H    0.158369  -0.680433
     2  H    0.032467   0.933572
     3  F   -0.190836   0.746861
 Sum of Mulliken charges =  -0.00000   1.00000

 Dipole moment (field-independent basis, Debye):
    X=             -2.2335    Y=             -0.0000    Z=              0.0000  Tot=              2.2335
 Quadrupole moment (field-independent basis, Debye-Ang):
   XX=             -9.0304   YY=             -7.5392   ZZ=             -7.5392
   XY=             -0.0000   XZ=              0.0000   YZ=              0.0000

  Exact polarizability:      44.712       0.000       2.059      -0.000      -0.000       2.059
 Approx polarizability:      52.492      -0.000       1.958       0.000      -0.000       1.958

 ******    2 imaginary frequencies (negative Signs) ******

                      1                      2                      3
                      A                      A                      A
 Frequencies --  -1365.4728              -516.4386               568.8018
 Red. masses --      1.0289                 1.0841                 1.0191
 Frc consts  --      1.1303                 0.1704                 0.1943
 IR Inten    --     86.9843                30.0916                18.1882

                      4
                      A
 Frequencies --    568.8018
 Red. masses --      1.0191
 Frc consts  --      0.1943
 IR Inten    --     18.1882

 - Thermochemistry -
 -------------------
 Temperature   298.150 Kelvin.  Pressure   1.00000 Atm.
 Atom     1 has atomic number  1 and mass   1.00783

 Molecular mass:    21.01405 amu.
 Principal axes and moments of inertia in atomic units:
                           1         2         3
     Eigenvalues --     0.00000  71.24753  71.24753
           X            1.00000  -0.00000   0.00000
           Y            0.00000   1.00000   0.00000
           Z            0.00000   0.00000   1.00000
 This molecule is a prolate symmetric top.
 Rotational symmetry number  1.
 Rotational temperature (Kelvin)      1.21568
 Rotational constant (GHZ):          25.330577
    2 imaginary frequencies ignored.
 Zero-point vibrational energy       6804.4 (Joules/Mol)
                                    1.62629 (Kcal/Mol)
 Warning -- explicit consideration of   2 degrees of freedom as
           vibrations may cause significant error
 Vibrational temperatures:    818.38   818.38
          (Kelvin)

 Zero-point correction=                           0.002592 (Hartree/Particle)
 Thermal correction to Energy=                    0.005308
 Thermal correction to Enthalpy=                  0.006252
 Thermal correction to Gibbs Free Energy=        -0.017685
 Sum of electronic and zero-point Energies=           -100.792323
 Sum of electronic and thermal Energies=              -100.789606
 Sum of electronic and thermal Enthalpies=            -100.788662
 Sum of electronic and thermal Free Energies=         -100.812599

                     E (Thermal)             CV                S
                      KCal/Mol        Cal/Mol-Kelvin    Cal/Mol-Kelvin
 Total                    3.331              7.165             50.380
 Electronic               0.000              0.000              1.377
 Translational            0.889              2.981             35.068
 Rotational               0.592              1.987             12.921
 Vibrational              1.850              2.197              1.013
 Vibration     1          0.925              1.099              0.507
 Vibration     2          0.925              1.099              0.507

 Normal termination of Gaussian 16 at Fri Aug 22 16:56:40 2025.
