 Gaussian 16, Revision C.01,
 Gaussian 16:  ES64L-G16RevC.01  3-Jul-2019

 -----------------------------------------
 # sp b3lyp/6-311g** Force nosymm scf=(qc)
 -----------------------------------------

 -------------------
 Title Card Required
 -------------------
 Symbolic Z-matrix:
 Charge =  0 Multiplicity = 2

                          Input orientation:
 ---------------------------------------------------------------------
 Center     Atomic      Atomic             Coordinates (Angstroms)
 Number     Number       Type             X           Y           Z
 ---------------------------------------------------------------------
      1          1           0        0.000000    0.000000    0.000000
      2          1           0       -0.650000    0.000000    0.000000
      3          9           0        3.600000    0.000000    0.000000
 ---------------------------------------------------------------------

 SCF Done:  E(UB3LYP) =  -100.926657896     a.u. after  452 cycles

 Alpha  occ. eigenvalues --  -24.76299  -1.22163  -0.55364  -0.46566  -0.46518
 Alpha  occ. eigenvalues --   -0.45338
 Alpha virt. eigenvalues --    0.07607   0.19188   0.49911   0.86037   0.90913
 Alpha virt. eigenvalues --    0.92737   1.01856   1.09505   1.09508   1.59375
 Alpha virt. eigenvalues --    1.84728   1.89305   1.89308   2.37506   3.64861

  Beta  occ. eigenvalues --  -24.73142  -1.13084  -0.45370  -0.43368  -0.43353
  Beta virt. eigenvalues --   -0.26005   0.07624   0.19197   0.49970   0.92413
  Beta virt. eigenvalues --    0.94256   0.95501   1.05901   1.09505   1.09508
  Beta virt. eigenvalues --    1.59381   1.84749   1.89305   1.89308   2.37507

 Mulliken charges and spin densities:
               1          2
     1  H   -0.001835  -0.000456
     2  H   -0.001731   0.000051
     3  F    0.003566   1.000405
 Sum of Mulliken charges =   0.00000   1.00000

 Dipole moment (field-independent basis, Debye):
    X=              0.0419    Y=              0.0000    Z=              0.0000  Tot=              0.0419
 Quadrupole moment (field-independent basis, Debye-Ang):
   XX=             -6.1819   YY=             -5.9477   ZZ=             -6.8118
   XY=              0.0000   XZ=              0.0000   YZ=              0.0071

  Exact polarizability:       6.988       0.000       2.364       0.000       0.004       1.899
 Approx polarizability:       7.740       0.000       2.562       0.000       0.005       1.980

 ******    3 imaginary frequencies (negative Signs) ******

                      1                      2                      3
                      A                      A                      A
 Frequencies --  -1954.9887             -1954.4214               -47.0566
 Red. masses --      1.0085                 1.0085                 1.1085
 Frc consts  --      2.2710                 2.2697                 0.0014
 IR Inten    --      0.0021                 0.0017                 0.1165

                      4
                      A
 Frequencies --   5975.9383
 Red. masses --      1.0078
 Frc consts  --     21.2055
 IR Inten    --      0.0427

 - Thermochemistry -
 -------------------
 Temperature   298.150 Kelvin.  Pressure   1.00000 Atm.
 Atom     1 has atomic number  1 and mass   1.00783

 Molecular mass:    21.01405 amu.
 Principal axes and moments of inertia in atomic units:
                           1         2         3
     Eigenvalues --     0.00000 101.01377 101.01377
           X            1.00000  -0.00000   0.00000
           Y            0.00000   1.00000   0.00000
           Z            0.00000   0.00000   1.00000
 This molecule is a prolate symmetric top.
 Rotational symmetry number  1.
 Rotational temperature (Kelvin)      0.85745
 Rotational constant (GHZ):          17.866288
    3 imaginary frequencies ignored.
 Zero-point vibrational energy      35744.0 (Joules/Mol)
                                    8.54303 (Kcal/Mol)
 Vibrational temperatures:   8598.04
          (Kelvin)

 Zero-point correction=                           0.013614 (Hartree/Particle)
 Thermal correction to Energy=                    0.015975
 Thermal correction to Enthalpy=                  0.016919
 Thermal correction to Gibbs Free Energy=        -0.006867
 Sum of electronic and zero-point Energies=           -100.913044
 Sum of electronic and thermal Energies=              -100.910683
 Sum of electronic and thermal Enthalpies=            -100.909739
 Sum of electronic and thermal Free Energies=         -100.933524

                     E (Thermal)             CV                S
                      KCal/Mol        Cal/Mol-Kelvin    Cal/Mol-Kelvin
 Total                   10.024              4.968             50.061
 Electronic               0.000              0.000              1.377
 Translational            0.889              2.981             35.068
 Rotational               0.592              1.987             13.615
 Vibrational              8.543              0.000              0.000

 Normal termination of Gaussian 16 at Fri Aug 22 22:45:12 2025.
