 Gaussian 16, Revision C.01,
 Gaussian 16:  ES64L-G16RevC.01  3-Jul-2019

 -----------------------------------------
 # sp b3lyp/6-311g** Force nosymm scf=(qc)
 -----------------------------------------

 -------------------
 Title Card Required
 -------------------
 Symbolic Z-matrix:
 Charge =  0 Multiplicity = 2

                          Input orientation:
 ---------------------------------------------------------------------
 Center     Atomic      Atomic             Coordinates (Angstroms)
 Number     Number       Type             X           Y           Z
 ---------------------------------------------------------------------
      1          1           0        0.000000    0.000000    0.000000
      2          1           0       -3.050000    0.000000    0.000000
      3          9           0        3.500000    0.000000    0.000000
 ---------------------------------------------------------------------

 SCF Done:  E(UB3LYP) =  -100.759855784     a.u. after   33 cycles

 Alpha  occ. eigenvalues --  -24.75400  -1.21362  -0.54523  -0.45778  -0.45778
 Alpha  occ. eigenvalues --   -0.32432
 Alpha virt. eigenvalues --   -0.07930   0.24872   0.36068   0.87611   0.91472
 Alpha virt. eigenvalues --    0.91472   1.01811   1.25099   1.25099   1.25730
 Alpha virt. eigenvalues --    1.43983   1.44039   1.44039   2.15657   2.39703

  Beta  occ. eigenvalues --  -24.72286  -1.12413  -0.42657  -0.42657  -0.32868
  Beta virt. eigenvalues --   -0.25494  -0.07385   0.24652   0.36924   0.92961
  Beta virt. eigenvalues --    0.92961   0.96757   1.05830   1.24595   1.24595
  Beta virt. eigenvalues --    1.25188   1.44820   1.44910   1.44910   2.15958

 Mulliken charges and spin densities:
               1          2
     1  H    0.010744  -0.980862
     2  H    0.000583   0.993384
     3  F   -0.011327   0.987479
 Sum of Mulliken charges =  -0.00000   1.00000

 Dipole moment (field-independent basis, Debye):
    X=             -0.2124    Y=             -0.0000    Z=              0.0000  Tot=              0.2124
 Quadrupole moment (field-independent basis, Debye-Ang):
   XX=             -7.3250   YY=             -7.6325   ZZ=             -7.6325
   XY=              0.0000   XZ=             -0.0000   YZ=             -0.0000

  Exact polarizability:      25.856       0.000       2.031      -0.000      -0.000       2.031
 Approx polarizability:      20.144       0.000       1.932      -0.000       0.000       1.932

 ******    2 imaginary frequencies (negative Signs) ******

                      1                      2                      3
                      A                      A                      A
 Frequencies --   -342.4534              -129.0150               117.0485
 Red. masses --      1.0118                 1.1038                 1.0164
 Frc consts  --      0.0699                 0.0108                 0.0082
 IR Inten    --      7.8170                 3.8444                 0.0959

                      4
                      A
 Frequencies --    117.0485
 Red. masses --      1.0164
 Frc consts  --      0.0082
 IR Inten    --      0.0959

 - Thermochemistry -
 -------------------
 Temperature   298.150 Kelvin.  Pressure   1.00000 Atm.
 Atom     1 has atomic number  1 and mass   1.00783

 Molecular mass:    21.01405 amu.
 Principal axes and moments of inertia in atomic units:
                           1         2         3
     Eigenvalues --     0.00000 181.06059 181.06059
           X            1.00000  -0.00000   0.00000
           Y            0.00000   1.00000   0.00000
           Z            0.00000   0.00000   1.00000
 This molecule is a prolate symmetric top.
 Rotational symmetry number  1.
 Rotational temperature (Kelvin)      0.47837
 Rotational constant (GHZ):           9.967609
    2 imaginary frequencies ignored.
 Zero-point vibrational energy       1400.2 (Joules/Mol)
                                    0.33466 (Kcal/Mol)
 Warning -- explicit consideration of   2 degrees of freedom as
           vibrations may cause significant error
 Vibrational temperatures:    168.41   168.41
          (Kelvin)

 Zero-point correction=                           0.000533 (Hartree/Particle)
 Thermal correction to Energy=                    0.004299
 Thermal correction to Enthalpy=                  0.005243
 Thermal correction to Gibbs Free Energy=        -0.022085
 Sum of electronic and zero-point Energies=           -100.759322
 Sum of electronic and thermal Energies=              -100.755557
 Sum of electronic and thermal Enthalpies=            -100.754613
 Sum of electronic and thermal Free Energies=         -100.781941

                     E (Thermal)             CV                S
                      KCal/Mol        Cal/Mol-Kelvin    Cal/Mol-Kelvin
 Total                    2.698              8.838             57.517
 Electronic               0.000              0.000              1.377
 Translational            0.889              2.981             35.068
 Rotational               0.592              1.987             14.775
 Vibrational              1.216              3.870              6.297
 Vibration     1          0.608              1.935              3.149
 Vibration     2          0.608              1.935              3.149

 Normal termination of Gaussian 16 at Fri Aug 22 22:10:40 2025.
