 Gaussian 16, Revision C.01,
 Gaussian 16:  ES64L-G16RevC.01  3-Jul-2019

 -----------------------------------------
 # sp b3lyp/6-311g** Force nosymm scf=(qc)
 -----------------------------------------

 -------------------
 Title Card Required
 -------------------
 Symbolic Z-matrix:
 Charge =  0 Multiplicity = 2

                          Input orientation:
 ---------------------------------------------------------------------
 Center     Atomic      Atomic             Coordinates (Angstroms)
 Number     Number       Type             X           Y           Z
 ---------------------------------------------------------------------
      1          1           0        0.000000    0.000000    0.000000
      2          1           0       -3.100000    0.000000    0.000000
      3          9           0        2.250000    0.000000    0.000000
 ---------------------------------------------------------------------

 SCF Done:  E(UB3LYP) =  -100.773877328     a.u. after   20 cycles

 Alpha  occ. eigenvalues --  -24.67247  -1.08708  -0.38537  -0.38537  -0.36668
 Alpha  occ. eigenvalues --   -0.33153
 Alpha virt. eigenvalues --   -0.22099   0.21331   0.27889   0.92515   0.95656
 Alpha virt. eigenvalues --    0.95656   1.08492   1.21542   1.21542   1.24126
 Alpha virt. eigenvalues --    1.24126   1.24524   1.39689   2.12524   2.14776

  Beta  occ. eigenvalues --  -24.69903  -1.16214  -0.48969  -0.41173  -0.41173
  Beta virt. eigenvalues --   -0.12495  -0.04627   0.32290   0.39802   0.88990
  Beta virt. eigenvalues --    0.94507   0.94507   1.06545   1.38077   1.38077
  Beta virt. eigenvalues --    1.47703   1.47703   1.47787   1.50664   2.33868

 Mulliken charges and spin densities:
               1          2
     1  H    0.134392   0.840179
     2  H    0.003214   0.996852
     3  F   -0.137606  -0.837031
 Sum of Mulliken charges =   0.00000   1.00000

 Dipole moment (field-independent basis, Debye):
    X=             -1.6036    Y=             -0.0000    Z=             -0.0000  Tot=              1.6036
 Quadrupole moment (field-independent basis, Debye-Ang):
   XX=             -9.7869   YY=             -7.5217   ZZ=             -7.5217
   XY=             -0.0000   XZ=             -0.0000   YZ=              0.0000

  Exact polarizability:      32.823      -0.000       2.037      -0.000       0.000       2.037
 Approx polarizability:      44.226      -0.000       1.928      -0.000      -0.000       1.928

 ******    1 imaginary frequencies (negative Signs) ******

                      1                      2                      3
                      A                      A                      A
 Frequencies --   -790.5378               128.0609               326.6814
 Red. masses --      1.0619                 1.0497                 1.0223
 Frc consts  --      0.3910                 0.0101                 0.0643
 IR Inten    --     80.6965                 1.2201                16.5871

                      4
                      A
 Frequencies --    326.6814
 Red. masses --      1.0223
 Frc consts  --      0.0643
 IR Inten    --     16.5871

 - Thermochemistry -
 -------------------
 Temperature   298.150 Kelvin.  Pressure   1.00000 Atm.
 Atom     1 has atomic number  1 and mass   1.00783

 Molecular mass:    21.01405 amu.
 Principal axes and moments of inertia in atomic units:
                           1         2         3
     Eigenvalues --     0.00000 111.26283 111.26283
           X            1.00000  -0.00000   0.00000
           Y            0.00000   1.00000   0.00000
           Z            0.00000   0.00000   1.00000
 This molecule is a prolate symmetric top.
 Rotational symmetry number  1.
 Rotational temperature (Kelvin)      0.77846
 Rotational constant (GHZ):          16.220523
    1 imaginary frequencies ignored.
 Zero-point vibrational energy       4674.0 (Joules/Mol)
                                    1.11710 (Kcal/Mol)
 Warning -- explicit consideration of   3 degrees of freedom as
           vibrations may cause significant error
 Vibrational temperatures:    184.25   470.02   470.02
          (Kelvin)

 Zero-point correction=                           0.001780 (Hartree/Particle)
 Thermal correction to Energy=                    0.005599
 Thermal correction to Enthalpy=                  0.006543
 Thermal correction to Gibbs Free Energy=        -0.019960
 Sum of electronic and zero-point Energies=           -100.772097
 Sum of electronic and thermal Energies=              -100.768279
 Sum of electronic and thermal Enthalpies=            -100.767334
 Sum of electronic and thermal Free Energies=         -100.793838

                     E (Thermal)             CV                S
                      KCal/Mol        Cal/Mol-Kelvin    Cal/Mol-Kelvin
 Total                    3.513             10.137             55.780
 Electronic               0.000              0.000              1.377
 Translational            0.889              2.981             35.068
 Rotational               0.592              1.987             13.807
 Vibrational              2.032              5.169              5.528
 Vibration     1          0.611              1.925              2.975
 Vibration     2          0.710              1.622              1.276
 Vibration     3          0.710              1.622              1.276

 Normal termination of Gaussian 16 at Fri Aug 22 17:17:26 2025.
