 Gaussian 16, Revision C.01,
 Gaussian 16:  ES64L-G16RevC.01  3-Jul-2019

 -----------------------------------------
 # sp b3lyp/6-311g** Force nosymm scf=(qc)
 -----------------------------------------

 -------------------
 Title Card Required
 -------------------
 Symbolic Z-matrix:
 Charge =  0 Multiplicity = 2

                          Input orientation:
 ---------------------------------------------------------------------
 Center     Atomic      Atomic             Coordinates (Angstroms)
 Number     Number       Type             X           Y           Z
 ---------------------------------------------------------------------
      1          1           0        0.000000    0.000000    0.000000
      2          1           0       -2.900000    0.000000    0.000000
      3          9           0        3.950000    0.000000    0.000000
 ---------------------------------------------------------------------

 SCF Done:  E(UB3LYP) =  -100.759862641     a.u. after   36 cycles

 Alpha  occ. eigenvalues --  -24.75868  -1.21796  -0.54993  -0.46174  -0.46174
 Alpha  occ. eigenvalues --   -0.32370
 Alpha virt. eigenvalues --   -0.07948   0.25228   0.36189   0.86618   0.91176
 Alpha virt. eigenvalues --    0.91176   1.01108   1.25178   1.25178   1.26075
 Alpha virt. eigenvalues --    1.44001   1.44001   1.44122   2.15934   2.39169

  Beta  occ. eigenvalues --  -24.72724  -1.12755  -0.43021  -0.43021  -0.32547
  Beta virt. eigenvalues --   -0.25729  -0.07727   0.25071   0.36477   0.92675
  Beta virt. eigenvalues --    0.92675   0.95989   1.05233   1.24986   1.24986
  Beta virt. eigenvalues --    1.25864   1.44328   1.44328   1.44450   2.15972

 Mulliken charges and spin densities:
               1          2
     1  H    0.002390  -0.986937
     2  H    0.000350   0.990016
     3  F   -0.002739   0.996920
 Sum of Mulliken charges =   0.00000   1.00000

 Dipole moment (field-independent basis, Debye):
    X=             -0.0608    Y=             -0.0000    Z=             -0.0000  Tot=              0.0608
 Quadrupole moment (field-independent basis, Debye-Ang):
   XX=             -6.8408   YY=             -7.6407   ZZ=             -7.6407
   XY=             -0.0000   XZ=              0.0000   YZ=              0.0000

  Exact polarizability:      14.978      -0.000       2.028       0.000       0.000       2.028
 Approx polarizability:      11.247      -0.000       1.934       0.000      -0.000       1.934

 ******    2 imaginary frequencies (negative Signs) ******

                      1                      2                      3
                      A                      A                      A
 Frequencies --   -381.3909               -77.0586               136.2845
 Red. masses --      1.0080                 1.1083                 1.0146
 Frc consts  --      0.0864                 0.0039                 0.0111
 IR Inten    --      0.7391                 0.7344                 0.0048

                      4
                      A
 Frequencies --    136.2845
 Red. masses --      1.0146
 Frc consts  --      0.0111
 IR Inten    --      0.0048

 - Thermochemistry -
 -------------------
 Temperature   298.150 Kelvin.  Pressure   1.00000 Atm.
 Atom     1 has atomic number  1 and mass   1.00783

 Molecular mass:    21.01405 amu.
 Principal axes and moments of inertia in atomic units:
                           1         2         3
     Eigenvalues --     0.00000 204.89514 204.89514
           X            1.00000  -0.00000   0.00000
           Y            0.00000   1.00000   0.00000
           Z            0.00000   0.00000   1.00000
 This molecule is a prolate symmetric top.
 Rotational symmetry number  1.
 Rotational temperature (Kelvin)      0.42272
 Rotational constant (GHZ):           8.808121
    2 imaginary frequencies ignored.
 Zero-point vibrational energy       1630.3 (Joules/Mol)
                                    0.38966 (Kcal/Mol)
 Warning -- explicit consideration of   2 degrees of freedom as
           vibrations may cause significant error
 Vibrational temperatures:    196.08   196.08
          (Kelvin)

 Zero-point correction=                           0.000621 (Hartree/Particle)
 Thermal correction to Energy=                    0.004316
 Thermal correction to Enthalpy=                  0.005261
 Thermal correction to Gibbs Free Energy=        -0.021906
 Sum of electronic and zero-point Energies=           -100.759242
 Sum of electronic and thermal Energies=              -100.755546
 Sum of electronic and thermal Enthalpies=            -100.754602
 Sum of electronic and thermal Free Energies=         -100.781769

                     E (Thermal)             CV                S
                      KCal/Mol        Cal/Mol-Kelvin    Cal/Mol-Kelvin
 Total                    2.709              8.802             57.177
 Electronic               0.000              0.000              1.377
 Translational            0.889              2.981             35.068
 Rotational               0.592              1.987             15.021
 Vibrational              1.227              3.834              5.711
 Vibration     1          0.614              1.917              2.855
 Vibration     2          0.614              1.917              2.855

 Normal termination of Gaussian 16 at Sat Aug 23 01:40:30 2025.
