 Gaussian 16, Revision C.01,
 Gaussian 16:  ES64L-G16RevC.01  3-Jul-2019

 -----------------------------------------
 # sp b3lyp/6-311g** Force nosymm scf=(qc)
 -----------------------------------------

 -------------------
 Title Card Required
 -------------------
 Symbolic Z-matrix:
 Charge =  0 Multiplicity = 2

                          Input orientation:
 ---------------------------------------------------------------------
 Center     Atomic      Atomic             Coordinates (Angstroms)
 Number     Number       Type             X           Y           Z
 ---------------------------------------------------------------------
      1          1           0        0.000000    0.000000    0.000000
      2          1           0       -2.950000    0.000000    0.000000
      3          9           0        3.250000    0.000000    0.000000
 ---------------------------------------------------------------------

 SCF Done:  E(UB3LYP) =  -100.760815012     a.u. after   26 cycles

 Alpha  occ. eigenvalues --  -24.74879  -1.20879  -0.54000  -0.45340  -0.45340
 Alpha  occ. eigenvalues --   -0.32577
 Alpha virt. eigenvalues --   -0.08583   0.24918   0.35316   0.88510   0.91794
 Alpha virt. eigenvalues --    0.91794   1.02660   1.24966   1.24966   1.25818
 Alpha virt. eigenvalues --    1.43070   1.43070   1.43241   2.15681   2.39234

  Beta  occ. eigenvalues --  -24.71799  -1.12037  -0.42254  -0.42254  -0.33245
  Beta virt. eigenvalues --   -0.25220  -0.07694   0.24750   0.36562   0.93272
  Beta virt. eigenvalues --    0.93272   0.97483   1.06587   1.24181   1.24181
  Beta virt. eigenvalues --    1.24975   1.44492   1.44492   1.44525   2.16211

 Mulliken charges and spin densities:
               1          2
     1  H    0.020077  -0.968012
     2  H    0.001208   0.991493
     3  F   -0.021285   0.976519
 Sum of Mulliken charges =  -0.00000   1.00000

 Dipole moment (field-independent basis, Debye):
    X=             -0.3725    Y=             -0.0000    Z=             -0.0000  Tot=              0.3725
 Quadrupole moment (field-independent basis, Debye-Ang):
   XX=             -7.7042   YY=             -7.6323   ZZ=             -7.6323
   XY=             -0.0000   XZ=             -0.0000   YZ=             -0.0000

  Exact polarizability:      32.556      -0.000       2.025      -0.000      -0.000       2.025
 Approx polarizability:      27.937      -0.000       1.928      -0.000       0.000       1.928

 ******    2 imaginary frequencies (negative Signs) ******

                      1                      2                      3
                      A                      A                      A
 Frequencies --   -408.5781              -165.4621               145.9706
 Red. masses --      1.0149                 1.1001                 1.0168
 Frc consts  --      0.0998                 0.0177                 0.0128
 IR Inten    --     17.5499                 6.6678                 0.3460

                      4
                      A
 Frequencies --    145.9706
 Red. masses --      1.0168
 Frc consts  --      0.0128
 IR Inten    --      0.3460

 - Thermochemistry -
 -------------------
 Temperature   298.150 Kelvin.  Pressure   1.00000 Atm.
 Atom     1 has atomic number  1 and mass   1.00783

 Molecular mass:    21.01405 amu.
 Principal axes and moments of inertia in atomic units:
                           1         2         3
     Eigenvalues --     0.00000 160.94619 160.94619
           X            1.00000  -0.00000   0.00000
           Y            0.00000   1.00000   0.00000
           Z            0.00000   0.00000   1.00000
 This molecule is a prolate symmetric top.
 Rotational symmetry number  1.
 Rotational temperature (Kelvin)      0.53815
 Rotational constant (GHZ):          11.213321
    2 imaginary frequencies ignored.
 Zero-point vibrational energy       1746.2 (Joules/Mol)
                                    0.41735 (Kcal/Mol)
 Warning -- explicit consideration of   2 degrees of freedom as
           vibrations may cause significant error
 Vibrational temperatures:    210.02   210.02
          (Kelvin)

 Zero-point correction=                           0.000665 (Hartree/Particle)
 Thermal correction to Energy=                    0.004326
 Thermal correction to Enthalpy=                  0.005270
 Thermal correction to Gibbs Free Energy=        -0.021543
 Sum of electronic and zero-point Energies=           -100.760150
 Sum of electronic and thermal Energies=              -100.756489
 Sum of electronic and thermal Enthalpies=            -100.755545
 Sum of electronic and thermal Free Energies=         -100.782358

                     E (Thermal)             CV                S
                      KCal/Mol        Cal/Mol-Kelvin    Cal/Mol-Kelvin
 Total                    2.715              8.782             56.434
 Electronic               0.000              0.000              1.377
 Translational            0.889              2.981             35.068
 Rotational               0.592              1.987             14.541
 Vibrational              1.234              3.814              5.448
 Vibration     1          0.617              1.907              2.724
 Vibration     2          0.617              1.907              2.724

 Normal termination of Gaussian 16 at Fri Aug 22 20:35:35 2025.
