 Gaussian 16, Revision C.01,
 Gaussian 16:  ES64L-G16RevC.01  3-Jul-2019

 -----------------------------------------
 # sp b3lyp/6-311g** Force nosymm scf=(qc)
 -----------------------------------------

 -------------------
 Title Card Required
 -------------------
 Symbolic Z-matrix:
 Charge =  0 Multiplicity = 2

                          Input orientation:
 ---------------------------------------------------------------------
 Center     Atomic      Atomic             Coordinates (Angstroms)
 Number     Number       Type             X           Y           Z
 ---------------------------------------------------------------------
      1          1           0        0.000000    0.000000    0.000000
      2          1           0       -2.400000    0.000000    0.000000
      3          9           0        3.650000    0.000000    0.000000
 ---------------------------------------------------------------------

 SCF Done:  E(UB3LYP) =  -100.763981324     a.u. after   26 cycles

 Alpha  occ. eigenvalues --  -24.75669  -1.21612  -0.54793  -0.46007  -0.46007
 Alpha  occ. eigenvalues --   -0.32674
 Alpha virt. eigenvalues --   -0.09716   0.25825   0.34176   0.87168   0.91299
 Alpha virt. eigenvalues --    0.91299   1.01444   1.25027   1.25027   1.26259
 Alpha virt. eigenvalues --    1.40857   1.40857   1.43354   2.15434   2.36127

  Beta  occ. eigenvalues --  -24.72539  -1.12614  -0.42869  -0.42869  -0.32873
  Beta virt. eigenvalues --   -0.25644  -0.09381   0.25643   0.34675   0.92793
  Beta virt. eigenvalues --    0.92793   0.96428   1.05526   1.24794   1.24794
  Beta virt. eigenvalues --    1.25997   1.41358   1.41358   1.43835   2.15800

 Mulliken charges and spin densities:
               1          2
     1  H    0.004505  -0.951823
     2  H    0.002131   0.959347
     3  F   -0.006636   0.992476
 Sum of Mulliken charges =  -0.00000   1.00000

 Dipole moment (field-independent basis, Debye):
    X=             -0.1487    Y=             -0.0000    Z=              0.0000  Tot=              0.1487
 Quadrupole moment (field-independent basis, Debye-Ang):
   XX=             -6.8658   YY=             -7.6760   ZZ=             -7.6760
   XY=              0.0000   XZ=              0.0000   YZ=             -0.0000

  Exact polarizability:      30.331      -0.000       2.013      -0.000      -0.000       2.013
 Approx polarizability:      22.720       0.000       1.930       0.000      -0.000       1.930

 ******    2 imaginary frequencies (negative Signs) ******

                      1                      2                      3
                      A                      A                      A
 Frequencies --   -766.8811              -115.6286               286.9088
 Red. masses --      1.0079                 1.1084                 1.0137
 Frc consts  --      0.3492                 0.0087                 0.0492
 IR Inten    --      3.2731                 3.5342                 0.0132

                      4
                      A
 Frequencies --    286.9088
 Red. masses --      1.0137
 Frc consts  --      0.0492
 IR Inten    --      0.0132

 - Thermochemistry -
 -------------------
 Temperature   298.150 Kelvin.  Pressure   1.00000 Atm.
 Atom     1 has atomic number  1 and mass   1.00783

 Molecular mass:    21.01405 amu.
 Principal axes and moments of inertia in atomic units:
                           1         2         3
     Eigenvalues --     0.00000 163.43992 163.43992
           X            1.00000  -0.00000   0.00000
           Y            0.00000   1.00000   0.00000
           Z            0.00000   0.00000   1.00000
 This molecule is a prolate symmetric top.
 Rotational symmetry number  1.
 Rotational temperature (Kelvin)      0.52994
 Rotational constant (GHZ):          11.042230
    2 imaginary frequencies ignored.
 Zero-point vibrational energy       3432.2 (Joules/Mol)
                                    0.82031 (Kcal/Mol)
 Warning -- explicit consideration of   2 degrees of freedom as
           vibrations may cause significant error
 Vibrational temperatures:    412.80   412.80
          (Kelvin)

 Zero-point correction=                           0.001307 (Hartree/Particle)
 Thermal correction to Energy=                    0.004541
 Thermal correction to Enthalpy=                  0.005485
 Thermal correction to Gibbs Free Energy=        -0.020172
 Sum of electronic and zero-point Energies=           -100.762674
 Sum of electronic and thermal Energies=              -100.759440
 Sum of electronic and thermal Enthalpies=            -100.758496
 Sum of electronic and thermal Free Energies=         -100.784153

                     E (Thermal)             CV                S
                      KCal/Mol        Cal/Mol-Kelvin    Cal/Mol-Kelvin
 Total                    2.850              8.364             54.001
 Electronic               0.000              0.000              1.377
 Translational            0.889              2.981             35.068
 Rotational               0.592              1.987             14.571
 Vibrational              1.368              3.396              2.984
 Vibration     1          0.684              1.698              1.492
 Vibration     2          0.684              1.698              1.492

 Normal termination of Gaussian 16 at Fri Aug 22 23:36:23 2025.
