 Gaussian 16, Revision C.01,
 Gaussian 16:  ES64L-G16RevC.01  3-Jul-2019

 -----------------------------------------
 # sp b3lyp/6-311g** Force nosymm scf=(qc)
 -----------------------------------------

 -------------------
 Title Card Required
 -------------------
 Symbolic Z-matrix:
 Charge =  0 Multiplicity = 2

                          Input orientation:
 ---------------------------------------------------------------------
 Center     Atomic      Atomic             Coordinates (Angstroms)
 Number     Number       Type             X           Y           Z
 ---------------------------------------------------------------------
      1          1           0        0.000000    0.000000    0.000000
      2          1           0       -1.700000    0.000000    0.000000
      3          9           0        2.500000    0.000000    0.000000
 ---------------------------------------------------------------------

 SCF Done:  E(UB3LYP) =  -100.800875500     a.u. after   20 cycles

 Alpha  occ. eigenvalues --  -24.72478  -1.18644  -0.51620  -0.43327  -0.43327
 Alpha  occ. eigenvalues --   -0.35463
 Alpha virt. eigenvalues --   -0.12179   0.24254   0.31062   0.89142   0.93172
 Alpha virt. eigenvalues --    0.93172   1.03342   1.14284   1.21363   1.21363
 Alpha virt. eigenvalues --    1.35860   1.35860   1.65347   2.14521   2.40633

  Beta  occ. eigenvalues --  -24.69590  -1.10408  -0.40445  -0.40445  -0.35178
  Beta virt. eigenvalues --   -0.24194  -0.11499   0.26014   0.30621   0.94557
  Beta virt. eigenvalues --    0.94557   0.95415   1.06204   1.17836   1.21893
  Beta virt. eigenvalues --    1.21893   1.36545   1.36545   1.65998   2.15499

 Mulliken charges and spin densities:
               1          2
     1  H    0.035653  -0.575786
     2  H    0.038252   0.662883
     3  F   -0.073905   0.912903
 Sum of Mulliken charges =   0.00000   1.00000

 Dipole moment (field-independent basis, Debye):
    X=             -1.2506    Y=              0.0000    Z=              0.0000  Tot=              1.2506
 Quadrupole moment (field-independent basis, Debye-Ang):
   XX=             -7.5023   YY=             -7.6848   ZZ=             -7.6848
   XY=             -0.0000   XZ=             -0.0000   YZ=             -0.0000

  Exact polarizability:      62.633      -0.000       2.023      -0.000       0.000       2.023
 Approx polarizability:      78.653       0.000       1.972       0.000       0.000       1.972

 ******    2 imaginary frequencies (negative Signs) ******

                      1                      2                      3
                      A                      A                      A
 Frequencies --  -1919.8047              -364.0349               873.7857
 Red. masses --      1.0084                 1.1078                 1.0139
 Frc consts  --      2.1898                 0.0865                 0.4561
 IR Inten    --    250.8907                47.0730                 0.2856

                      4
                      A
 Frequencies --    873.7857
 Red. masses --      1.0139
 Frc consts  --      0.4561
 IR Inten    --      0.2856

 - Thermochemistry -
 -------------------
 Temperature   298.150 Kelvin.  Pressure   1.00000 Atm.
 Atom     1 has atomic number  1 and mass   1.00783

 Molecular mass:    21.01405 amu.
 Principal axes and moments of inertia in atomic units:
                           1         2         3
     Eigenvalues --     0.00000  78.23199  78.23199
           X            1.00000  -0.00000   0.00000
           Y            0.00000   1.00000   0.00000
           Z            0.00000   0.00000   1.00000
 This molecule is a prolate symmetric top.
 Rotational symmetry number  1.
 Rotational temperature (Kelvin)      1.10714
 Rotational constant (GHZ):          23.069095
    2 imaginary frequencies ignored.
 Zero-point vibrational energy      10452.8 (Joules/Mol)
                                    2.49828 (Kcal/Mol)
 Vibrational temperatures:   1257.18  1257.18
          (Kelvin)

 Zero-point correction=                           0.003981 (Hartree/Particle)
 Thermal correction to Energy=                    0.006461
 Thermal correction to Enthalpy=                  0.007405
 Thermal correction to Gibbs Free Energy=        -0.016286
 Sum of electronic and zero-point Energies=           -100.796894
 Sum of electronic and thermal Energies=              -100.794415
 Sum of electronic and thermal Enthalpies=            -100.793470
 Sum of electronic and thermal Free Energies=         -100.817162

                     E (Thermal)             CV                S
                      KCal/Mol        Cal/Mol-Kelvin    Cal/Mol-Kelvin
 Total                    4.054              6.042             49.863
 Electronic               0.000              0.000              1.377
 Translational            0.889              2.981             35.068
 Rotational               0.592              1.987             13.107
 Vibrational              2.573              1.074              0.310

 Normal termination of Gaussian 16 at Fri Aug 22 17:44:27 2025.
