 Gaussian 16, Revision C.01,
 Gaussian 16:  ES64L-G16RevC.01  3-Jul-2019

 -----------------------------------------
 # sp b3lyp/6-311g** Force nosymm scf=(qc)
 -----------------------------------------

 -------------------
 Title Card Required
 -------------------
 Symbolic Z-matrix:
 Charge =  0 Multiplicity = 2

                          Input orientation:
 ---------------------------------------------------------------------
 Center     Atomic      Atomic             Coordinates (Angstroms)
 Number     Number       Type             X           Y           Z
 ---------------------------------------------------------------------
      1          1           0        0.000000    0.000000    0.000000
      2          1           0       -0.950000    0.000000    0.000000
      3          9           0        1.100000    0.000000    0.000000
 ---------------------------------------------------------------------

 SCF Done:  E(UB3LYP) =  -100.953921923     a.u. after    7 cycles

 Alpha  occ. eigenvalues --  -24.65636  -1.16284  -0.57519  -0.39522  -0.39522
 Alpha  occ. eigenvalues --   -0.37168
 Alpha virt. eigenvalues --    0.10907   0.18848   0.41846   0.89275   0.89275
 Alpha virt. eigenvalues --    0.97650   1.08066   1.08066   1.40626   1.63812
 Alpha virt. eigenvalues --    1.64756   1.64756   2.23179   2.28006   2.84092

  Beta  occ. eigenvalues --  -24.64314  -1.12927  -0.50683  -0.38314  -0.38314
  Beta virt. eigenvalues --   -0.19951   0.13094   0.20943   0.46807   0.90807
  Beta virt. eigenvalues --    0.90807   1.00463   1.13029   1.13029   1.43998
  Beta virt. eigenvalues --    1.68726   1.68726   1.70162   2.22192   2.39848

 Mulliken charges and spin densities:
               1          2
     1  H    0.273116  -0.038859
     2  H    0.020237   0.677009
     3  F   -0.293353   0.361849
 Sum of Mulliken charges =   0.00000   1.00000

 Dipole moment (field-independent basis, Debye):
    X=             -1.9834    Y=              0.0000    Z=             -0.0000  Tot=              1.9834
 Quadrupole moment (field-independent basis, Debye-Ang):
   XX=             -7.6197   YY=             -6.7271   ZZ=             -6.7271
   XY=              0.0000   XZ=             -0.0000   YZ=             -0.0000

  Exact polarizability:      17.500      -0.000       2.547       0.000       0.000       2.547
 Approx polarizability:      22.230      -0.000       2.567       0.000       0.000       2.567

 ******    1 imaginary frequencies (negative Signs) ******

                      1                      2                      3
                      A                      A                      A
 Frequencies --   -961.8617               470.9600               470.9600
 Red. masses --      1.0353                 1.0163                 1.0163
 Frc consts  --      0.5644                 0.1328                 0.1328
 IR Inten    --    102.0932                35.2492                35.2492

                      4
                      A
 Frequencies --   1583.9573
 Red. masses --      1.0770
 Frc consts  --      1.5921
 IR Inten    --     94.5696

 - Thermochemistry -
 -------------------
 Temperature   298.150 Kelvin.  Pressure   1.00000 Atm.
 Atom     1 has atomic number  1 and mass   1.00783

 Molecular mass:    21.01405 amu.
 Principal axes and moments of inertia in atomic units:
                           1         2         3
     Eigenvalues --     0.00000  17.76694  17.76694
           X            1.00000  -0.00000   0.00000
           Y            0.00000   1.00000   0.00000
           Z            0.00000   0.00000   1.00000
 This molecule is a prolate symmetric top.
 Rotational symmetry number  1.
 Rotational temperature (Kelvin)      4.87500
 Rotational constant (GHZ):         101.578608
    1 imaginary frequencies ignored.
 Zero-point vibrational energy      15108.1 (Joules/Mol)
                                    3.61092 (Kcal/Mol)
 Warning -- explicit consideration of   2 degrees of freedom as
           vibrations may cause significant error
 Vibrational temperatures:    677.61   677.61  2278.96
          (Kelvin)

 Zero-point correction=                           0.005754 (Hartree/Particle)
 Thermal correction to Energy=                    0.008611
 Thermal correction to Enthalpy=                  0.009555
 Thermal correction to Gibbs Free Energy=        -0.013291
 Sum of electronic and zero-point Energies=           -100.948168
 Sum of electronic and thermal Energies=              -100.945311
 Sum of electronic and thermal Enthalpies=            -100.944366
 Sum of electronic and thermal Free Energies=         -100.967213

                     E (Thermal)             CV                S
                      KCal/Mol        Cal/Mol-Kelvin    Cal/Mol-Kelvin
 Total                    5.404              7.653             48.085
 Electronic               0.000              0.000              1.377
 Translational            0.889              2.981             35.068
 Rotational               0.592              1.987             10.162
 Vibrational              3.922              2.685              1.478
 Vibration     1          0.828              1.314              0.735
 Vibration     2          0.828              1.314              0.735

 Normal termination of Gaussian 16 at Fri Aug 22 16:04:36 2025.
