 Gaussian 16, Revision C.01,
 Gaussian 16:  ES64L-G16RevC.01  3-Jul-2019

 -----------------------------------------
 # sp b3lyp/6-311g** Force nosymm scf=(qc)
 -----------------------------------------

 -------------------
 Title Card Required
 -------------------
 Symbolic Z-matrix:
 Charge =  0 Multiplicity = 2

                          Input orientation:
 ---------------------------------------------------------------------
 Center     Atomic      Atomic             Coordinates (Angstroms)
 Number     Number       Type             X           Y           Z
 ---------------------------------------------------------------------
      1          1           0        0.000000    0.000000    0.000000
      2          1           0       -1.800000    0.000000    0.000000
      3          9           0        3.900000    0.000000    0.000000
 ---------------------------------------------------------------------

 SCF Done:  E(UB3LYP) =  -100.786025880     a.u. after   34 cycles

 Alpha  occ. eigenvalues --  -24.76171  -1.22075  -0.55279  -0.46450  -0.46436
 Alpha  occ. eigenvalues --   -0.32920
 Alpha virt. eigenvalues --   -0.10671   0.25954   0.31577   0.86082   0.90960
 Alpha virt. eigenvalues --    0.91339   1.00916   1.10148   1.24716   1.24717
 Alpha virt. eigenvalues --    1.37829   1.37832   1.61462   2.15046   2.39397

  Beta  occ. eigenvalues --  -24.73016  -1.13003  -0.43290  -0.43274  -0.32906
  Beta virt. eigenvalues --   -0.25931  -0.10710   0.25943   0.31596   0.92461
  Beta virt. eigenvalues --    0.92808   0.95550   1.05054   1.10138   1.24718
  Beta virt. eigenvalues --    1.24720   1.37812   1.37813   1.61468   2.15186

 Mulliken charges and spin densities:
               1          2
     1  H    0.000694  -0.721150
     2  H   -0.001465   0.721161
     3  F    0.000771   0.999988
 Sum of Mulliken charges =   0.00000   1.00000

 Dipole moment (field-independent basis, Debye):
    X=              0.0216    Y=             -0.0000    Z=             -0.0000  Tot=              0.0216
 Quadrupole moment (field-independent basis, Debye-Ang):
   XX=             -6.7536   YY=             -7.7452   ZZ=             -6.9082
   XY=              0.0000   XZ=             -0.0000   YZ=             -0.1085

  Exact polarizability:      23.494      -0.000       2.021      -0.000      -0.058       2.471
 Approx polarizability:      33.479       0.000       1.971      -0.000      -0.073       2.535

 ******    2 imaginary frequencies (negative Signs) ******

                      1                      2                      3
                      A                      A                      A
 Frequencies --  -1727.3078               -51.8436               774.7763
 Red. masses --      1.0078                 1.1085                 1.0113
 Frc consts  --      1.7716                 0.0018                 0.3577
 IR Inten    --      0.0048                 0.0371                 0.0012

                      4
                      A
 Frequencies --    775.2366
 Red. masses --      1.0113
 Frc consts  --      0.3581
 IR Inten    --      0.0007

 - Thermochemistry -
 -------------------
 Temperature   298.150 Kelvin.  Pressure   1.00000 Atm.
 Atom     1 has atomic number  1 and mass   1.00783

 Molecular mass:    21.01405 amu.
 Principal axes and moments of inertia in atomic units:
                           1         2         3
     Eigenvalues --     0.00000 155.76525 155.76525
           X            1.00000  -0.00000   0.00000
           Y            0.00000   1.00000   0.00000
           Z            0.00000   0.00000   1.00000
 This molecule is a prolate symmetric top.
 Rotational symmetry number  1.
 Rotational temperature (Kelvin)      0.55605
 Rotational constant (GHZ):          11.586289
    2 imaginary frequencies ignored.
 Zero-point vibrational energy       9271.1 (Joules/Mol)
                                    2.21585 (Kcal/Mol)
 Vibrational temperatures:   1114.73  1115.39
          (Kelvin)

 Zero-point correction=                           0.003531 (Hartree/Particle)
 Thermal correction to Energy=                    0.006064
 Thermal correction to Enthalpy=                  0.007008
 Thermal correction to Gibbs Free Energy=        -0.017404
 Sum of electronic and zero-point Energies=           -100.782495
 Sum of electronic and thermal Energies=              -100.779962
 Sum of electronic and thermal Enthalpies=            -100.779018
 Sum of electronic and thermal Free Energies=         -100.803430

                     E (Thermal)             CV                S
                      KCal/Mol        Cal/Mol-Kelvin    Cal/Mol-Kelvin
 Total                    3.805              6.354             51.378
 Electronic               0.000              0.000              1.377
 Translational            0.889              2.981             35.068
 Rotational               0.592              1.987             14.476
 Vibrational              2.324              1.386              0.457

 Normal termination of Gaussian 16 at Sat Aug 23 01:20:12 2025.
