 Gaussian 16, Revision C.01,
 Gaussian 16:  ES64L-G16RevC.01  3-Jul-2019

 -----------------------------------------
 # sp b3lyp/6-311g** Force nosymm scf=(qc)
 -----------------------------------------

 -------------------
 Title Card Required
 -------------------
 Symbolic Z-matrix:
 Charge =  0 Multiplicity = 2

                          Input orientation:
 ---------------------------------------------------------------------
 Center     Atomic      Atomic             Coordinates (Angstroms)
 Number     Number       Type             X           Y           Z
 ---------------------------------------------------------------------
      1          1           0        0.000000    0.000000    0.000000
      2          1           0       -1.800000    0.000000    0.000000
      3          9           0        3.400000    0.000000    0.000000
 ---------------------------------------------------------------------

 SCF Done:  E(UB3LYP) =  -100.786408548     a.u. after   33 cycles

 Alpha  occ. eigenvalues --  -24.75570  -1.21522  -0.54695  -0.45930  -0.45930
 Alpha  occ. eigenvalues --   -0.33422
 Alpha virt. eigenvalues --   -0.11232   0.25629   0.30931   0.87933   0.91341
 Alpha virt. eigenvalues --    0.91341   1.01966   1.09593   1.24189   1.24189
 Alpha virt. eigenvalues --    1.37199   1.37199   1.61010   2.14553   2.39481

  Beta  occ. eigenvalues --  -24.72454  -1.12564  -0.42806  -0.42806  -0.33414
  Beta virt. eigenvalues --   -0.25668  -0.11051   0.25616   0.31307   0.92830
  Beta virt. eigenvalues --    0.92830   0.97049   1.05997   1.09658   1.24199
  Beta virt. eigenvalues --    1.24199   1.37404   1.37404   1.61211   2.15135

 Mulliken charges and spin densities:
               1          2
     1  H    0.001031  -0.715118
     2  H    0.008839   0.726910
     3  F   -0.009870   0.988208
 Sum of Mulliken charges =  -0.00000   1.00000

 Dipole moment (field-independent basis, Debye):
    X=             -0.2466    Y=             -0.0000    Z=              0.0000  Tot=              0.2466
 Quadrupole moment (field-independent basis, Debye-Ang):
   XX=             -6.3635   YY=             -7.7520   ZZ=             -7.7520
   XY=             -0.0000   XZ=              0.0000   YZ=              0.0000

  Exact polarizability:      47.181       0.000       2.003      -0.000       0.000       2.003
 Approx polarizability:      48.642      -0.000       1.958       0.000      -0.000       1.958

 ******    2 imaginary frequencies (negative Signs) ******

                      1                      2                      3
                      A                      A                      A
 Frequencies --  -1732.9122              -140.8154               767.4559
 Red. masses --      1.0078                 1.1085                 1.0121
 Frc consts  --      1.7832                 0.0130                 0.3512
 IR Inten    --     23.1629                 8.4784                 0.0052

                      4
                      A
 Frequencies --    767.4559
 Red. masses --      1.0121
 Frc consts  --      0.3512
 IR Inten    --      0.0052

 - Thermochemistry -
 -------------------
 Temperature   298.150 Kelvin.  Pressure   1.00000 Atm.
 Atom     1 has atomic number  1 and mass   1.00783

 Molecular mass:    21.01405 amu.
 Principal axes and moments of inertia in atomic units:
                           1         2         3
     Eigenvalues --     0.00000 126.15572 126.15572
           X            1.00000  -0.00000   0.00000
           Y            0.00000   1.00000   0.00000
           Z            0.00000   0.00000   1.00000
 This molecule is a prolate symmetric top.
 Rotational symmetry number  1.
 Rotational temperature (Kelvin)      0.68656
 Rotational constant (GHZ):          14.305663
    2 imaginary frequencies ignored.
 Zero-point vibrational energy       9180.8 (Joules/Mol)
                                    2.19427 (Kcal/Mol)
 Vibrational temperatures:   1104.20  1104.20
          (Kelvin)

 Zero-point correction=                           0.003497 (Hartree/Particle)
 Thermal correction to Energy=                    0.006034
 Thermal correction to Enthalpy=                  0.006978
 Thermal correction to Gibbs Free Energy=        -0.017241
 Sum of electronic and zero-point Energies=           -100.782912
 Sum of electronic and thermal Energies=              -100.780375
 Sum of electronic and thermal Enthalpies=            -100.779430
 Sum of electronic and thermal Free Energies=         -100.803649

                     E (Thermal)             CV                S
                      KCal/Mol        Cal/Mol-Kelvin    Cal/Mol-Kelvin
 Total                    3.786              6.380             50.973
 Electronic               0.000              0.000              1.377
 Translational            0.889              2.981             35.068
 Rotational               0.592              1.987             14.057
 Vibrational              2.305              1.412              0.471

 Normal termination of Gaussian 16 at Fri Aug 22 21:16:19 2025.
