 Gaussian 16, Revision C.01,
 Gaussian 16:  ES64L-G16RevC.01  3-Jul-2019

 -----------------------------------------
 # sp b3lyp/6-311g** Force nosymm scf=(qc)
 -----------------------------------------

 -------------------
 Title Card Required
 -------------------
 Symbolic Z-matrix:
 Charge =  0 Multiplicity = 2

                          Input orientation:
 ---------------------------------------------------------------------
 Center     Atomic      Atomic             Coordinates (Angstroms)
 Number     Number       Type             X           Y           Z
 ---------------------------------------------------------------------
      1          1           0        0.000000    0.000000    0.000000
      2          1           0       -1.600000    0.000000    0.000000
      3          9           0        1.050000    0.000000    0.000000
 ---------------------------------------------------------------------

 SCF Done:  E(UB3LYP) =  -100.960304805     a.u. after    6 cycles

 Alpha  occ. eigenvalues --  -24.63505  -1.14473  -0.51460  -0.37873  -0.37873
 Alpha  occ. eigenvalues --   -0.37152
 Alpha virt. eigenvalues --    0.05246   0.21597   0.32277   0.94156   0.94156
 Alpha virt. eigenvalues --    0.99536   1.13072   1.17253   1.17253   1.39327
 Alpha virt. eigenvalues --    1.39327   1.52544   1.92496   2.33358   2.34248

  Beta  occ. eigenvalues --  -24.63244  -1.13822  -0.49792  -0.37641  -0.37641
  Beta virt. eigenvalues --   -0.15850   0.07978   0.27410   0.35493   0.94265
  Beta virt. eigenvalues --    0.94265   1.00146   1.21997   1.28776   1.28776
  Beta virt. eigenvalues --    1.44223   1.44223   1.55647   2.02577   2.33767

 Mulliken charges and spin densities:
               1          2
     1  H    0.302397  -0.004340
     2  H    0.034960   0.932818
     3  F   -0.337358   0.071522
 Sum of Mulliken charges =   0.00000   1.00000

 Dipole moment (field-independent basis, Debye):
    X=             -2.4031    Y=              0.0000    Z=             -0.0000  Tot=              2.4031
 Quadrupole moment (field-independent basis, Debye-Ang):
   XX=             -7.7500   YY=             -6.8975   ZZ=             -6.8975
   XY=              0.0000   XZ=             -0.0000   YZ=              0.0000

  Exact polarizability:      13.825       0.000       2.486      -0.000      -0.000       2.486
 Approx polarizability:      15.497       0.000       2.473      -0.000      -0.000       2.473

 ******    1 imaginary frequencies (negative Signs) ******

                      1                      2                      3
                      A                      A                      A
 Frequencies --   -205.3856              1024.1698              1024.1698
 Red. masses --      1.0433                 1.0238                 1.0238
 Frc consts  --      0.0259                 0.6327                 0.6327
 IR Inten    --      4.5468               100.6402               100.6402

                      4
                      A
 Frequencies --   2204.9341
 Red. masses --      1.0685
 Frc consts  --      3.0608
 IR Inten    --    210.7741

 - Thermochemistry -
 -------------------
 Temperature   298.150 Kelvin.  Pressure   1.00000 Atm.
 Atom     1 has atomic number  1 and mass   1.00783

 Molecular mass:    21.01405 amu.
 Principal axes and moments of inertia in atomic units:
                           1         2         3
     Eigenvalues --     0.00000  26.87896  26.87896
           X            1.00000  -0.00000   0.00000
           Y            0.00000   1.00000   0.00000
           Z            0.00000   0.00000   1.00000
 This molecule is a prolate symmetric top.
 Rotational symmetry number  1.
 Rotational temperature (Kelvin)      3.22237
 Rotational constant (GHZ):          67.143278
    1 imaginary frequencies ignored.
 Zero-point vibrational energy      25440.2 (Joules/Mol)
                                    6.08036 (Kcal/Mol)
 Vibrational temperatures:   1473.55  1473.55  3172.41
          (Kelvin)

 Zero-point correction=                           0.009690 (Hartree/Particle)
 Thermal correction to Energy=                    0.012117
 Thermal correction to Enthalpy=                  0.013062
 Thermal correction to Gibbs Free Energy=        -0.009555
 Sum of electronic and zero-point Energies=           -100.950615
 Sum of electronic and thermal Energies=              -100.948187
 Sum of electronic and thermal Enthalpies=            -100.947243
 Sum of electronic and thermal Free Energies=         -100.969859

                     E (Thermal)             CV                S
                      KCal/Mol        Cal/Mol-Kelvin    Cal/Mol-Kelvin
 Total                    7.604              5.676             47.600
 Electronic               0.000              0.000              1.377
 Translational            0.889              2.981             35.068
 Rotational               0.592              1.987             10.984
 Vibrational              6.123              0.708              0.170

 Normal termination of Gaussian 16 at Fri Aug 22 16:02:39 2025.
