 Gaussian 16, Revision C.01,
 Gaussian 16:  ES64L-G16RevC.01  3-Jul-2019

 -----------------------------------------
 # sp b3lyp/6-311g** Force nosymm scf=(qc)
 -----------------------------------------

 -------------------
 Title Card Required
 -------------------
 Symbolic Z-matrix:
 Charge =  0 Multiplicity = 2

                          Input orientation:
 ---------------------------------------------------------------------
 Center     Atomic      Atomic             Coordinates (Angstroms)
 Number     Number       Type             X           Y           Z
 ---------------------------------------------------------------------
      1          1           0        0.000000    0.000000    0.000000
      2          1           0       -1.500000    0.000000    0.000000
      3          9           0        2.400000    0.000000    0.000000
 ---------------------------------------------------------------------

 SCF Done:  E(UB3LYP) =  -100.825073298     a.u. after   19 cycles

 Alpha  occ. eigenvalues --  -24.72830  -1.18988  -0.52041  -0.43644  -0.43644
 Alpha  occ. eigenvalues --   -0.36250
 Alpha virt. eigenvalues --   -0.10685   0.23498   0.31317   0.88185   0.92859
 Alpha virt. eigenvalues --    0.92859   1.03471   1.16415   1.17813   1.17813
 Alpha virt. eigenvalues --    1.39609   1.39609   1.79825   2.19895   2.46077

  Beta  occ. eigenvalues --  -24.69931  -1.10723  -0.40752  -0.40752  -0.35728
  Beta virt. eigenvalues --   -0.24674  -0.09810   0.24748   0.31343   0.94233
  Beta virt. eigenvalues --    0.94233   0.94365   1.06430   1.18594   1.18594
  Beta virt. eigenvalues --    1.20092   1.40191   1.40191   1.80618   2.20948

 Mulliken charges and spin densities:
               1          2
     1  H    0.027032  -0.322960
     2  H    0.042793   0.407486
     3  F   -0.069825   0.915474
 Sum of Mulliken charges =  -0.00000   1.00000

 Dipole moment (field-independent basis, Debye):
    X=             -1.1520    Y=             -0.0000    Z=             -0.0000  Tot=              1.1520
 Quadrupole moment (field-independent basis, Debye-Ang):
   XX=             -7.0448   YY=             -7.6458   ZZ=             -7.6458
   XY=             -0.0000   XZ=             -0.0000   YZ=             -0.0000

  Exact polarizability:      57.850      -0.000       2.060      -0.000      -0.000       2.060
 Approx polarizability:      82.290       0.000       2.034       0.000       0.000       2.034

 ******    2 imaginary frequencies (negative Signs) ******

                      1                      2                      3
                      A                      A                      A
 Frequencies --  -2051.5651              -334.4789              1131.8806
 Red. masses --      1.0088                 1.1073                 1.0133
 Frc consts  --      2.5017                 0.0730                 0.7648
 IR Inten    --    699.3583                31.5694                 0.0387

                      4
                      A
 Frequencies --   1131.8806
 Red. masses --      1.0133
 Frc consts  --      0.7648
 IR Inten    --      0.0387

 - Thermochemistry -
 -------------------
 Temperature   298.150 Kelvin.  Pressure   1.00000 Atm.
 Atom     1 has atomic number  1 and mass   1.00783

 Molecular mass:    21.01405 amu.
 Principal axes and moments of inertia in atomic units:
                           1         2         3
     Eigenvalues --     0.00000  68.62044  68.62044
           X            1.00000  -0.00000   0.00000
           Y            0.00000   1.00000   0.00000
           Z            0.00000   0.00000   1.00000
 This molecule is a prolate symmetric top.
 Rotational symmetry number  1.
 Rotational temperature (Kelvin)      1.26222
 Rotational constant (GHZ):          26.300344
    2 imaginary frequencies ignored.
 Zero-point vibrational energy      13540.3 (Joules/Mol)
                                    3.23621 (Kcal/Mol)
 Vibrational temperatures:   1628.52  1628.52
          (Kelvin)

 Zero-point correction=                           0.005157 (Hartree/Particle)
 Thermal correction to Energy=                    0.007562
 Thermal correction to Enthalpy=                  0.008506
 Thermal correction to Gibbs Free Energy=        -0.014966
 Sum of electronic and zero-point Energies=           -100.819916
 Sum of electronic and thermal Energies=              -100.817512
 Sum of electronic and thermal Enthalpies=            -100.816567
 Sum of electronic and thermal Free Energies=         -100.840040

                     E (Thermal)             CV                S
                      KCal/Mol        Cal/Mol-Kelvin    Cal/Mol-Kelvin
 Total                    4.745              5.476             49.402
 Electronic               0.000              0.000              1.377
 Translational            0.889              2.981             35.068
 Rotational               0.592              1.987             12.847
 Vibrational              3.264              0.508              0.109

 Normal termination of Gaussian 16 at Fri Aug 22 17:31:39 2025.
