 Gaussian 16, Revision C.01,
 Gaussian 16:  ES64L-G16RevC.01  3-Jul-2019

 -----------------------------------------
 # sp b3lyp/6-311g** Force nosymm scf=(qc)
 -----------------------------------------

 -------------------
 Title Card Required
 -------------------
 Symbolic Z-matrix:
 Charge =  0 Multiplicity = 2

                          Input orientation:
 ---------------------------------------------------------------------
 Center     Atomic      Atomic             Coordinates (Angstroms)
 Number     Number       Type             X           Y           Z
 ---------------------------------------------------------------------
      1          1           0        0.000000    0.000000    0.000000
      2          1           0       -2.800000    0.000000    0.000000
      3          9           0        1.300000    0.000000    0.000000
 ---------------------------------------------------------------------

 SCF Done:  E(UB3LYP) =  -100.901661442     a.u. after    7 cycles

 Alpha  occ. eigenvalues --  -24.64251  -1.11031  -0.46021  -0.36969  -0.36969
 Alpha  occ. eigenvalues --   -0.34831
 Alpha virt. eigenvalues --   -0.08549   0.23089   0.27723   0.93107   0.93107
 Alpha virt. eigenvalues --    1.02124   1.21122   1.22697   1.22697   1.25014
 Alpha virt. eigenvalues --    1.33937   1.33937   1.71516   2.13821   2.25417

  Beta  occ. eigenvalues --  -24.64217  -1.10943  -0.45901  -0.36937  -0.36937
  Beta virt. eigenvalues --   -0.11437  -0.05343   0.26257   0.37040   0.93101
  Beta virt. eigenvalues --    0.93101   1.02210   1.22578   1.33844   1.33844
  Beta virt. eigenvalues --    1.44615   1.44633   1.44633   1.71769   2.25270

 Mulliken charges and spin densities:
               1          2
     1  H    0.353596  -0.002737
     2  H    0.006900   0.991989
     3  F   -0.360496   0.010748
 Sum of Mulliken charges =   0.00000   1.00000

 Dipole moment (field-independent basis, Debye):
    X=             -2.4884    Y=              0.0000    Z=              0.0000  Tot=              2.4884
 Quadrupole moment (field-independent basis, Debye-Ang):
   XX=             -8.9708   YY=             -7.1996   ZZ=             -7.1996
   XY=              0.0000   XZ=              0.0000   YZ=              0.0000

  Exact polarizability:      13.623       0.000       2.290       0.000       0.000       2.290
 Approx polarizability:      19.520      -0.000       2.237      -0.000      -0.000       2.237

 ******    2 imaginary frequencies (negative Signs) ******

                      1                      2                      3
                      A                      A                      A
 Frequencies --   -664.1914              -130.9617              1145.5531
 Red. masses --      1.0482                 1.0634                 1.0293
 Frc consts  --      0.2725                 0.0107                 0.7958
 IR Inten    --     92.4662                 0.0718               127.1671

                      4
                      A
 Frequencies --   1145.5531
 Red. masses --      1.0293
 Frc consts  --      0.7958
 IR Inten    --    127.1671

 - Thermochemistry -
 -------------------
 Temperature   298.150 Kelvin.  Pressure   1.00000 Atm.
 Atom     1 has atomic number  1 and mass   1.00783

 Molecular mass:    21.01405 amu.
 Principal axes and moments of inertia in atomic units:
                           1         2         3
     Eigenvalues --     0.00000  61.54844  61.54844
           X            1.00000  -0.00000   0.00000
           Y            0.00000   1.00000   0.00000
           Z            0.00000   0.00000   1.00000
 This molecule is a prolate symmetric top.
 Rotational symmetry number  1.
 Rotational temperature (Kelvin)      1.40725
 Rotational constant (GHZ):          29.322290
    2 imaginary frequencies ignored.
 Zero-point vibrational energy      13703.9 (Joules/Mol)
                                    3.27530 (Kcal/Mol)
 Vibrational temperatures:   1648.20  1648.20
          (Kelvin)

 Zero-point correction=                           0.005220 (Hartree/Particle)
 Thermal correction to Energy=                    0.007622
 Thermal correction to Enthalpy=                  0.008566
 Thermal correction to Gibbs Free Energy=        -0.014801
 Sum of electronic and zero-point Energies=           -100.896442
 Sum of electronic and thermal Energies=              -100.894040
 Sum of electronic and thermal Enthalpies=            -100.893096
 Sum of electronic and thermal Free Energies=         -100.916462

                     E (Thermal)             CV                S
                      KCal/Mol        Cal/Mol-Kelvin    Cal/Mol-Kelvin
 Total                    4.783              5.454             49.180
 Electronic               0.000              0.000              1.377
 Translational            0.889              2.981             35.068
 Rotational               0.592              1.987             12.631
 Vibrational              3.301              0.486              0.103

 Normal termination of Gaussian 16 at Fri Aug 22 16:15:36 2025.
