 Gaussian 16, Revision C.01,
 Gaussian 16:  ES64L-G16RevC.01  3-Jul-2019

 -----------------------------------------
 # sp b3lyp/6-311g** Force nosymm scf=(qc)
 -----------------------------------------

 -------------------
 Title Card Required
 -------------------
 Symbolic Z-matrix:
 Charge =  0 Multiplicity = 2

                          Input orientation:
 ---------------------------------------------------------------------
 Center     Atomic      Atomic             Coordinates (Angstroms)
 Number     Number       Type             X           Y           Z
 ---------------------------------------------------------------------
      1          1           0        0.000000    0.000000    0.000000
      2          1           0       -3.300000    0.000000    0.000000
      3          9           0        0.600000    0.000000    0.000000
 ---------------------------------------------------------------------

 SCF Done:  E(UB3LYP) =  -100.687943741     a.u. after    6 cycles

 Alpha  occ. eigenvalues --  -24.62727  -1.34723  -0.61023  -0.42976  -0.42976
 Alpha  occ. eigenvalues --   -0.33471
 Alpha virt. eigenvalues --    0.07465   0.25265   0.58049   0.92127   0.92127
 Alpha virt. eigenvalues --    0.93150   1.23538   1.24043   1.24043   1.35195
 Alpha virt. eigenvalues --    1.50270   1.50270   1.95535   2.15014   3.36537

  Beta  occ. eigenvalues --  -24.62727  -1.34721  -0.61022  -0.42975  -0.42975
  Beta virt. eigenvalues --   -0.05436   0.08128   0.39495   0.58126   0.92126
  Beta virt. eigenvalues --    0.92126   0.93147   1.33803   1.50272   1.50272
  Beta virt. eigenvalues --    1.50588   1.50588   1.51716   1.95492   2.44987

 Mulliken charges and spin densities:
               1          2
     1  H    0.237487   0.000731
     2  H    0.001075   0.998662
     3  F   -0.238562   0.000607
 Sum of Mulliken charges =   0.00000   1.00000

 Dipole moment (field-independent basis, Debye):
    X=             -1.4461    Y=              0.0000    Z=              0.0000  Tot=              1.4461
 Quadrupole moment (field-independent basis, Debye-Ang):
   XX=             -6.9435   YY=             -6.5519   ZZ=             -6.5519
   XY=              0.0000   XZ=              0.0000   YZ=             -0.0000

  Exact polarizability:       3.624      -0.000       2.441       0.000       0.000       2.441
 Approx polarizability:       3.830      -0.000       2.421      -0.000       0.000       2.421

 ******    3 imaginary frequencies (negative Signs) ******

                      1                      2                      3
                      A                      A                      A
 Frequencies --  -5878.5277             -5878.5277               -34.0121
 Red. masses --      1.0432                 1.0432                 1.0532
 Frc consts  --     21.2393                21.2393                 0.0007
 IR Inten    --    238.7487               238.7487                 0.0409

                      4
                      A
 Frequencies --  13070.6685
 Red. masses --      1.0583
 Frc consts  --    106.5269
 IR Inten    --     98.9688

 - Thermochemistry -
 -------------------
 Temperature   298.150 Kelvin.  Pressure   1.00000 Atm.
 Atom     1 has atomic number  1 and mass   1.00783

 Molecular mass:    21.01405 amu.
 Principal axes and moments of inertia in atomic units:
                           1         2         3
     Eigenvalues --     0.00000  52.54127  52.54127
           X            1.00000  -0.00000   0.00000
           Y            0.00000   1.00000   0.00000
           Z            0.00000   0.00000   1.00000
 This molecule is a prolate symmetric top.
 Rotational symmetry number  1.
 Rotational temperature (Kelvin)      1.64849
 Rotational constant (GHZ):          34.349019
    3 imaginary frequencies ignored.
 Zero-point vibrational energy      78180.0 (Joules/Mol)
                                   18.68546 (Kcal/Mol)
 Vibrational temperatures:  18805.78
          (Kelvin)

 Zero-point correction=                           0.029777 (Hartree/Particle)
 Thermal correction to Energy=                    0.032138
 Thermal correction to Enthalpy=                  0.033082
 Thermal correction to Gibbs Free Energy=         0.009914
 Sum of electronic and zero-point Energies=           -100.658167
 Sum of electronic and thermal Energies=              -100.655806
 Sum of electronic and thermal Enthalpies=            -100.654862
 Sum of electronic and thermal Free Energies=         -100.678030

                     E (Thermal)             CV                S
                      KCal/Mol        Cal/Mol-Kelvin    Cal/Mol-Kelvin
 Total                   20.167              4.968             48.762
 Electronic               0.000              0.000              1.377
 Translational            0.889              2.981             35.068
 Rotational               0.592              1.987             12.316
 Vibrational             18.685              0.000              0.000

 Normal termination of Gaussian 16 at Fri Aug 22 15:42:33 2025.
