 Gaussian 16, Revision C.01,
 Gaussian 16:  ES64L-G16RevC.01  3-Jul-2019

 -----------------------------------------
 # sp b3lyp/6-311g** Force nosymm scf=(qc)
 -----------------------------------------

 -------------------
 Title Card Required
 -------------------
 Symbolic Z-matrix:
 Charge =  0 Multiplicity = 2

                          Input orientation:
 ---------------------------------------------------------------------
 Center     Atomic      Atomic             Coordinates (Angstroms)
 Number     Number       Type             X           Y           Z
 ---------------------------------------------------------------------
      1          1           0        0.000000    0.000000    0.000000
      2          1           0       -1.350000    0.000000    0.000000
      3          9           0        0.950000    0.000000    0.000000
 ---------------------------------------------------------------------

 SCF Done:  E(UB3LYP) =  -100.969164122     a.u. after    6 cycles

 Alpha  occ. eigenvalues --  -24.63662  -1.17444  -0.54772  -0.38942  -0.38942
 Alpha  occ. eigenvalues --   -0.36969
 Alpha virt. eigenvalues --    0.10664   0.20216   0.38396   0.93671   0.93671
 Alpha virt. eigenvalues --    0.98181   1.12750   1.12750   1.26895   1.46239
 Alpha virt. eigenvalues --    1.46239   1.54561   2.10150   2.27202   2.65577

  Beta  occ. eigenvalues --  -24.63297  -1.16525  -0.52324  -0.38623  -0.38623
  Beta virt. eigenvalues --   -0.16297   0.12685   0.25374   0.42835   0.94106
  Beta virt. eigenvalues --    0.94106   0.98941   1.22057   1.22057   1.34121
  Beta virt. eigenvalues --    1.51746   1.51746   1.58584   2.21508   2.32214

 Mulliken charges and spin densities:
               1          2
     1  H    0.281116  -0.001433
     2  H    0.030577   0.909814
     3  F   -0.311693   0.091619
 Sum of Mulliken charges =   0.00000   1.00000

 Dipole moment (field-independent basis, Debye):
    X=             -2.1552    Y=              0.0000    Z=              0.0000  Tot=              2.1552
 Quadrupole moment (field-independent basis, Debye-Ang):
   XX=             -7.5770   YY=             -6.7601   ZZ=             -6.7601
   XY=              0.0000   XZ=              0.0000   YZ=             -0.0000

  Exact polarizability:      12.369       0.000       2.550      -0.000      -0.000       2.550
 Approx polarizability:      13.339       0.000       2.556      -0.000      -0.000       2.556

                      1                      2                      3
                      A                      A                      A
 Frequencies --    334.4764               334.4764               649.7252
 Red. masses --      1.0227                 1.0227                 1.0482
 Frc consts  --      0.0674                 0.0674                 0.2607
 IR Inten    --     96.2931                96.2931                 3.1238

                      4
                      A
 Frequencies --   3415.7345
 Red. masses --      1.0634
 Frc consts  --      7.3102
 IR Inten    --    160.9985

 - Thermochemistry -
 -------------------
 Temperature   298.150 Kelvin.  Pressure   1.00000 Atm.
 Atom     1 has atomic number  1 and mass   1.00783

 Molecular mass:    21.01405 amu.
 Principal axes and moments of inertia in atomic units:
                           1         2         3
     Eigenvalues --     0.00000  20.46370  20.46370
           X            1.00000  -0.00000   0.00000
           Y            0.00000   1.00000   0.00000
           Z            0.00000   0.00000   1.00000
 This molecule is a prolate symmetric top.
 Rotational symmetry number  1.
 Rotational temperature (Kelvin)      4.23256
 Rotational constant (GHZ):          88.192322
 Zero-point vibrational energy      28318.1 (Joules/Mol)
                                    6.76818 (Kcal/Mol)
 Warning -- explicit consideration of   2 degrees of freedom as
           vibrations may cause significant error
 Vibrational temperatures:    481.24   481.24   934.81  4914.48
          (Kelvin)

 Zero-point correction=                           0.010786 (Hartree/Particle)
 Thermal correction to Energy=                    0.014038
 Thermal correction to Enthalpy=                  0.014983
 Thermal correction to Gibbs Free Energy=        -0.008649
 Sum of electronic and zero-point Energies=           -100.958378
 Sum of electronic and thermal Energies=              -100.955126
 Sum of electronic and thermal Enthalpies=            -100.954182
 Sum of electronic and thermal Free Energies=         -100.977813

                     E (Thermal)             CV                S
                      KCal/Mol        Cal/Mol-Kelvin    Cal/Mol-Kelvin
 Total                    8.809              9.110             49.736
 Electronic               0.000              0.000              1.377
 Translational            0.889              2.981             35.068
 Rotational               0.592              1.987             10.442
 Vibrational              7.328              4.142              2.848
 Vibration     1          0.716              1.607              1.238
 Vibration     2          0.716              1.607              1.238

 Normal termination of Gaussian 16 at Fri Aug 22 15:57:42 2025.
