 Gaussian 16, Revision C.01,
 Gaussian 16:  ES64L-G16RevC.01  3-Jul-2019

 -----------------------------------------
 # sp b3lyp/6-311g** Force nosymm scf=(qc)
 -----------------------------------------

 -------------------
 Title Card Required
 -------------------
 Symbolic Z-matrix:
 Charge =  0 Multiplicity = 2

                          Input orientation:
 ---------------------------------------------------------------------
 Center     Atomic      Atomic             Coordinates (Angstroms)
 Number     Number       Type             X           Y           Z
 ---------------------------------------------------------------------
      1          1           0        0.000000    0.000000    0.000000
      2          1           0       -3.900000    0.000000    0.000000
      3          9           0        1.650000    0.000000    0.000000
 ---------------------------------------------------------------------

 SCF Done:  E(UB3LYP) =  -100.824965540     a.u. after   14 cycles

 Alpha  occ. eigenvalues --  -24.64122  -1.07918  -0.40802  -0.36038  -0.36038
 Alpha  occ. eigenvalues --   -0.33570
 Alpha virt. eigenvalues --   -0.17779   0.19642   0.26482   0.94045   0.94045
 Alpha virt. eigenvalues --    0.98825   1.07313   1.23899   1.23931   1.23931
 Alpha virt. eigenvalues --    1.26320   1.26320   1.70690   2.11090   2.15442

  Beta  occ. eigenvalues --  -24.65313  -1.11142  -0.43831  -0.37188  -0.37188
  Beta virt. eigenvalues --   -0.15504  -0.05497   0.24718   0.38789   0.94372
  Beta virt. eigenvalues --    0.94372   0.98255   1.06377   1.32588   1.32588
  Beta virt. eigenvalues --    1.46538   1.46788   1.46788   1.73784   2.21618

 Mulliken charges and spin densities:
               1          2
     1  H    0.312642   0.376563
     2  H    0.000672   0.999335
     3  F   -0.313315  -0.375899
 Sum of Mulliken charges =   0.00000   1.00000

 Dipole moment (field-independent basis, Debye):
    X=             -2.5335    Y=             -0.0000    Z=              0.0000  Tot=              2.5335
 Quadrupole moment (field-independent basis, Debye-Ang):
   XX=            -10.2727   YY=             -7.3857   ZZ=             -7.3857
   XY=             -0.0000   XZ=              0.0000   YZ=              0.0000

  Exact polarizability:      19.801       0.000       2.133      -0.000       0.000       2.133
 Approx polarizability:      34.519       0.000       2.038       0.000      -0.000       2.038

 ******    2 imaginary frequencies (negative Signs) ******

                      1                      2                      3
                      A                      A                      A
 Frequencies --  -1827.8589               -30.0388               845.7528
 Red. masses --      1.0584                 1.0531                 1.0308
 Frc consts  --      2.0835                 0.0006                 0.4344
 IR Inten    --     99.2935                 0.0743                93.2957

                      4
                      A
 Frequencies --    845.7528
 Red. masses --      1.0308
 Frc consts  --      0.4344
 IR Inten    --     93.2957

 - Thermochemistry -
 -------------------
 Temperature   298.150 Kelvin.  Pressure   1.00000 Atm.
 Atom     1 has atomic number  1 and mass   1.00783

 Molecular mass:    21.01405 amu.
 Principal axes and moments of inertia in atomic units:
                           1         2         3
     Eigenvalues --     0.00000 111.70882 111.70882
           X            1.00000  -0.00000   0.00000
           Y            0.00000   1.00000   0.00000
           Z            0.00000   0.00000   1.00000
 This molecule is a prolate symmetric top.
 Rotational symmetry number  1.
 Rotational temperature (Kelvin)      0.77535
 Rotational constant (GHZ):          16.155763
    2 imaginary frequencies ignored.
 Zero-point vibrational energy      10117.5 (Joules/Mol)
                                    2.41813 (Kcal/Mol)
 Vibrational temperatures:   1216.85  1216.85
          (Kelvin)

 Zero-point correction=                           0.003854 (Hartree/Particle)
 Thermal correction to Energy=                    0.006346
 Thermal correction to Enthalpy=                  0.007291
 Thermal correction to Gibbs Free Energy=        -0.016754
 Sum of electronic and zero-point Energies=           -100.821112
 Sum of electronic and thermal Energies=              -100.818619
 Sum of electronic and thermal Enthalpies=            -100.817675
 Sum of electronic and thermal Free Energies=         -100.841720

                     E (Thermal)             CV                S
                      KCal/Mol        Cal/Mol-Kelvin    Cal/Mol-Kelvin
 Total                    3.982              6.125             50.607
 Electronic               0.000              0.000              1.377
 Translational            0.889              2.981             35.068
 Rotational               0.592              1.987             13.815
 Vibrational              2.501              1.157              0.346

 Normal termination of Gaussian 16 at Fri Aug 22 16:36:01 2025.
