 Gaussian 16, Revision C.01,
 Gaussian 16:  ES64L-G16RevC.01  3-Jul-2019

 -----------------------------------------
 # sp b3lyp/6-311g** Force nosymm scf=(qc)
 -----------------------------------------

 -------------------
 Title Card Required
 -------------------
 Symbolic Z-matrix:
 Charge =  0 Multiplicity = 2

                          Input orientation:
 ---------------------------------------------------------------------
 Center     Atomic      Atomic             Coordinates (Angstroms)
 Number     Number       Type             X           Y           Z
 ---------------------------------------------------------------------
      1          1           0        0.000000    0.000000    0.000000
      2          1           0       -3.750000    0.000000    0.000000
      3          9           0        1.450000    0.000000    0.000000
 ---------------------------------------------------------------------

 SCF Done:  E(UB3LYP) =  -100.865770344     a.u. after    8 cycles

 Alpha  occ. eigenvalues --  -24.64371  -1.09959  -0.43877  -0.36567  -0.36567
 Alpha  occ. eigenvalues --   -0.33749
 Alpha virt. eigenvalues --   -0.13256   0.20531   0.27481   0.93267   0.93267
 Alpha virt. eigenvalues --    1.03520   1.12095   1.23739   1.23761   1.23761
 Alpha virt. eigenvalues --    1.31886   1.31886   1.72255   2.13040   2.19997

  Beta  occ. eigenvalues --  -24.64361  -1.09932  -0.43853  -0.36557  -0.36557
  Beta virt. eigenvalues --   -0.13439  -0.06220   0.23441   0.38351   0.93263
  Beta virt. eigenvalues --    0.93263   1.03546   1.12109   1.31842   1.31842
  Beta virt. eigenvalues --    1.46338   1.46722   1.46722   1.72264   2.19050

 Mulliken charges and spin densities:
               1          2
     1  H    0.353531  -0.002285
     2  H    0.000953   0.998994
     3  F   -0.354484   0.003291
 Sum of Mulliken charges =   0.00000   1.00000

 Dipole moment (field-independent basis, Debye):
    X=             -2.5546    Y=             -0.0000    Z=              0.0000  Tot=              2.5546
 Quadrupole moment (field-independent basis, Debye-Ang):
   XX=             -9.7598   YY=             -7.2932   ZZ=             -7.2932
   XY=             -0.0000   XZ=              0.0000   YZ=              0.0000

  Exact polarizability:      13.894       0.000       2.209      -0.000      -0.000       2.209
 Approx polarizability:      25.163      -0.000       2.138       0.000       0.000       2.138

 ******    2 imaginary frequencies (negative Signs) ******

                      1                      2                      3
                      A                      A                      A
 Frequencies --  -1097.4776               -56.9777              1058.2648
 Red. masses --      1.0579                 1.0537                 1.0322
 Frc consts  --      0.7507                 0.0020                 0.6811
 IR Inten    --     43.6928                 0.0663               123.4084

                      4
                      A
 Frequencies --   1058.2648
 Red. masses --      1.0322
 Frc consts  --      0.6811
 IR Inten    --    123.4084

 - Thermochemistry -
 -------------------
 Temperature   298.150 Kelvin.  Pressure   1.00000 Atm.
 Atom     1 has atomic number  1 and mass   1.00783

 Molecular mass:    21.01405 amu.
 Principal axes and moments of inertia in atomic units:
                           1         2         3
     Eigenvalues --     0.00000  97.25100  97.25100
           X            1.00000  -0.00000   0.00000
           Y            0.00000   1.00000   0.00000
           Z            0.00000   0.00000   1.00000
 This molecule is a prolate symmetric top.
 Rotational symmetry number  1.
 Rotational temperature (Kelvin)      0.89062
 Rotational constant (GHZ):          18.557560
    2 imaginary frequencies ignored.
 Zero-point vibrational energy      12659.7 (Joules/Mol)
                                    3.02573 (Kcal/Mol)
 Vibrational temperatures:   1522.61  1522.61
          (Kelvin)

 Zero-point correction=                           0.004822 (Hartree/Particle)
 Thermal correction to Energy=                    0.007241
 Thermal correction to Enthalpy=                  0.008185
 Thermal correction to Gibbs Free Energy=        -0.015635
 Sum of electronic and zero-point Energies=           -100.860949
 Sum of electronic and thermal Energies=              -100.858529
 Sum of electronic and thermal Enthalpies=            -100.857585
 Sum of electronic and thermal Free Energies=         -100.881405

                     E (Thermal)             CV                S
                      KCal/Mol        Cal/Mol-Kelvin    Cal/Mol-Kelvin
 Total                    4.544              5.603             50.133
 Electronic               0.000              0.000              1.377
 Translational            0.889              2.981             35.068
 Rotational               0.592              1.987             13.540
 Vibrational              3.063              0.635              0.148

 Normal termination of Gaussian 16 at Fri Aug 22 16:24:02 2025.
