 Gaussian 16, Revision C.01,
 Gaussian 16:  ES64L-G16RevC.01  3-Jul-2019

 -----------------------------------------
 # sp b3lyp/6-311g** Force nosymm scf=(qc)
 -----------------------------------------

 -------------------
 Title Card Required
 -------------------
 Symbolic Z-matrix:
 Charge =  0 Multiplicity = 2

                          Input orientation:
 ---------------------------------------------------------------------
 Center     Atomic      Atomic             Coordinates (Angstroms)
 Number     Number       Type             X           Y           Z
 ---------------------------------------------------------------------
      1          1           0        0.000000    0.000000    0.000000
      2          1           0       -1.450000    0.000000    0.000000
      3          9           0        2.550000    0.000000    0.000000
 ---------------------------------------------------------------------

 SCF Done:  E(UB3LYP) =  -100.830571587     a.u. after   19 cycles

 Alpha  occ. eigenvalues --  -24.74011  -1.20087  -0.53200  -0.44636  -0.44636
 Alpha  occ. eigenvalues --   -0.35836
 Alpha virt. eigenvalues --   -0.09919   0.23676   0.31283   0.89355   0.92209
 Alpha virt. eigenvalues --    0.92209   1.04799   1.12806   1.17308   1.17308
 Alpha virt. eigenvalues --    1.41622   1.41622   1.84285   2.22087   2.48160

  Beta  occ. eigenvalues --  -24.71021  -1.11534  -0.41648  -0.41648  -0.35418
  Beta virt. eigenvalues --   -0.25241  -0.09238   0.24419   0.31590   0.93635
  Beta virt. eigenvalues --    0.93635   0.96748   1.07049   1.16114   1.17831
  Beta virt. eigenvalues --    1.17831   1.42051   1.42051   1.84889   2.22930

 Mulliken charges and spin densities:
               1          2
     1  H    0.010828  -0.214381
     2  H    0.033681   0.268949
     3  F   -0.044508   0.945432
 Sum of Mulliken charges =  -0.00000   1.00000

 Dipole moment (field-independent basis, Debye):
    X=             -0.8062    Y=              0.0000    Z=              0.0000  Tot=              0.8062
 Quadrupole moment (field-independent basis, Debye-Ang):
   XX=             -6.5964   YY=             -7.6583   ZZ=             -7.6583
   XY=              0.0000   XZ=              0.0000   YZ=             -0.0000

  Exact polarizability:      55.109       0.000       2.065       0.000      -0.000       2.065
 Approx polarizability:      76.024      -0.000       2.048      -0.000       0.000       2.048

 ******    2 imaginary frequencies (negative Signs) ******

                      1                      2                      3
                      A                      A                      A
 Frequencies --  -1876.7649              -266.2346              1212.8135
 Red. masses --      1.0086                 1.1076                 1.0126
 Frc consts  --      2.0931                 0.0463                 0.8775
 IR Inten    --    697.4391                23.5391                 0.0072

                      4
                      A
 Frequencies --   1212.8135
 Red. masses --      1.0126
 Frc consts  --      0.8775
 IR Inten    --      0.0072

 - Thermochemistry -
 -------------------
 Temperature   298.150 Kelvin.  Pressure   1.00000 Atm.
 Atom     1 has atomic number  1 and mass   1.00783

 Molecular mass:    21.01405 amu.
 Principal axes and moments of inertia in atomic units:
                           1         2         3
     Eigenvalues --     0.00000  73.58142  73.58142
           X            1.00000  -0.00000   0.00000
           Y            0.00000   1.00000   0.00000
           Z            0.00000   0.00000   1.00000
 This molecule is a prolate symmetric top.
 Rotational symmetry number  1.
 Rotational temperature (Kelvin)      1.17712
 Rotational constant (GHZ):          24.527132
    2 imaginary frequencies ignored.
 Zero-point vibrational energy      14508.5 (Joules/Mol)
                                    3.46761 (Kcal/Mol)
 Vibrational temperatures:   1744.97  1744.97
          (Kelvin)

 Zero-point correction=                           0.005526 (Hartree/Particle)
 Thermal correction to Energy=                    0.007918
 Thermal correction to Enthalpy=                  0.008862
 Thermal correction to Gibbs Free Energy=        -0.014661
 Sum of electronic and zero-point Energies=           -100.825046
 Sum of electronic and thermal Energies=              -100.822653
 Sum of electronic and thermal Enthalpies=            -100.821709
 Sum of electronic and thermal Free Energies=         -100.845233

                     E (Thermal)             CV                S
                      KCal/Mol        Cal/Mol-Kelvin    Cal/Mol-Kelvin
 Total                    4.969              5.361             49.509
 Electronic               0.000              0.000              1.377
 Translational            0.889              2.981             35.068
 Rotational               0.592              1.987             12.985
 Vibrational              3.488              0.393              0.078

 Normal termination of Gaussian 16 at Fri Aug 22 17:53:12 2025.
