 Gaussian 16, Revision C.01,
 Gaussian 16:  ES64L-G16RevC.01  3-Jul-2019

 -----------------------------------------
 # sp b3lyp/6-311g** Force nosymm scf=(qc)
 -----------------------------------------

 -------------------
 Title Card Required
 -------------------
 Symbolic Z-matrix:
 Charge =  0 Multiplicity = 2

                          Input orientation:
 ---------------------------------------------------------------------
 Center     Atomic      Atomic             Coordinates (Angstroms)
 Number     Number       Type             X           Y           Z
 ---------------------------------------------------------------------
      1          1           0        0.000000    0.000000    0.000000
      2          1           0       -3.400000    0.000000    0.000000
      3          9           0        3.250000    0.000000    0.000000
 ---------------------------------------------------------------------

 SCF Done:  E(UB3LYP) =  -100.759908193     a.u. after   26 cycles

 Alpha  occ. eigenvalues --  -24.74856  -1.20859  -0.53977  -0.45321  -0.45321
 Alpha  occ. eigenvalues --   -0.32444
 Alpha virt. eigenvalues --   -0.07617   0.24277   0.36396   0.88481   0.91808
 Alpha virt. eigenvalues --    0.91808   1.02658   1.25065   1.25065   1.25286
 Alpha virt. eigenvalues --    1.44488   1.44488   1.44621   2.15074   2.40704

  Beta  occ. eigenvalues --  -24.71777  -1.12019  -0.42236  -0.42236  -0.33208
  Beta virt. eigenvalues --   -0.25204  -0.06690   0.24081   0.37745   0.93286
  Beta virt. eigenvalues --    0.93286   0.97434   1.06557   1.24180   1.24180
  Beta virt. eigenvalues --    1.24408   1.45646   1.45896   1.45896   2.15413

 Mulliken charges and spin densities:
               1          2
     1  H    0.021290  -0.973545
     2  H    0.000381   0.997323
     3  F   -0.021671   0.976222
 Sum of Mulliken charges =  -0.00000   1.00000

 Dipole moment (field-independent basis, Debye):
    X=             -0.3682    Y=             -0.0000    Z=              0.0000  Tot=              0.3682
 Quadrupole moment (field-independent basis, Debye-Ang):
   XX=             -7.8024   YY=             -7.6194   ZZ=             -7.6194
   XY=              0.0000   XZ=             -0.0000   YZ=             -0.0000

  Exact polarizability:      29.510       0.000       2.029      -0.000       0.000       2.029
 Approx polarizability:      26.157       0.000       1.930      -0.000       0.000       1.930

 ******    2 imaginary frequencies (negative Signs) ******

                      1                      2                      3
                      A                      A                      A
 Frequencies --   -311.1602              -123.5099               104.8708
 Red. masses --      1.0343                 1.0782                 1.0185
 Frc consts  --      0.0590                 0.0097                 0.0066
 IR Inten    --     22.3759                 1.5530                 0.4116

                      4
                      A
 Frequencies --    104.8708
 Red. masses --      1.0185
 Frc consts  --      0.0066
 IR Inten    --      0.4116

 - Thermochemistry -
 -------------------
 Temperature   298.150 Kelvin.  Pressure   1.00000 Atm.
 Atom     1 has atomic number  1 and mass   1.00783

 Molecular mass:    21.01405 amu.
 Principal axes and moments of inertia in atomic units:
                           1         2         3
     Eigenvalues --     0.00000 180.25448 180.25448
           X            1.00000  -0.00000   0.00000
           Y            0.00000   1.00000   0.00000
           Z            0.00000   0.00000   1.00000
 This molecule is a prolate symmetric top.
 Rotational symmetry number  1.
 Rotational temperature (Kelvin)      0.48051
 Rotational constant (GHZ):          10.012185
    2 imaginary frequencies ignored.
 Zero-point vibrational energy       1254.5 (Joules/Mol)
                                    0.29984 (Kcal/Mol)
 Warning -- explicit consideration of   2 degrees of freedom as
           vibrations may cause significant error
 Vibrational temperatures:    150.89   150.89
          (Kelvin)

 Zero-point correction=                           0.000478 (Hartree/Particle)
 Thermal correction to Energy=                    0.004289
 Thermal correction to Enthalpy=                  0.005233
 Thermal correction to Gibbs Free Energy=        -0.022294
 Sum of electronic and zero-point Energies=           -100.759430
 Sum of electronic and thermal Energies=              -100.755619
 Sum of electronic and thermal Enthalpies=            -100.754675
 Sum of electronic and thermal Free Energies=         -100.782202

                     E (Thermal)             CV                S
                      KCal/Mol        Cal/Mol-Kelvin    Cal/Mol-Kelvin
 Total                    2.691              8.859             57.935
 Electronic               0.000              0.000              1.377
 Translational            0.889              2.981             35.068
 Rotational               0.592              1.987             14.766
 Vibrational              1.210              3.891              6.723
 Vibration     1          0.605              1.945              3.362
 Vibration     2          0.605              1.945              3.362

 Normal termination of Gaussian 16 at Fri Aug 22 20:36:07 2025.
