 Gaussian 16, Revision C.01,
 Gaussian 16:  ES64L-G16RevC.01  3-Jul-2019

 -----------------------------------------
 # sp b3lyp/6-311g** Force nosymm scf=(qc)
 -----------------------------------------

 -------------------
 Title Card Required
 -------------------
 Symbolic Z-matrix:
 Charge =  0 Multiplicity = 2

                          Input orientation:
 ---------------------------------------------------------------------
 Center     Atomic      Atomic             Coordinates (Angstroms)
 Number     Number       Type             X           Y           Z
 ---------------------------------------------------------------------
      1          1           0        0.000000    0.000000    0.000000
      2          1           0       -0.900000    0.000000    0.000000
      3          9           0        3.450000    0.000000    0.000000
 ---------------------------------------------------------------------

 SCF Done:  E(UB3LYP) =  -100.922117131     a.u. after  207 cycles

 Alpha  occ. eigenvalues --  -24.76382  -1.22240  -0.55440  -0.46639  -0.46593
 Alpha  occ. eigenvalues --   -0.40370
 Alpha virt. eigenvalues --    0.02667   0.20778   0.41528   0.85971   0.90846
 Alpha virt. eigenvalues --    0.92723   1.01935   1.08412   1.08416   1.45504
 Alpha virt. eigenvalues --    1.72300   1.72304   2.17946   2.37582   2.74228

  Beta  occ. eigenvalues --  -24.73224  -1.13161  -0.43480  -0.43427  -0.40361
  Beta virt. eigenvalues --   -0.26078   0.02680   0.20789   0.41579   0.92346
  Beta virt. eigenvalues --    0.94257   0.95434   1.05984   1.08412   1.08416
  Beta virt. eigenvalues --    1.45511   1.72300   1.72304   2.17959   2.37585

 Mulliken charges and spin densities:
               1          2
     1  H   -0.001144  -0.000399
     2  H   -0.002889  -0.000071
     3  F    0.004033   1.000471
 Sum of Mulliken charges =   0.00000   1.00000

 Dipole moment (field-independent basis, Debye):
    X=              0.0516    Y=              0.0000    Z=             -0.0000  Tot=              0.0516
 Quadrupole moment (field-independent basis, Debye-Ang):
   XX=             -6.2224   YY=             -7.1529   ZZ=             -6.2891
   XY=              0.0000   XZ=              0.0000   YZ=              0.0118

  Exact polarizability:      10.538       0.000       2.026       0.000       0.006       2.490
 Approx polarizability:      13.047       0.000       2.089       0.000       0.008       2.671

 ******    1 imaginary frequencies (negative Signs) ******

                      1                      2                      3
                      A                      A                      A
 Frequencies --    -10.8652              1454.0318              1454.7766
 Red. masses --      1.1085                 1.0092                 1.0092
 Frc consts  --      0.0001                 1.2571                 1.2583
 IR Inten    --      0.1622                 0.0001                 0.0000

                      4
                      A
 Frequencies --   2642.8965
 Red. masses --      1.0078
 Frc consts  --      4.1476
 IR Inten    --      0.1381

 - Thermochemistry -
 -------------------
 Temperature   298.150 Kelvin.  Pressure   1.00000 Atm.
 Atom     1 has atomic number  1 and mass   1.00783

 Molecular mass:    21.01405 amu.
 Principal axes and moments of inertia in atomic units:
                           1         2         3
     Eigenvalues --     0.00000 100.43803 100.43803
           X            1.00000  -0.00000   0.00000
           Y            0.00000   1.00000   0.00000
           Z            0.00000   0.00000   1.00000
 This molecule is a prolate symmetric top.
 Rotational symmetry number  1.
 Rotational temperature (Kelvin)      0.86236
 Rotational constant (GHZ):          17.968703
    1 imaginary frequencies ignored.
 Zero-point vibrational energy      33206.6 (Joules/Mol)
                                    7.93656 (Kcal/Mol)
 Vibrational temperatures:   2092.03  2093.10  3802.54
          (Kelvin)

 Zero-point correction=                           0.012648 (Hartree/Particle)
 Thermal correction to Energy=                    0.015020
 Thermal correction to Enthalpy=                  0.015964
 Thermal correction to Gibbs Free Energy=        -0.007829
 Sum of electronic and zero-point Energies=           -100.909469
 Sum of electronic and thermal Energies=              -100.907097
 Sum of electronic and thermal Enthalpies=            -100.906153
 Sum of electronic and thermal Free Energies=         -100.929946

                     E (Thermal)             CV                S
                      KCal/Mol        Cal/Mol-Kelvin    Cal/Mol-Kelvin
 Total                    9.425              5.145             50.078
 Electronic               0.000              0.000              1.377
 Translational            0.889              2.981             35.068
 Rotational               0.592              1.987             13.604
 Vibrational              7.944              0.177              0.029

 Normal termination of Gaussian 16 at Fri Aug 22 21:25:55 2025.
