 Gaussian 16, Revision C.01,
 Gaussian 16:  ES64L-G16RevC.01  3-Jul-2019

 -----------------------------------------
 # sp b3lyp/6-311g** Force nosymm scf=(qc)
 -----------------------------------------

 -------------------
 Title Card Required
 -------------------
 Symbolic Z-matrix:
 Charge =  0 Multiplicity = 2

                          Input orientation:
 ---------------------------------------------------------------------
 Center     Atomic      Atomic             Coordinates (Angstroms)
 Number     Number       Type             X           Y           Z
 ---------------------------------------------------------------------
      1          1           0        0.000000    0.000000    0.000000
      2          1           0       -0.800000    0.000000    0.000000
      3          9           0        1.350000    0.000000    0.000000
 ---------------------------------------------------------------------

 SCF Done:  E(UB3LYP) =  -100.941398501     a.u. after    7 cycles

 Alpha  occ. eigenvalues --  -24.69130  -1.17023  -0.56859  -0.41391  -0.41391
 Alpha  occ. eigenvalues --   -0.40613
 Alpha virt. eigenvalues --    0.09241   0.19458   0.42464   0.88404   0.88404
 Alpha virt. eigenvalues --    0.97382   1.08340   1.08340   1.36069   1.65205
 Alpha virt. eigenvalues --    1.76501   1.76501   2.06683   2.37921   2.87847

  Beta  occ. eigenvalues --  -24.66829  -1.10861  -0.48467  -0.39194  -0.39194
  Beta virt. eigenvalues --   -0.22323   0.10979   0.20619   0.45715   0.89642
  Beta virt. eigenvalues --    0.89642   1.02548   1.11477   1.11477   1.39945
  Beta virt. eigenvalues --    1.69052   1.78577   1.78577   2.07621   2.42618

 Mulliken charges and spin densities:
               1          2
     1  H    0.193069  -0.050585
     2  H    0.015765   0.372018
     3  F   -0.208834   0.678567
 Sum of Mulliken charges =   0.00000   1.00000

 Dipole moment (field-independent basis, Debye):
    X=             -1.5124    Y=              0.0000    Z=             -0.0000  Tot=              1.5124
 Quadrupole moment (field-independent basis, Debye-Ang):
   XX=             -7.2054   YY=             -6.7661   ZZ=             -6.7661
   XY=              0.0000   XZ=             -0.0000   YZ=              0.0000

  Exact polarizability:      20.344      -0.000       2.406       0.000      -0.000       2.406
 Approx polarizability:      27.168      -0.000       2.432       0.000      -0.000       2.432

 ******    3 imaginary frequencies (negative Signs) ******

                      1                      2                      3
                      A                      A                      A
 Frequencies --   -739.7460              -416.2884              -416.2884
 Red. masses --      1.1034                 1.0129                 1.0129
 Frc consts  --      0.3557                 0.1034                 0.1034
 IR Inten    --    159.2358                 4.7359                 4.7359

                      4
                      A
 Frequencies --   3039.2950
 Red. masses --      1.0121
 Frc consts  --      5.5083
 IR Inten    --    636.9019

 - Thermochemistry -
 -------------------
 Temperature   298.150 Kelvin.  Pressure   1.00000 Atm.
 Atom     1 has atomic number  1 and mass   1.00783

 Molecular mass:    21.01405 amu.
 Principal axes and moments of inertia in atomic units:
                           1         2         3
     Eigenvalues --     0.00000  21.08118  21.08118
           X            1.00000  -0.00000   0.00000
           Y            0.00000   1.00000   0.00000
           Z            0.00000   0.00000   1.00000
 This molecule is a prolate symmetric top.
 Rotational symmetry number  1.
 Rotational temperature (Kelvin)      4.10859
 Rotational constant (GHZ):          85.609136
    3 imaginary frequencies ignored.
 Zero-point vibrational energy      18179.0 (Joules/Mol)
                                    4.34489 (Kcal/Mol)
 Vibrational temperatures:   4372.87
          (Kelvin)

 Zero-point correction=                           0.006924 (Hartree/Particle)
 Thermal correction to Energy=                    0.009284
 Thermal correction to Enthalpy=                  0.010229
 Thermal correction to Gibbs Free Energy=        -0.012077
 Sum of electronic and zero-point Energies=           -100.934474
 Sum of electronic and thermal Energies=              -100.932114
 Sum of electronic and thermal Enthalpies=            -100.931170
 Sum of electronic and thermal Free Energies=         -100.953476

                     E (Thermal)             CV                S
                      KCal/Mol        Cal/Mol-Kelvin    Cal/Mol-Kelvin
 Total                    5.826              4.968             46.947
 Electronic               0.000              0.000              1.377
 Translational            0.889              2.981             35.068
 Rotational               0.592              1.987             10.501
 Vibrational              4.345              0.000              0.000

 Normal termination of Gaussian 16 at Fri Aug 22 16:16:39 2025.
