 Gaussian 16, Revision C.01,
 Gaussian 16:  ES64L-G16RevC.01  3-Jul-2019

 -----------------------------------------
 # sp b3lyp/6-311g** Force nosymm scf=(qc)
 -----------------------------------------

 -------------------
 Title Card Required
 -------------------
 Symbolic Z-matrix:
 Charge =  0 Multiplicity = 2

                          Input orientation:
 ---------------------------------------------------------------------
 Center     Atomic      Atomic             Coordinates (Angstroms)
 Number     Number       Type             X           Y           Z
 ---------------------------------------------------------------------
      1          1           0        0.000000    0.000000    0.000000
      2          1           0       -2.700000    0.000000    0.000000
      3          9           0        0.950000    0.000000    0.000000
 ---------------------------------------------------------------------

 SCF Done:  E(UB3LYP) =  -100.971262133     a.u. after    6 cycles

 Alpha  occ. eigenvalues --  -24.64035  -1.17381  -0.52708  -0.39150  -0.39150
 Alpha  occ. eigenvalues --   -0.34573
 Alpha virt. eigenvalues --    0.02685   0.25220   0.36593   0.94282   0.94282
 Alpha virt. eigenvalues --    0.98137   1.21095   1.22970   1.22970   1.35286
 Alpha virt. eigenvalues --    1.36544   1.36544   1.96560   2.14242   2.35229

  Beta  occ. eigenvalues --  -24.64023  -1.17352  -0.52663  -0.39140  -0.39140
  Beta virt. eigenvalues --   -0.08630   0.04187   0.36231   0.38324   0.94284
  Beta virt. eigenvalues --    0.94284   0.98159   1.29987   1.36531   1.36531
  Beta virt. eigenvalues --    1.46121   1.46121   1.50275   1.96729   2.34939

 Mulliken charges and spin densities:
               1          2
     1  H    0.304825   0.002348
     2  H    0.004480   0.993854
     3  F   -0.309304   0.003798
 Sum of Mulliken charges =   0.00000   1.00000

 Dipole moment (field-independent basis, Debye):
    X=             -2.0164    Y=             -0.0000    Z=              0.0000  Tot=              2.0164
 Quadrupole moment (field-independent basis, Debye-Ang):
   XX=             -7.8969   YY=             -6.9128   ZZ=             -6.9128
   XY=             -0.0000   XZ=              0.0000   YZ=              0.0000

  Exact polarizability:       7.564       0.000       2.433      -0.000      -0.000       2.433
 Approx polarizability:       8.549      -0.000       2.411       0.000      -0.000       2.411

 ******    1 imaginary frequencies (negative Signs) ******

                      1                      2                      3
                      A                      A                      A
 Frequencies --    -72.9526               664.7818               664.7818
 Red. masses --      1.0531                 1.0337                 1.0337
 Frc consts  --      0.0033                 0.2692                 0.2692
 IR Inten    --      0.4849               165.1807               165.1807

                      4
                      A
 Frequencies --   3674.0342
 Red. masses --      1.0585
 Frc consts  --      8.4180
 IR Inten    --    115.7095

 - Thermochemistry -
 -------------------
 Temperature   298.150 Kelvin.  Pressure   1.00000 Atm.
 Atom     1 has atomic number  1 and mass   1.00783

 Molecular mass:    21.01405 amu.
 Principal axes and moments of inertia in atomic units:
                           1         2         3
     Eigenvalues --     0.00000  47.54353  47.54353
           X            1.00000  -0.00000   0.00000
           Y            0.00000   1.00000   0.00000
           Z            0.00000   0.00000   1.00000
 This molecule is a prolate symmetric top.
 Rotational symmetry number  1.
 Rotational temperature (Kelvin)      1.82178
 Rotational constant (GHZ):          37.959761
    1 imaginary frequencies ignored.
 Zero-point vibrational energy      29928.2 (Joules/Mol)
                                    7.15300 (Kcal/Mol)
 Vibrational temperatures:    956.47   956.47  5286.12
          (Kelvin)

 Zero-point correction=                           0.011399 (Hartree/Particle)
 Thermal correction to Energy=                    0.014015
 Thermal correction to Enthalpy=                  0.014959
 Thermal correction to Gibbs Free Energy=        -0.008448
 Sum of electronic and zero-point Energies=           -100.959863
 Sum of electronic and thermal Energies=              -100.957247
 Sum of electronic and thermal Enthalpies=            -100.956303
 Sum of electronic and thermal Free Energies=         -100.979710

                     E (Thermal)             CV                S
                      KCal/Mol        Cal/Mol-Kelvin    Cal/Mol-Kelvin
 Total                    8.794              6.764             49.264
 Electronic               0.000              0.000              1.377
 Translational            0.889              2.981             35.068
 Rotational               0.592              1.987             12.118
 Vibrational              7.313              1.796              0.701

 Normal termination of Gaussian 16 at Fri Aug 22 15:58:37 2025.
