 Gaussian 16, Revision C.01,
 Gaussian 16:  ES64L-G16RevC.01  3-Jul-2019

 -----------------------------------------
 # sp b3lyp/6-311g** Force nosymm scf=(qc)
 -----------------------------------------

 -------------------
 Title Card Required
 -------------------
 Symbolic Z-matrix:
 Charge =  0 Multiplicity = 2

                          Input orientation:
 ---------------------------------------------------------------------
 Center     Atomic      Atomic             Coordinates (Angstroms)
 Number     Number       Type             X           Y           Z
 ---------------------------------------------------------------------
      1          1           0        0.000000    0.000000    0.000000
      2          1           0       -1.650000    0.000000    0.000000
      3          9           0        1.300000    0.000000    0.000000
 ---------------------------------------------------------------------

 SCF Done:  E(UB3LYP) =  -100.908783654     a.u. after    9 cycles

 Alpha  occ. eigenvalues --  -24.63472  -1.10849  -0.47473  -0.37660  -0.36418
 Alpha  occ. eigenvalues --   -0.36418
 Alpha virt. eigenvalues --   -0.03786   0.21555   0.28419   0.93681   0.93681
 Alpha virt. eigenvalues --    1.01919   1.03753   1.17291   1.17291   1.37746
 Alpha virt. eigenvalues --    1.37746   1.50998   1.76751   2.17468   2.36419

  Beta  occ. eigenvalues --  -24.62923  -1.09437  -0.44609  -0.35909  -0.35909
  Beta virt. eigenvalues --   -0.18640  -0.00090   0.25853   0.31385   0.93704
  Beta virt. eigenvalues --    0.93704   1.03587   1.10426   1.28092   1.28092
  Beta virt. eigenvalues --    1.41168   1.41168   1.55608   1.82073   2.25442

 Mulliken charges and spin densities:
               1          2
     1  H    0.309627  -0.063528
     2  H    0.054616   0.897330
     3  F   -0.364243   0.166197
 Sum of Mulliken charges =   0.00000   1.00000

 Dipole moment (field-independent basis, Debye):
    X=             -2.8715    Y=             -0.0000    Z=              0.0000  Tot=              2.8715
 Quadrupole moment (field-independent basis, Debye-Ang):
   XX=             -8.2085   YY=             -7.1034   ZZ=             -7.1034
   XY=              0.0000   XZ=              0.0000   YZ=              0.0000

  Exact polarizability:      22.540       0.000       2.370      -0.000      -0.000       2.370
 Approx polarizability:      29.539       0.000       2.330       0.000      -0.000       2.330

 ******    1 imaginary frequencies (negative Signs) ******

                      1                      2                      3
                      A                      A                      A
 Frequencies --  -1733.9424               181.0087              1108.4659
 Red. masses --      1.0228                 1.0909                 1.0211
 Frc consts  --      1.8118                 0.0211                 0.7392
 IR Inten    --     87.2584                14.3096                68.4621

                      4
                      A
 Frequencies --   1108.4659
 Red. masses --      1.0211
 Frc consts  --      0.7392
 IR Inten    --     68.4621

 - Thermochemistry -
 -------------------
 Temperature   298.150 Kelvin.  Pressure   1.00000 Atm.
 Atom     1 has atomic number  1 and mass   1.00783

 Molecular mass:    21.01405 amu.
 Principal axes and moments of inertia in atomic units:
                           1         2         3
     Eigenvalues --     0.00000  34.28498  34.28498
           X            1.00000  -0.00000   0.00000
           Y            0.00000   1.00000   0.00000
           Z            0.00000   0.00000   1.00000
 This molecule is a prolate symmetric top.
 Rotational symmetry number  1.
 Rotational temperature (Kelvin)      2.52629
 Rotational constant (GHZ):          52.639407
    1 imaginary frequencies ignored.
 Zero-point vibrational energy      14342.9 (Joules/Mol)
                                    3.42803 (Kcal/Mol)
 Warning -- explicit consideration of   1 degrees of freedom as
           vibrations may cause significant error
 Vibrational temperatures:    260.43  1594.84  1594.84
          (Kelvin)

 Zero-point correction=                           0.005463 (Hartree/Particle)
 Thermal correction to Energy=                    0.008463
 Thermal correction to Enthalpy=                  0.009407
 Thermal correction to Gibbs Free Energy=        -0.014517
 Sum of electronic and zero-point Energies=           -100.903321
 Sum of electronic and thermal Energies=              -100.900321
 Sum of electronic and thermal Enthalpies=            -100.899377
 Sum of electronic and thermal Free Energies=         -100.923300

                     E (Thermal)             CV                S
                      KCal/Mol        Cal/Mol-Kelvin    Cal/Mol-Kelvin
 Total                    5.310              7.379             50.352
 Electronic               0.000              0.000              1.377
 Translational            0.889              2.981             35.068
 Rotational               0.592              1.987             11.468
 Vibrational              3.829              2.411              2.438
 Vibration     1          0.630              1.866              2.318

 Normal termination of Gaussian 16 at Fri Aug 22 16:14:48 2025.
