 Gaussian 16, Revision C.01,
 Gaussian 16:  ES64L-G16RevC.01  3-Jul-2019

 -----------------------------------------
 # sp b3lyp/6-311g** Force nosymm scf=(qc)
 -----------------------------------------

 -------------------
 Title Card Required
 -------------------
 Symbolic Z-matrix:
 Charge =  0 Multiplicity = 2

                          Input orientation:
 ---------------------------------------------------------------------
 Center     Atomic      Atomic             Coordinates (Angstroms)
 Number     Number       Type             X           Y           Z
 ---------------------------------------------------------------------
      1          1           0        0.000000    0.000000    0.000000
      2          1           0       -4.000000    0.000000    0.000000
      3          9           0        3.450000    0.000000    0.000000
 ---------------------------------------------------------------------

 SCF Done:  E(UB3LYP) =  -100.758969177     a.u. after   26 cycles

 Alpha  occ. eigenvalues --  -24.75288  -1.21259  -0.54411  -0.45684  -0.45684
 Alpha  occ. eigenvalues --   -0.32300
 Alpha virt. eigenvalues --   -0.06087   0.24123   0.37323   0.87740   0.91542
 Alpha virt. eigenvalues --    0.91542   1.01947   1.25194   1.25194   1.25214
 Alpha virt. eigenvalues --    1.47230   1.47230   1.47433   2.14509   2.42806

  Beta  occ. eigenvalues --  -24.72180  -1.12330  -0.42569  -0.42569  -0.32872
  Beta virt. eigenvalues --   -0.25431  -0.05815   0.23822   0.38186   0.93029
  Beta virt. eigenvalues --    0.93029   0.96841   1.05932   1.24542   1.24542
  Beta virt. eigenvalues --    1.24549   1.46725   1.46811   1.46811   2.14676

 Mulliken charges and spin densities:
               1          2
     1  H    0.013288  -0.984756
     2  H    0.000052   0.999381
     3  F   -0.013340   0.985375
 Sum of Mulliken charges =  -0.00000   1.00000

 Dipole moment (field-independent basis, Debye):
    X=             -0.2376    Y=             -0.0000    Z=             -0.0000  Tot=              0.2376
 Quadrupole moment (field-independent basis, Debye-Ang):
   XX=             -7.5085   YY=             -7.6162   ZZ=             -7.6162
   XY=             -0.0000   XZ=             -0.0000   YZ=              0.0000

  Exact polarizability:      24.003      -0.000       2.035      -0.000      -0.000       2.035
 Approx polarizability:      19.524      -0.000       1.934      -0.000      -0.000       1.934

 ******    2 imaginary frequencies (negative Signs) ******

                      1                      2                      3
                      A                      A                      A
 Frequencies --   -223.6571               -67.6726                63.9263
 Red. masses --      1.0474                 1.0642                 1.0198
 Frc consts  --      0.0309                 0.0029                 0.0025
 IR Inten    --     13.4117                 0.1642                 0.1634

                      4
                      A
 Frequencies --     63.9263
 Red. masses --      1.0198
 Frc consts  --      0.0025
 IR Inten    --      0.1634

 - Thermochemistry -
 -------------------
 Temperature   298.150 Kelvin.  Pressure   1.00000 Atm.
 Atom     1 has atomic number  1 and mass   1.00783

 Molecular mass:    21.01405 amu.
 Principal axes and moments of inertia in atomic units:
                           1         2         3
     Eigenvalues --     0.00000 222.08374 222.08374
           X            1.00000  -0.00000   0.00000
           Y            0.00000   1.00000   0.00000
           Z            0.00000   0.00000   1.00000
 This molecule is a prolate symmetric top.
 Rotational symmetry number  1.
 Rotational temperature (Kelvin)      0.39001
 Rotational constant (GHZ):           8.126399
    2 imaginary frequencies ignored.
 Zero-point vibrational energy        764.7 (Joules/Mol)
                                    0.18277 (Kcal/Mol)
 Warning -- explicit consideration of   2 degrees of freedom as
           vibrations may cause significant error
 Vibrational temperatures:     91.98    91.98
          (Kelvin)

 Zero-point correction=                           0.000291 (Hartree/Particle)
 Thermal correction to Energy=                    0.004264
 Thermal correction to Enthalpy=                  0.005208
 Thermal correction to Gibbs Free Energy=        -0.023438
 Sum of electronic and zero-point Energies=           -100.758678
 Sum of electronic and thermal Energies=              -100.754705
 Sum of electronic and thermal Enthalpies=            -100.753761
 Sum of electronic and thermal Free Energies=         -100.782407

                     E (Thermal)             CV                S
                      KCal/Mol        Cal/Mol-Kelvin    Cal/Mol-Kelvin
 Total                    2.676              8.911             60.290
 Electronic               0.000              0.000              1.377
 Translational            0.889              2.981             35.068
 Rotational               0.592              1.987             15.181
 Vibrational              1.194              3.943              8.664
 Vibration     1          0.597              1.972              4.332
 Vibration     2          0.597              1.972              4.332

 Normal termination of Gaussian 16 at Fri Aug 22 21:44:01 2025.
