 Gaussian 16, Revision C.01,
 Gaussian 16:  ES64L-G16RevC.01  3-Jul-2019

 -----------------------------------------
 # sp b3lyp/6-311g** Force nosymm scf=(qc)
 -----------------------------------------

 -------------------
 Title Card Required
 -------------------
 Symbolic Z-matrix:
 Charge =  0 Multiplicity = 2

                          Input orientation:
 ---------------------------------------------------------------------
 Center     Atomic      Atomic             Coordinates (Angstroms)
 Number     Number       Type             X           Y           Z
 ---------------------------------------------------------------------
      1          1           0        0.000000    0.000000    0.000000
      2          1           0       -1.300000    0.000000    0.000000
      3          9           0        3.700000    0.000000    0.000000
 ---------------------------------------------------------------------

 SCF Done:  E(UB3LYP) =  -100.853774878     a.u. after  419 cycles

 Alpha  occ. eigenvalues --  -24.76296  -1.22185  -0.55386  -0.46570  -0.46542
 Alpha  occ. eigenvalues --   -0.35282
 Alpha virt. eigenvalues --   -0.06166   0.23553   0.32646   0.85995   0.90872
 Alpha virt. eigenvalues --    0.91677   1.01045   1.15373   1.15375   1.15718
 Alpha virt. eigenvalues --    1.49471   1.49474   1.98476   2.28709   2.52703

  Beta  occ. eigenvalues --  -24.73140  -1.13110  -0.43406  -0.43377  -0.35281
  Beta virt. eigenvalues --   -0.26033  -0.06163   0.23559   0.32666   0.92372
  Beta virt. eigenvalues --    0.93171   0.95461   1.05177   1.15373   1.15375
  Beta virt. eigenvalues --    1.15725   1.49471   1.49474   1.98479   2.28710

 Mulliken charges and spin densities:
               1          2
     1  H    0.000731  -0.000048
     2  H   -0.002497  -0.000154
     3  F    0.001766   1.000202
 Sum of Mulliken charges =   0.00000   1.00000

 Dipole moment (field-independent basis, Debye):
    X=              0.0340    Y=              0.0000    Z=              0.0000  Tot=              0.0340
 Quadrupole moment (field-independent basis, Debye-Ang):
   XX=             -6.2948   YY=             -7.5927   ZZ=             -6.7283
   XY=             -0.0000   XZ=              0.0000   YZ=             -0.0029

  Exact polarizability:      18.053      -0.000       2.072       0.000      -0.002       2.538
 Approx polarizability:      29.409      -0.000       2.087       0.000      -0.002       2.669

 ******    2 imaginary frequencies (negative Signs) ******

                      1                      2                      3
                      A                      A                      A
 Frequencies --   -971.3366               -63.0608              1395.0616
 Red. masses --      1.0078                 1.1085                 1.0100
 Frc consts  --      0.5602                 0.0026                 1.1582
 IR Inten    --      0.1108                 0.0925                 0.0020

                      4
                      A
 Frequencies --   1396.0467
 Red. masses --      1.0100
 Frc consts  --      1.1598
 IR Inten    --      0.0014

 - Thermochemistry -
 -------------------
 Temperature   298.150 Kelvin.  Pressure   1.00000 Atm.
 Atom     1 has atomic number  1 and mass   1.00783

 Molecular mass:    21.01405 amu.
 Principal axes and moments of inertia in atomic units:
                           1         2         3
     Eigenvalues --     0.00000 126.18102 126.18102
           X            1.00000  -0.00000   0.00000
           Y            0.00000   1.00000   0.00000
           Z            0.00000   0.00000   1.00000
 This molecule is a prolate symmetric top.
 Rotational symmetry number  1.
 Rotational temperature (Kelvin)      0.68643
 Rotational constant (GHZ):          14.302794
    2 imaginary frequencies ignored.
 Zero-point vibrational energy      16694.5 (Joules/Mol)
                                    3.99009 (Kcal/Mol)
 Vibrational temperatures:   2007.18  2008.60
          (Kelvin)

 Zero-point correction=                           0.006359 (Hartree/Particle)
 Thermal correction to Energy=                    0.008734
 Thermal correction to Enthalpy=                  0.009678
 Thermal correction to Gibbs Free Energy=        -0.014334
 Sum of electronic and zero-point Energies=           -100.847416
 Sum of electronic and thermal Energies=              -100.845041
 Sum of electronic and thermal Enthalpies=            -100.844096
 Sum of electronic and thermal Free Energies=         -100.868109

                     E (Thermal)             CV                S
                      KCal/Mol        Cal/Mol-Kelvin    Cal/Mol-Kelvin
 Total                    5.481              5.183             50.539
 Electronic               0.000              0.000              1.377
 Translational            0.889              2.981             35.068
 Rotational               0.592              1.987             14.057
 Vibrational              4.000              0.215              0.037

 Normal termination of Gaussian 16 at Fri Aug 22 23:49:24 2025.
