 Gaussian 16, Revision C.01,
 Gaussian 16:  ES64L-G16RevC.01  3-Jul-2019

 -----------------------------------------
 # sp b3lyp/6-311g** Force nosymm scf=(qc)
 -----------------------------------------

 -------------------
 Title Card Required
 -------------------
 Symbolic Z-matrix:
 Charge =  0 Multiplicity = 2

                          Input orientation:
 ---------------------------------------------------------------------
 Center     Atomic      Atomic             Coordinates (Angstroms)
 Number     Number       Type             X           Y           Z
 ---------------------------------------------------------------------
      1          1           0        0.000000    0.000000    0.000000
      2          1           0       -1.550000    0.000000    0.000000
      3          9           0        1.150000    0.000000    0.000000
 ---------------------------------------------------------------------

 SCF Done:  E(UB3LYP) =  -100.942144133     a.u. after    6 cycles

 Alpha  occ. eigenvalues --  -24.63448  -1.12622  -0.50023  -0.37484  -0.37152
 Alpha  occ. eigenvalues --   -0.37152
 Alpha virt. eigenvalues --    0.02241   0.21099   0.30239   0.93760   0.93760
 Alpha virt. eigenvalues --    1.00593   1.09917   1.16110   1.16110   1.40002
 Alpha virt. eigenvalues --    1.40002   1.53099   1.88779   2.27458   2.37222

  Beta  occ. eigenvalues --  -24.63039  -1.11593  -0.47521  -0.36781  -0.36781
  Beta virt. eigenvalues --   -0.17564   0.05436   0.25893   0.33492   0.93899
  Beta virt. eigenvalues --    0.93899   1.01539   1.18093   1.26660   1.26660
  Beta virt. eigenvalues --    1.44426   1.44426   1.55799   1.97685   2.32159

 Mulliken charges and spin densities:
               1          2
     1  H    0.308844  -0.024144
     2  H    0.046086   0.906200
     3  F   -0.354930   0.117944
 Sum of Mulliken charges =   0.00000   1.00000

 Dipole moment (field-independent basis, Debye):
    X=             -2.6108    Y=              0.0000    Z=             -0.0000  Tot=              2.6108
 Quadrupole moment (field-independent basis, Debye-Ang):
   XX=             -7.9136   YY=             -6.9657   ZZ=             -6.9657
   XY=              0.0000   XZ=             -0.0000   YZ=             -0.0000

  Exact polarizability:      17.358      -0.000       2.456      -0.000       0.000       2.456
 Approx polarizability:      20.792       0.000       2.434      -0.000       0.000       2.434

 ******    1 imaginary frequencies (negative Signs) ******

                      1                      2                      3
                      A                      A                      A
 Frequencies --   -917.8494               976.7247              1117.0549
 Red. masses --      1.0090                 1.1071                 1.0219
 Frc consts  --      0.5008                 0.6223                 0.7513
 IR Inten    --     58.9680               105.5851                81.5782

                      4
                      A
 Frequencies --   1117.0549
 Red. masses --      1.0219
 Frc consts  --      0.7513
 IR Inten    --     81.5782

 - Thermochemistry -
 -------------------
 Temperature   298.150 Kelvin.  Pressure   1.00000 Atm.
 Atom     1 has atomic number  1 and mass   1.00783

 Molecular mass:    21.01405 amu.
 Principal axes and moments of inertia in atomic units:
                           1         2         3
     Eigenvalues --     0.00000  28.43800  28.43800
           X            1.00000  -0.00000   0.00000
           Y            0.00000   1.00000   0.00000
           Z            0.00000   0.00000   1.00000
 This molecule is a prolate symmetric top.
 Rotational symmetry number  1.
 Rotational temperature (Kelvin)      3.04571
 Rotational constant (GHZ):          63.462322
    1 imaginary frequencies ignored.
 Zero-point vibrational energy      19205.1 (Joules/Mol)
                                    4.59012 (Kcal/Mol)
 Vibrational temperatures:   1405.29  1607.19  1607.19
          (Kelvin)

 Zero-point correction=                           0.007315 (Hartree/Particle)
 Thermal correction to Energy=                    0.009762
 Thermal correction to Enthalpy=                  0.010706
 Thermal correction to Gibbs Free Energy=        -0.011986
 Sum of electronic and zero-point Energies=           -100.934829
 Sum of electronic and thermal Energies=              -100.932382
 Sum of electronic and thermal Enthalpies=            -100.931438
 Sum of electronic and thermal Free Energies=         -100.954130

                     E (Thermal)             CV                S
                      KCal/Mol        Cal/Mol-Kelvin    Cal/Mol-Kelvin
 Total                    6.126              5.903             47.761
 Electronic               0.000              0.000              1.377
 Translational            0.889              2.981             35.068
 Rotational               0.592              1.987             11.096
 Vibrational              4.645              0.935              0.219

 Normal termination of Gaussian 16 at Fri Aug 22 16:07:25 2025.
