 Gaussian 16, Revision C.01,
 Gaussian 16:  ES64L-G16RevC.01  3-Jul-2019

 -----------------------------------------
 # sp b3lyp/6-311g** Force nosymm scf=(qc)
 -----------------------------------------

 -------------------
 Title Card Required
 -------------------
 Symbolic Z-matrix:
 Charge =  0 Multiplicity = 2

                          Input orientation:
 ---------------------------------------------------------------------
 Center     Atomic      Atomic             Coordinates (Angstroms)
 Number     Number       Type             X           Y           Z
 ---------------------------------------------------------------------
      1          1           0        0.000000    0.000000    0.000000
      2          1           0       -0.700000    0.000000    0.000000
      3          9           0        3.650000    0.000000    0.000000
 ---------------------------------------------------------------------

 SCF Done:  E(UB3LYP) =  -100.932448984     a.u. after  365 cycles

 Alpha  occ. eigenvalues --  -24.76280  -1.22150  -0.55352  -0.46543  -0.46507
 Alpha  occ. eigenvalues --   -0.44219
 Alpha virt. eigenvalues --    0.06704   0.19489   0.48206   0.86043   0.90919
 Alpha virt. eigenvalues --    0.92481   1.01607   1.08931   1.08933   1.57489
 Alpha virt. eigenvalues --    1.85831   1.85834   1.89748   2.37817   3.56889

  Beta  occ. eigenvalues --  -24.73123  -1.13073  -0.44253  -0.43343  -0.43342
  Beta virt. eigenvalues --   -0.25994   0.06717   0.19496   0.48255   0.92419
  Beta virt. eigenvalues --    0.93986   0.95508   1.05684   1.08930   1.08933
  Beta virt. eigenvalues --    1.57494   1.85831   1.85834   1.89766   2.37819

 Mulliken charges and spin densities:
               1          2
     1  H   -0.001167  -0.000367
     2  H   -0.001871   0.000026
     3  F    0.003038   1.000341
 Sum of Mulliken charges =   0.00000   1.00000

 Dipole moment (field-independent basis, Debye):
    X=              0.0379    Y=              0.0000    Z=              0.0000  Tot=              0.0379
 Quadrupole moment (field-independent basis, Debye-Ang):
   XX=             -6.2162   YY=             -6.8825   ZZ=             -6.0187
   XY=              0.0000   XZ=             -0.0000   YZ=             -0.0152

  Exact polarizability:       7.554      -0.000       1.930      -0.000      -0.008       2.394
 Approx polarizability:       8.540       0.000       2.008      -0.000      -0.010       2.590

 ******    3 imaginary frequencies (negative Signs) ******

                      1                      2                      3
                      A                      A                      A
 Frequencies --  -1178.4059             -1177.4498               -47.7071
 Red. masses --      1.0086                 1.0086                 1.1085
 Frc consts  --      0.8252                 0.8239                 0.0015
 IR Inten    --      0.0007                 0.0005                 0.1006

                      4
                      A
 Frequencies --   5087.5856
 Red. masses --      1.0078
 Frc consts  --     15.3695
 IR Inten    --      0.0387

 - Thermochemistry -
 -------------------
 Temperature   298.150 Kelvin.  Pressure   1.00000 Atm.
 Atom     1 has atomic number  1 and mass   1.00783

 Molecular mass:    21.01405 amu.
 Principal axes and moments of inertia in atomic units:
                           1         2         3
     Eigenvalues --     0.00000 105.00319 105.00319
           X            1.00000  -0.00000   0.00000
           Y            0.00000   1.00000   0.00000
           Z            0.00000   0.00000   1.00000
 This molecule is a prolate symmetric top.
 Rotational symmetry number  1.
 Rotational temperature (Kelvin)      0.82487
 Rotational constant (GHZ):          17.187490
    3 imaginary frequencies ignored.
 Zero-point vibrational energy      30430.5 (Joules/Mol)
                                    7.27307 (Kcal/Mol)
 Vibrational temperatures:   7319.90
          (Kelvin)

 Zero-point correction=                           0.011590 (Hartree/Particle)
 Thermal correction to Energy=                    0.013951
 Thermal correction to Enthalpy=                  0.014895
 Thermal correction to Gibbs Free Energy=        -0.008927
 Sum of electronic and zero-point Energies=           -100.920859
 Sum of electronic and thermal Energies=              -100.918498
 Sum of electronic and thermal Enthalpies=            -100.917554
 Sum of electronic and thermal Free Energies=         -100.941376

                     E (Thermal)             CV                S
                      KCal/Mol        Cal/Mol-Kelvin    Cal/Mol-Kelvin
 Total                    8.754              4.968             50.138
 Electronic               0.000              0.000              1.377
 Translational            0.889              2.981             35.068
 Rotational               0.592              1.987             13.692
 Vibrational              7.273              0.000              0.000

 Normal termination of Gaussian 16 at Fri Aug 22 23:13:42 2025.
