 Gaussian 16, Revision C.01,
 Gaussian 16:  ES64L-G16RevC.01  3-Jul-2019

 -----------------------------------------
 # sp b3lyp/6-311g** Force nosymm scf=(qc)
 -----------------------------------------

 -------------------
 Title Card Required
 -------------------
 Symbolic Z-matrix:
 Charge =  0 Multiplicity = 2

                          Input orientation:
 ---------------------------------------------------------------------
 Center     Atomic      Atomic             Coordinates (Angstroms)
 Number     Number       Type             X           Y           Z
 ---------------------------------------------------------------------
      1          1           0        0.000000    0.000000    0.000000
      2          1           0       -0.500000    0.000000    0.000000
      3          9           0        2.350000    0.000000    0.000000
 ---------------------------------------------------------------------

 SCF Done:  E(UB3LYP) =  -100.861647218     a.u. after   59 cycles

 Alpha  occ. eigenvalues --  -24.76828  -1.22625  -0.55795  -0.49643  -0.46943
 Alpha  occ. eigenvalues --   -0.46220
 Alpha virt. eigenvalues --    0.11631   0.19569   0.56396   0.85593   0.90441
 Alpha virt. eigenvalues --    0.94285   1.12554   1.12596   1.14988   1.62111
 Alpha virt. eigenvalues --    1.85698   2.00098   2.00135   2.40449   3.64492

  Beta  occ. eigenvalues --  -24.73664  -1.13533  -0.49243  -0.43770  -0.43443
  Beta virt. eigenvalues --   -0.26410   0.11755   0.19681   0.56489   0.91930
  Beta virt. eigenvalues --    0.94999   0.96122   1.12592   1.12599   1.18542
  Beta virt. eigenvalues --    1.62129   1.85713   2.00103   2.00134   2.40489

 Mulliken charges and spin densities:
               1          2
     1  H   -0.014296  -0.003025
     2  H   -0.002985   0.000309
     3  F    0.017281   1.002716
 Sum of Mulliken charges =   0.00000   1.00000

 Dipole moment (field-independent basis, Debye):
    X=              0.1520    Y=              0.0000    Z=              0.0000  Tot=              0.1520
 Quadrupole moment (field-independent basis, Debye-Ang):
   XX=             -5.9595   YY=             -6.1667   ZZ=             -6.1678
   XY=             -0.0000   XZ=             -0.0000   YZ=              0.4316

  Exact polarizability:       6.001      -0.000       2.075      -0.000       0.210       2.074
 Approx polarizability:       6.229      -0.000       2.220      -0.000       0.271       2.219

 ******    2 imaginary frequencies (negative Signs) ******

                      1                      2                      3
                      A                      A                      A
 Frequencies --  -4820.2319             -4811.6541               299.5942
 Red. masses --      1.0088                 1.0088                 1.1085
 Frc consts  --     13.8093                13.7602                 0.0586
 IR Inten    --      0.1505                 0.2520                 0.3852

                      4
                      A
 Frequencies --   9961.5935
 Red. masses --      1.0078
 Frc consts  --     58.9241
 IR Inten    --      3.5719

 - Thermochemistry -
 -------------------
 Temperature   298.150 Kelvin.  Pressure   1.00000 Atm.
 Atom     1 has atomic number  1 and mass   1.00783

 Molecular mass:    21.01405 amu.
 Principal axes and moments of inertia in atomic units:
                           1         2         3
     Eigenvalues --     0.00000  44.44118  44.44118
           X            1.00000  -0.00000   0.00000
           Y            0.00000   1.00000   0.00000
           Z            0.00000   0.00000   1.00000
 This molecule is a prolate symmetric top.
 Rotational symmetry number  1.
 Rotational temperature (Kelvin)      1.94896
 Rotational constant (GHZ):          40.609659
    2 imaginary frequencies ignored.
 Zero-point vibrational energy      61375.5 (Joules/Mol)
                                   14.66910 (Kcal/Mol)
 Warning -- explicit consideration of   1 degrees of freedom as
           vibrations may cause significant error
 Vibrational temperatures:    431.05 14332.51
          (Kelvin)

 Zero-point correction=                           0.023377 (Hartree/Particle)
 Thermal correction to Energy=                    0.026158
 Thermal correction to Enthalpy=                  0.027102
 Thermal correction to Gibbs Free Energy=         0.003418
 Sum of electronic and zero-point Energies=           -100.838271
 Sum of electronic and thermal Energies=              -100.835489
 Sum of electronic and thermal Enthalpies=            -100.834545
 Sum of electronic and thermal Free Energies=         -100.858230

                     E (Thermal)             CV                S
                      KCal/Mol        Cal/Mol-Kelvin    Cal/Mol-Kelvin
 Total                   16.414              6.642             49.848
 Electronic               0.000              0.000              1.377
 Translational            0.889              2.981             35.068
 Rotational               0.592              1.987             11.983
 Vibrational             14.933              1.674              1.419
 Vibration     1          0.692              1.674              1.419

 Normal termination of Gaussian 16 at Fri Aug 22 17:23:52 2025.
