 Gaussian 16, Revision C.01,
 Gaussian 16:  ES64L-G16RevC.01  3-Jul-2019

 -----------------------------------------
 # sp b3lyp/6-311g** Force nosymm scf=(qc)
 -----------------------------------------

 -------------------
 Title Card Required
 -------------------
 Symbolic Z-matrix:
 Charge =  0 Multiplicity = 2

                          Input orientation:
 ---------------------------------------------------------------------
 Center     Atomic      Atomic             Coordinates (Angstroms)
 Number     Number       Type             X           Y           Z
 ---------------------------------------------------------------------
      1          1           0        0.000000    0.000000    0.000000
      2          1           0       -2.550000    0.000000    0.000000
      3          9           0        2.250000    0.000000    0.000000
 ---------------------------------------------------------------------

 SCF Done:  E(UB3LYP) =  -100.777733499     a.u. after   13 cycles

 Alpha  occ. eigenvalues --  -24.70085  -1.16374  -0.49151  -0.41314  -0.41314
 Alpha  occ. eigenvalues --   -0.34188
 Alpha virt. eigenvalues --   -0.12781   0.24363   0.32506   0.89126   0.94412
 Alpha virt. eigenvalues --    0.94412   1.06549   1.23446   1.23446   1.26251
 Alpha virt. eigenvalues --    1.36796   1.36796   1.49188   2.14413   2.31229

  Beta  occ. eigenvalues --  -24.67416  -1.08828  -0.38664  -0.38664  -0.36399
  Beta virt. eigenvalues --   -0.22263  -0.09577   0.25421   0.34873   0.93491
  Beta virt. eigenvalues --    0.95575   0.95575   1.08905   1.21813   1.21813
  Beta virt. eigenvalues --    1.39390   1.41775   1.41775   1.43669   2.13387

 Mulliken charges and spin densities:
               1          2
     1  H    0.119827  -0.815423
     2  H    0.012745   0.974137
     3  F   -0.132572   0.841286
 Sum of Mulliken charges =   0.00000   1.00000

 Dipole moment (field-independent basis, Debye):
    X=             -1.6553    Y=              0.0000    Z=             -0.0000  Tot=              1.6553
 Quadrupole moment (field-independent basis, Debye-Ang):
   XX=             -9.2272   YY=             -7.5708   ZZ=             -7.5708
   XY=              0.0000   XZ=             -0.0000   YZ=              0.0000

  Exact polarizability:      39.827       0.000       2.029      -0.000      -0.000       2.029
 Approx polarizability:      46.230       0.000       1.925      -0.000      -0.000       1.925

 ******    2 imaginary frequencies (negative Signs) ******

                      1                      2                      3
                      A                      A                      A
 Frequencies --   -931.6775              -361.4058               383.7958
 Red. masses --      1.0343                 1.0781                 1.0195
 Frc consts  --      0.5290                 0.0830                 0.0885
 IR Inten    --     77.9261                17.3027                12.0249

                      4
                      A
 Frequencies --    383.7958
 Red. masses --      1.0195
 Frc consts  --      0.0885
 IR Inten    --     12.0249

 - Thermochemistry -
 -------------------
 Temperature   298.150 Kelvin.  Pressure   1.00000 Atm.
 Atom     1 has atomic number  1 and mass   1.00783

 Molecular mass:    21.01405 amu.
 Principal axes and moments of inertia in atomic units:
                           1         2         3
     Eigenvalues --     0.00000  92.56214  92.56214
           X            1.00000  -0.00000   0.00000
           Y            0.00000   1.00000   0.00000
           Z            0.00000   0.00000   1.00000
 This molecule is a prolate symmetric top.
 Rotational symmetry number  1.
 Rotational temperature (Kelvin)      0.93574
 Rotational constant (GHZ):          19.497617
    2 imaginary frequencies ignored.
 Zero-point vibrational energy       4591.2 (Joules/Mol)
                                    1.09733 (Kcal/Mol)
 Warning -- explicit consideration of   2 degrees of freedom as
           vibrations may cause significant error
 Vibrational temperatures:    552.20   552.20
          (Kelvin)

 Zero-point correction=                           0.001749 (Hartree/Particle)
 Thermal correction to Energy=                    0.004760
 Thermal correction to Enthalpy=                  0.005704
 Thermal correction to Gibbs Free Energy=        -0.018972
 Sum of electronic and zero-point Energies=           -100.775985
 Sum of electronic and thermal Energies=              -100.772973
 Sum of electronic and thermal Enthalpies=            -100.772029
 Sum of electronic and thermal Free Energies=         -100.796705

                     E (Thermal)             CV                S
                      KCal/Mol        Cal/Mol-Kelvin    Cal/Mol-Kelvin
 Total                    2.987              7.978             51.935
 Electronic               0.000              0.000              1.377
 Translational            0.889              2.981             35.068
 Rotational               0.592              1.987             13.441
 Vibrational              1.506              3.010              2.048
 Vibration     1          0.753              1.505              1.024
 Vibration     2          0.753              1.505              1.024

 Normal termination of Gaussian 16 at Fri Aug 22 17:16:55 2025.
