 Gaussian 16, Revision C.01,
 Gaussian 16:  ES64L-G16RevC.01  3-Jul-2019

 -----------------------------------------
 # sp b3lyp/6-311g** Force nosymm scf=(qc)
 -----------------------------------------

 -------------------
 Title Card Required
 -------------------
 Symbolic Z-matrix:
 Charge =  0 Multiplicity = 2

                          Input orientation:
 ---------------------------------------------------------------------
 Center     Atomic      Atomic             Coordinates (Angstroms)
 Number     Number       Type             X           Y           Z
 ---------------------------------------------------------------------
      1          1           0        0.000000    0.000000    0.000000
      2          1           0       -1.700000    0.000000    0.000000
      3          9           0        1.050000    0.000000    0.000000
 ---------------------------------------------------------------------

 SCF Done:  E(UB3LYP) =  -100.960090938     a.u. after    6 cycles

 Alpha  occ. eigenvalues --  -24.63557  -1.14457  -0.51121  -0.37899  -0.37899
 Alpha  occ. eigenvalues --   -0.36975
 Alpha virt. eigenvalues --    0.04348   0.22289   0.32018   0.94219   0.94219
 Alpha virt. eigenvalues --    0.99469   1.12076   1.18680   1.18680   1.37898
 Alpha virt. eigenvalues --    1.37898   1.52187   1.87825   2.27871   2.34563

  Beta  occ. eigenvalues --  -24.63354  -1.13953  -0.49862  -0.37720  -0.37720
  Beta virt. eigenvalues --   -0.15088   0.07080   0.28714   0.34878   0.94278
  Beta virt. eigenvalues --    0.94278   1.00007   1.21261   1.31224   1.31224
  Beta virt. eigenvalues --    1.42640   1.42640   1.56118   1.96013   2.34073

 Mulliken charges and spin densities:
               1          2
     1  H    0.305840  -0.001402
     2  H    0.030916   0.945749
     3  F   -0.336756   0.055654
 Sum of Mulliken charges =   0.00000   1.00000

 Dipole moment (field-independent basis, Debye):
    X=             -2.3876    Y=              0.0000    Z=             -0.0000  Tot=              2.3876
 Quadrupole moment (field-independent basis, Debye-Ang):
   XX=             -7.7752   YY=             -6.9180   ZZ=             -6.9180
   XY=              0.0000   XZ=             -0.0000   YZ=              0.0000

  Exact polarizability:      13.270      -0.000       2.473      -0.000      -0.000       2.473
 Approx polarizability:      14.842      -0.000       2.457      -0.000      -0.000       2.457

 ******    1 imaginary frequencies (negative Signs) ******

                      1                      2                      3
                      A                      A                      A
 Frequencies --   -166.6164              1041.5030              1041.5030
 Red. masses --      1.0462                 1.0247                 1.0247
 Frc consts  --      0.0171                 0.6549                 0.6549
 IR Inten    --      5.8315               108.3092               108.3092

                      4
                      A
 Frequencies --   2269.2436
 Red. masses --      1.0655
 Frc consts  --      3.2327
 IR Inten    --    220.8378

 - Thermochemistry -
 -------------------
 Temperature   298.150 Kelvin.  Pressure   1.00000 Atm.
 Atom     1 has atomic number  1 and mass   1.00783

 Molecular mass:    21.01405 amu.
 Principal axes and moments of inertia in atomic units:
                           1         2         3
     Eigenvalues --     0.00000  28.69297  28.69297
           X            1.00000  -0.00000   0.00000
           Y            0.00000   1.00000   0.00000
           Z            0.00000   0.00000   1.00000
 This molecule is a prolate symmetric top.
 Rotational symmetry number  1.
 Rotational temperature (Kelvin)      3.01865
 Rotational constant (GHZ):          62.898386
    1 imaginary frequencies ignored.
 Zero-point vibrational energy      26032.2 (Joules/Mol)
                                    6.22185 (Kcal/Mol)
 Vibrational temperatures:   1498.49  1498.49  3264.94
          (Kelvin)

 Zero-point correction=                           0.009915 (Hartree/Particle)
 Thermal correction to Energy=                    0.012339
 Thermal correction to Enthalpy=                  0.013283
 Thermal correction to Gibbs Free Energy=        -0.009390
 Sum of electronic and zero-point Energies=           -100.950176
 Sum of electronic and thermal Energies=              -100.947752
 Sum of electronic and thermal Enthalpies=            -100.946808
 Sum of electronic and thermal Free Energies=         -100.969481

                     E (Thermal)             CV                S
                      KCal/Mol        Cal/Mol-Kelvin    Cal/Mol-Kelvin
 Total                    7.743              5.640             47.718
 Electronic               0.000              0.000              1.377
 Translational            0.889              2.981             35.068
 Rotational               0.592              1.987             11.114
 Vibrational              6.261              0.672              0.159

 Normal termination of Gaussian 16 at Fri Aug 22 16:02:43 2025.
