 Gaussian 16, Revision C.01,
 Gaussian 16:  ES64L-G16RevC.01  3-Jul-2019

 -----------------------------------------
 # sp b3lyp/6-311g** Force nosymm scf=(qc)
 -----------------------------------------

 -------------------
 Title Card Required
 -------------------
 Symbolic Z-matrix:
 Charge =  0 Multiplicity = 2

                          Input orientation:
 ---------------------------------------------------------------------
 Center     Atomic      Atomic             Coordinates (Angstroms)
 Number     Number       Type             X           Y           Z
 ---------------------------------------------------------------------
      1          1           0        0.000000    0.000000    0.000000
      2          1           0       -3.250000    0.000000    0.000000
      3          9           0        0.600000    0.000000    0.000000
 ---------------------------------------------------------------------

 SCF Done:  E(UB3LYP) =  -100.687951018     a.u. after    6 cycles

 Alpha  occ. eigenvalues --  -24.62727  -1.34722  -0.61023  -0.42975  -0.42975
 Alpha  occ. eigenvalues --   -0.33509
 Alpha virt. eigenvalues --    0.07495   0.25320   0.58064   0.92128   0.92128
 Alpha virt. eigenvalues --    0.93150   1.23409   1.24007   1.24007   1.35524
 Alpha virt. eigenvalues --    1.50271   1.50271   1.95552   2.15061   3.36536

  Beta  occ. eigenvalues --  -24.62726  -1.34719  -0.61022  -0.42974  -0.42974
  Beta virt. eigenvalues --   -0.05493   0.08209   0.39485   0.58154   0.92127
  Beta virt. eigenvalues --    0.92127   0.93149   1.33862   1.50273   1.50273
  Beta virt. eigenvalues --    1.50626   1.50626   1.51883   1.95501   2.44990

 Mulliken charges and spin densities:
               1          2
     1  H    0.237350   0.000797
     2  H    0.001179   0.998520
     3  F   -0.238530   0.000684
 Sum of Mulliken charges =   0.00000   1.00000

 Dipole moment (field-independent basis, Debye):
    X=             -1.4477    Y=             -0.0000    Z=             -0.0000  Tot=              1.4477
 Quadrupole moment (field-independent basis, Debye-Ang):
   XX=             -6.9370   YY=             -6.5519   ZZ=             -6.5519
   XY=             -0.0000   XZ=             -0.0000   YZ=             -0.0000

  Exact polarizability:       3.678      -0.000       2.442       0.000      -0.000       2.442
 Approx polarizability:       3.876       0.000       2.422       0.000      -0.000       2.422

 ******    3 imaginary frequencies (negative Signs) ******

                      1                      2                      3
                      A                      A                      A
 Frequencies --  -5876.7966             -5876.7966               -33.2166
 Red. masses --      1.0430                 1.0430                 1.0532
 Frc consts  --     21.2230                21.2230                 0.0007
 IR Inten    --    238.2508               238.2508                 0.0469

                      4
                      A
 Frequencies --  13070.6775
 Red. masses --      1.0583
 Frc consts  --    106.5271
 IR Inten    --     99.3564

 - Thermochemistry -
 -------------------
 Temperature   298.150 Kelvin.  Pressure   1.00000 Atm.
 Atom     1 has atomic number  1 and mass   1.00783

 Molecular mass:    21.01405 amu.
 Principal axes and moments of inertia in atomic units:
                           1         2         3
     Eigenvalues --     0.00000  51.22390  51.22390
           X            1.00000  -0.00000   0.00000
           Y            0.00000   1.00000   0.00000
           Z            0.00000   0.00000   1.00000
 This molecule is a prolate symmetric top.
 Rotational symmetry number  1.
 Rotational temperature (Kelvin)      1.69089
 Rotational constant (GHZ):          35.232406
    3 imaginary frequencies ignored.
 Zero-point vibrational energy      78180.0 (Joules/Mol)
                                   18.68547 (Kcal/Mol)
 Vibrational temperatures:  18805.79
          (Kelvin)

 Zero-point correction=                           0.029777 (Hartree/Particle)
 Thermal correction to Energy=                    0.032138
 Thermal correction to Enthalpy=                  0.033082
 Thermal correction to Gibbs Free Energy=         0.009938
 Sum of electronic and zero-point Energies=           -100.658174
 Sum of electronic and thermal Energies=              -100.655813
 Sum of electronic and thermal Enthalpies=            -100.654869
 Sum of electronic and thermal Free Energies=         -100.678013

                     E (Thermal)             CV                S
                      KCal/Mol        Cal/Mol-Kelvin    Cal/Mol-Kelvin
 Total                   20.167              4.968             48.711
 Electronic               0.000              0.000              1.377
 Translational            0.889              2.981             35.068
 Rotational               0.592              1.987             12.266
 Vibrational             18.685              0.000              0.000

 Normal termination of Gaussian 16 at Fri Aug 22 15:42:31 2025.
