 Gaussian 16, Revision C.01,
 Gaussian 16:  ES64L-G16RevC.01  3-Jul-2019

 -----------------------------------------
 # sp b3lyp/6-311g** Force nosymm scf=(qc)
 -----------------------------------------

 -------------------
 Title Card Required
 -------------------
 Symbolic Z-matrix:
 Charge =  0 Multiplicity = 2

                          Input orientation:
 ---------------------------------------------------------------------
 Center     Atomic      Atomic             Coordinates (Angstroms)
 Number     Number       Type             X           Y           Z
 ---------------------------------------------------------------------
      1          1           0        0.000000    0.000000    0.000000
      2          1           0       -2.050000    0.000000    0.000000
      3          9           0        3.300000    0.000000    0.000000
 ---------------------------------------------------------------------

 SCF Done:  E(UB3LYP) =  -100.773004786     a.u. after   31 cycles

 Alpha  occ. eigenvalues --  -24.75195  -1.21170  -0.54316  -0.45607  -0.45607
 Alpha  occ. eigenvalues --   -0.33234
 Alpha virt. eigenvalues --   -0.11152   0.25766   0.32295   0.88354   0.91590
 Alpha virt. eigenvalues --    0.91590   1.02394   1.18816   1.24720   1.24720
 Alpha virt. eigenvalues --    1.37814   1.37814   1.49049   2.13000   2.36226

  Beta  occ. eigenvalues --  -24.72098  -1.12277  -0.42504  -0.42504  -0.33365
  Beta virt. eigenvalues --   -0.25432  -0.10747   0.25774   0.32882   0.93073
  Beta virt. eigenvalues --    0.93073   0.97392   1.06394   1.18731   1.24538
  Beta virt. eigenvalues --    1.24538   1.38412   1.38412   1.49510   2.13863

 Mulliken charges and spin densities:
               1          2
     1  H    0.007756  -0.861647
     2  H    0.008221   0.879927
     3  F   -0.015978   0.981720
 Sum of Mulliken charges =   0.00000   1.00000

 Dipole moment (field-independent basis, Debye):
    X=             -0.3504    Y=             -0.0000    Z=             -0.0000  Tot=              0.3504
 Quadrupole moment (field-independent basis, Debye-Ang):
   XX=             -6.9291   YY=             -7.7151   ZZ=             -7.7151
   XY=              0.0000   XZ=              0.0000   YZ=              0.0000

  Exact polarizability:      49.932       0.000       2.011       0.000      -0.000       2.011
 Approx polarizability:      42.281       0.000       1.933       0.000       0.000       1.933

 ******    2 imaginary frequencies (negative Signs) ******

                      1                      2                      3
                      A                      A                      A
 Frequencies --  -1270.5967              -174.8338               507.4183
 Red. masses --      1.0079                 1.1084                 1.0132
 Frc consts  --      0.9587                 0.0200                 0.1537
 IR Inten    --     17.8077                13.6658                 0.0165

                      4
                      A
 Frequencies --    507.4183
 Red. masses --      1.0132
 Frc consts  --      0.1537
 IR Inten    --      0.0165

 - Thermochemistry -
 -------------------
 Temperature   298.150 Kelvin.  Pressure   1.00000 Atm.
 Atom     1 has atomic number  1 and mass   1.00783

 Molecular mass:    21.01405 amu.
 Principal axes and moments of inertia in atomic units:
                           1         2         3
     Eigenvalues --     0.00000 129.29094 129.29094
           X            1.00000  -0.00000   0.00000
           Y            0.00000   1.00000   0.00000
           Z            0.00000   0.00000   1.00000
 This molecule is a prolate symmetric top.
 Rotational symmetry number  1.
 Rotational temperature (Kelvin)      0.66991
 Rotational constant (GHZ):          13.958760
    2 imaginary frequencies ignored.
 Zero-point vibrational energy       6070.1 (Joules/Mol)
                                    1.45078 (Kcal/Mol)
 Warning -- explicit consideration of   2 degrees of freedom as
           vibrations may cause significant error
 Vibrational temperatures:    730.06   730.06
          (Kelvin)

 Zero-point correction=                           0.002312 (Hartree/Particle)
 Thermal correction to Energy=                    0.005110
 Thermal correction to Enthalpy=                  0.006054
 Thermal correction to Gibbs Free Energy=        -0.018572
 Sum of electronic and zero-point Energies=           -100.770693
 Sum of electronic and thermal Energies=              -100.767895
 Sum of electronic and thermal Enthalpies=            -100.766951
 Sum of electronic and thermal Free Energies=         -100.791577

                     E (Thermal)             CV                S
                      KCal/Mol        Cal/Mol-Kelvin    Cal/Mol-Kelvin
 Total                    3.206              7.435             51.831
 Electronic               0.000              0.000              1.377
 Translational            0.889              2.981             35.068
 Rotational               0.592              1.987             14.106
 Vibrational              1.725              2.467              1.280
 Vibration     1          0.863              1.234              0.640
 Vibration     2          0.863              1.234              0.640

 Normal termination of Gaussian 16 at Fri Aug 22 20:48:14 2025.
