 Gaussian 16, Revision C.01,
 Gaussian 16:  ES64L-G16RevC.01  3-Jul-2019

 -----------------------------------------
 # sp b3lyp/6-311g** Force nosymm scf=(qc)
 -----------------------------------------

 -------------------
 Title Card Required
 -------------------
 Symbolic Z-matrix:
 Charge =  0 Multiplicity = 2

                          Input orientation:
 ---------------------------------------------------------------------
 Center     Atomic      Atomic             Coordinates (Angstroms)
 Number     Number       Type             X           Y           Z
 ---------------------------------------------------------------------
      1          1           0        0.000000    0.000000    0.000000
      2          1           0       -1.400000    0.000000    0.000000
      3          9           0        0.700000    0.000000    0.000000
 ---------------------------------------------------------------------

 SCF Done:  E(UB3LYP) =  -100.866314419     a.u. after    7 cycles

 Alpha  occ. eigenvalues --  -24.63324  -1.28669  -0.59857  -0.41941  -0.41941
 Alpha  occ. eigenvalues --   -0.35976
 Alpha virt. eigenvalues --    0.14004   0.21169   0.54811   0.92799   0.92799
 Alpha virt. eigenvalues --    0.94716   1.15449   1.15449   1.39135   1.50821
 Alpha virt. eigenvalues --    1.50821   1.60596   1.99675   2.21155   3.23345

  Beta  occ. eigenvalues --  -24.63160  -1.28196  -0.58869  -0.41812  -0.41812
  Beta virt. eigenvalues --   -0.12842   0.15182   0.28727   0.59507   0.93081
  Beta virt. eigenvalues --    0.93081   0.95083   1.27467   1.27467   1.42912
  Beta virt. eigenvalues --    1.55890   1.55890   1.70359   1.99843   2.42613

 Mulliken charges and spin densities:
               1          2
     1  H    0.247739   0.013124
     2  H    0.011815   0.961116
     3  F   -0.259554   0.025760
 Sum of Mulliken charges =   0.00000   1.00000

 Dipole moment (field-independent basis, Debye):
    X=             -1.6077    Y=             -0.0000    Z=             -0.0000  Tot=              1.6077
 Quadrupole moment (field-independent basis, Debye-Ang):
   XX=             -7.1232   YY=             -6.5575   ZZ=             -6.5575
   XY=             -0.0000   XZ=             -0.0000   YZ=              0.0000

  Exact polarizability:       7.490       0.000       2.547      -0.000      -0.000       2.547
 Approx polarizability:       7.300       0.000       2.564       0.000      -0.000       2.564

 ******    2 imaginary frequencies (negative Signs) ******

                      1                      2                      3
                      A                      A                      A
 Frequencies --  -3475.7172             -3475.7172               982.0499
 Red. masses --      1.0281                 1.0281                 1.0536
 Frc consts  --      7.3174                 7.3174                 0.5987
 IR Inten    --    145.3333               145.3333                 7.8601

                      4
                      A
 Frequencies --   9044.2425
 Red. masses --      1.0579
 Frc consts  --     50.9870
 IR Inten    --    138.6238

 - Thermochemistry -
 -------------------
 Temperature   298.150 Kelvin.  Pressure   1.00000 Atm.
 Atom     1 has atomic number  1 and mass   1.00783

 Molecular mass:    21.01405 amu.
 Principal axes and moments of inertia in atomic units:
                           1         2         3
     Eigenvalues --     0.00000  16.28190  16.28190
           X            1.00000  -0.00000   0.00000
           Y            0.00000   1.00000   0.00000
           Z            0.00000   0.00000   1.00000
 This molecule is a prolate symmetric top.
 Rotational symmetry number  1.
 Rotational temperature (Kelvin)      5.31964
 Rotational constant (GHZ):         110.843378
    2 imaginary frequencies ignored.
 Zero-point vibrational energy      59970.5 (Joules/Mol)
                                   14.33330 (Kcal/Mol)
 Vibrational temperatures:   1412.95 13012.65
          (Kelvin)

 Zero-point correction=                           0.022842 (Hartree/Particle)
 Thermal correction to Energy=                    0.025242
 Thermal correction to Enthalpy=                  0.026186
 Thermal correction to Gibbs Free Energy=         0.004076
 Sum of electronic and zero-point Energies=           -100.843473
 Sum of electronic and thermal Energies=              -100.841073
 Sum of electronic and thermal Enthalpies=            -100.840129
 Sum of electronic and thermal Free Energies=         -100.862239

                     E (Thermal)             CV                S
                      KCal/Mol        Cal/Mol-Kelvin    Cal/Mol-Kelvin
 Total                   15.839              5.365             46.534
 Electronic               0.000              0.000              1.377
 Translational            0.889              2.981             35.068
 Rotational               0.592              1.987              9.988
 Vibrational             14.358              0.397              0.101

 Normal termination of Gaussian 16 at Fri Aug 22 15:46:00 2025.
