 Gaussian 16, Revision C.01,
 Gaussian 16:  ES64L-G16RevC.01  3-Jul-2019

 -----------------------------------------
 # sp b3lyp/6-311g** Force nosymm scf=(qc)
 -----------------------------------------

 -------------------
 Title Card Required
 -------------------
 Symbolic Z-matrix:
 Charge =  0 Multiplicity = 2

                          Input orientation:
 ---------------------------------------------------------------------
 Center     Atomic      Atomic             Coordinates (Angstroms)
 Number     Number       Type             X           Y           Z
 ---------------------------------------------------------------------
      1          1           0        0.000000    0.000000    0.000000
      2          1           0       -3.050000    0.000000    0.000000
      3          9           0        3.050000    0.000000    0.000000
 ---------------------------------------------------------------------

 SCF Done:  E(UB3LYP) =  -100.761466321     a.u. after   22 cycles

 Alpha  occ. eigenvalues --  -24.74277  -1.20322  -0.53396  -0.44834  -0.44834
 Alpha  occ. eigenvalues --   -0.32659
 Alpha virt. eigenvalues --   -0.08794   0.24625   0.35300   0.89268   0.92161
 Alpha virt. eigenvalues --    0.92161   1.03650   1.24875   1.24875   1.25561
 Alpha virt. eigenvalues --    1.42845   1.42845   1.43179   2.15458   2.39218

  Beta  occ. eigenvalues --  -24.71237  -1.11606  -0.41791  -0.41791  -0.33639
  Beta virt. eigenvalues --   -0.24887  -0.07493   0.24581   0.36863   0.93626
  Beta virt. eigenvalues --    0.93626   0.98048   1.07469   1.23734   1.23734
  Beta virt. eigenvalues --    1.24507   1.44759   1.44853   1.44853   2.15920

 Mulliken charges and spin densities:
               1          2
     1  H    0.031904  -0.956923
     2  H    0.001315   0.993515
     3  F   -0.033219   0.963408
 Sum of Mulliken charges =  -0.00000   1.00000

 Dipole moment (field-independent basis, Debye):
    X=             -0.5396    Y=             -0.0000    Z=             -0.0000  Tot=              0.5396
 Quadrupole moment (field-independent basis, Debye-Ang):
   XX=             -8.1126   YY=             -7.6222   ZZ=             -7.6222
   XY=             -0.0000   XZ=             -0.0000   YZ=              0.0000

  Exact polarizability:      34.193      -0.000       2.023      -0.000      -0.000       2.023
 Approx polarizability:      32.782      -0.000       1.925      -0.000       0.000       1.925

 ******    2 imaginary frequencies (negative Signs) ******

                      1                      2                      3
                      A                      A                      A
 Frequencies --   -419.2462              -176.2133               152.9877
 Red. masses --      1.0261                 1.0872                 1.0179
 Frc consts  --      0.1063                 0.0199                 0.0140
 IR Inten    --     31.7859                 4.9857                 0.9073

                      4
                      A
 Frequencies --    152.9877
 Red. masses --      1.0179
 Frc consts  --      0.0140
 IR Inten    --      0.9073

 - Thermochemistry -
 -------------------
 Temperature   298.150 Kelvin.  Pressure   1.00000 Atm.
 Atom     1 has atomic number  1 and mass   1.00783

 Molecular mass:    21.01405 amu.
 Principal axes and moments of inertia in atomic units:
                           1         2         3
     Eigenvalues --     0.00000 152.94780 152.94780
           X            1.00000  -0.00000   0.00000
           Y            0.00000   1.00000   0.00000
           Z            0.00000   0.00000   1.00000
 This molecule is a prolate symmetric top.
 Rotational symmetry number  1.
 Rotational temperature (Kelvin)      0.56630
 Rotational constant (GHZ):          11.799720
    2 imaginary frequencies ignored.
 Zero-point vibrational energy       1830.1 (Joules/Mol)
                                    0.43741 (Kcal/Mol)
 Warning -- explicit consideration of   2 degrees of freedom as
           vibrations may cause significant error
 Vibrational temperatures:    220.12   220.12
          (Kelvin)

 Zero-point correction=                           0.000697 (Hartree/Particle)
 Thermal correction to Energy=                    0.004334
 Thermal correction to Enthalpy=                  0.005278
 Thermal correction to Gibbs Free Energy=        -0.021403
 Sum of electronic and zero-point Energies=           -100.760769
 Sum of electronic and thermal Energies=              -100.757132
 Sum of electronic and thermal Enthalpies=            -100.756188
 Sum of electronic and thermal Free Energies=         -100.782869

                     E (Thermal)             CV                S
                      KCal/Mol        Cal/Mol-Kelvin    Cal/Mol-Kelvin
 Total                    2.720              8.767             56.154
 Electronic               0.000              0.000              1.377
 Translational            0.889              2.981             35.068
 Rotational               0.592              1.987             14.439
 Vibrational              1.238              3.799              5.269
 Vibration     1          0.619              1.899              2.635
 Vibration     2          0.619              1.899              2.635

 Normal termination of Gaussian 16 at Fri Aug 22 19:44:50 2025.
