 Gaussian 16, Revision C.01,
 Gaussian 16:  ES64L-G16RevC.01  3-Jul-2019

 -----------------------------------------
 # sp b3lyp/6-311g** Force nosymm scf=(qc)
 -----------------------------------------

 -------------------
 Title Card Required
 -------------------
 Symbolic Z-matrix:
 Charge =  0 Multiplicity = 2

                          Input orientation:
 ---------------------------------------------------------------------
 Center     Atomic      Atomic             Coordinates (Angstroms)
 Number     Number       Type             X           Y           Z
 ---------------------------------------------------------------------
      1          1           0        0.000000    0.000000    0.000000
      2          1           0       -1.500000    0.000000    0.000000
      3          9           0        1.500000    0.000000    0.000000
 ---------------------------------------------------------------------

 SCF Done:  E(UB3LYP) =  -100.877412633     a.u. after   12 cycles

 Alpha  occ. eigenvalues --  -24.64947  -1.11656  -0.47224  -0.38571  -0.37244
 Alpha  occ. eigenvalues --   -0.37244
 Alpha virt. eigenvalues --   -0.06732   0.20887   0.29019   0.93489   0.93489
 Alpha virt. eigenvalues --    0.96385   1.03355   1.15104   1.15104   1.40272
 Alpha virt. eigenvalues --    1.40272   1.47810   1.85655   2.18119   2.42122

  Beta  occ. eigenvalues --  -24.63516  -1.07820  -0.41568  -0.35874  -0.35874
  Beta virt. eigenvalues --   -0.21721  -0.03389   0.24127   0.30267   0.93572
  Beta virt. eigenvalues --    0.93572   1.01289   1.06308   1.21796   1.21796
  Beta virt. eigenvalues --    1.42019   1.42019   1.52788   1.89586   2.22111

 Mulliken charges and spin densities:
               1          2
     1  H    0.242124  -0.210653
     2  H    0.071934   0.767393
     3  F   -0.314058   0.443260
 Sum of Mulliken charges =   0.00000   1.00000

 Dipole moment (field-independent basis, Debye):
    X=             -2.8380    Y=             -0.0000    Z=             -0.0000  Tot=              2.8380
 Quadrupole moment (field-independent basis, Debye-Ang):
   XX=             -8.1895   YY=             -7.2309   ZZ=             -7.2309
   XY=             -0.0000   XZ=             -0.0000   YZ=              0.0000

  Exact polarizability:      35.125      -0.000       2.299      -0.000       0.000       2.299
 Approx polarizability:      50.850      -0.000       2.241      -0.000      -0.000       2.241

 ******    2 imaginary frequencies (negative Signs) ******

                      1                      2                      3
                      A                      A                      A
 Frequencies --  -2602.2472              -415.0028              1067.0369
 Red. masses --      1.0234                 1.0903                 1.0179
 Frc consts  --      4.0830                 0.1106                 0.6829
 IR Inten    --    298.8045                 6.6458                28.3717

                      4
                      A
 Frequencies --   1067.0369
 Red. masses --      1.0179
 Frc consts  --      0.6829
 IR Inten    --     28.3717

 - Thermochemistry -
 -------------------
 Temperature   298.150 Kelvin.  Pressure   1.00000 Atm.
 Atom     1 has atomic number  1 and mass   1.00783

 Molecular mass:    21.01405 amu.
 Principal axes and moments of inertia in atomic units:
                           1         2         3
     Eigenvalues --     0.00000  36.99356  36.99356
           X            1.00000  -0.00000   0.00000
           Y            0.00000   1.00000   0.00000
           Z            0.00000   0.00000   1.00000
 This molecule is a prolate symmetric top.
 Rotational symmetry number  1.
 Rotational temperature (Kelvin)      2.34132
 Rotational constant (GHZ):          48.785286
    2 imaginary frequencies ignored.
 Zero-point vibrational energy      12764.6 (Joules/Mol)
                                    3.05081 (Kcal/Mol)
 Vibrational temperatures:   1535.23  1535.23
          (Kelvin)

 Zero-point correction=                           0.004862 (Hartree/Particle)
 Thermal correction to Energy=                    0.007279
 Thermal correction to Enthalpy=                  0.008223
 Thermal correction to Gibbs Free Energy=        -0.014682
 Sum of electronic and zero-point Energies=           -100.872551
 Sum of electronic and thermal Energies=              -100.870134
 Sum of electronic and thermal Enthalpies=            -100.869189
 Sum of electronic and thermal Free Energies=         -100.892094

                     E (Thermal)             CV                S
                      KCal/Mol        Cal/Mol-Kelvin    Cal/Mol-Kelvin
 Total                    4.568              5.587             48.207
 Electronic               0.000              0.000              1.377
 Translational            0.889              2.981             35.068
 Rotational               0.592              1.987             11.619
 Vibrational              3.086              0.619              0.143

 Normal termination of Gaussian 16 at Fri Aug 22 16:25:04 2025.
