 Gaussian 16, Revision C.01,
 Gaussian 16:  ES64L-G16RevC.01  3-Jul-2019

 -----------------------------------------
 # sp b3lyp/6-311g** Force nosymm scf=(qc)
 -----------------------------------------

 -------------------
 Title Card Required
 -------------------
 Symbolic Z-matrix:
 Charge =  0 Multiplicity = 2

                          Input orientation:
 ---------------------------------------------------------------------
 Center     Atomic      Atomic             Coordinates (Angstroms)
 Number     Number       Type             X           Y           Z
 ---------------------------------------------------------------------
      1          1           0        0.000000    0.000000    0.000000
      2          1           0       -3.600000    0.000000    0.000000
      3          9           0        0.650000    0.000000    0.000000
 ---------------------------------------------------------------------

 SCF Done:  E(UB3LYP) =  -100.800676070     a.u. after    6 cycles

 Alpha  occ. eigenvalues --  -24.62936  -1.31317  -0.59803  -0.42358  -0.42358
 Alpha  occ. eigenvalues --   -0.33315
 Alpha virt. eigenvalues --    0.06957   0.24836   0.55423   0.92879   0.92879
 Alpha virt. eigenvalues --    0.94691   1.23994   1.24194   1.24194   1.32362
 Alpha virt. eigenvalues --    1.46908   1.46908   1.95986   2.14561   3.09628

  Beta  occ. eigenvalues --  -24.62936  -1.31316  -0.59802  -0.42358  -0.42358
  Beta virt. eigenvalues --   -0.05228   0.07340   0.39305   0.55421   0.92879
  Beta virt. eigenvalues --    0.92879   0.94686   1.31915   1.46909   1.46909
  Beta virt. eigenvalues --    1.50422   1.50422   1.50712   1.95976   2.44823

 Mulliken charges and spin densities:
               1          2
     1  H    0.254770   0.000479
     2  H    0.000616   0.999265
     3  F   -0.255386   0.000256
 Sum of Mulliken charges =   0.00000   1.00000

 Dipole moment (field-independent basis, Debye):
    X=             -1.5128    Y=              0.0000    Z=             -0.0000  Tot=              1.5128
 Quadrupole moment (field-independent basis, Debye-Ang):
   XX=             -7.1365   YY=             -6.6080   ZZ=             -6.6080
   XY=              0.0000   XZ=              0.0000   YZ=             -0.0000

  Exact polarizability:       3.621       0.000       2.443      -0.000       0.000       2.443
 Approx polarizability:       3.911      -0.000       2.423       0.000       0.000       2.423

 ******    3 imaginary frequencies (negative Signs) ******

                      1                      2                      3
                      A                      A                      A
 Frequencies --  -4600.9606             -4600.9606               -36.7231
 Red. masses --      1.0433                 1.0433                 1.0532
 Frc consts  --     13.0117                13.0117                 0.0008
 IR Inten    --    226.7190               226.7190                 0.0195

                      4
                      A
 Frequencies --  10873.4387
 Red. masses --      1.0583
 Frc consts  --     73.7221
 IR Inten    --    102.4912

 - Thermochemistry -
 -------------------
 Temperature   298.150 Kelvin.  Pressure   1.00000 Atm.
 Atom     1 has atomic number  1 and mass   1.00783

 Molecular mass:    21.01405 amu.
 Principal axes and moments of inertia in atomic units:
                           1         2         3
     Eigenvalues --     0.00000  62.38338  62.38338
           X            1.00000  -0.00000   0.00000
           Y            0.00000   1.00000   0.00000
           Z            0.00000   0.00000   1.00000
 This molecule is a prolate symmetric top.
 Rotational symmetry number  1.
 Rotational temperature (Kelvin)      1.38841
 Rotational constant (GHZ):          28.929840
    3 imaginary frequencies ignored.
 Zero-point vibrational energy      65037.6 (Joules/Mol)
                                   15.54436 (Kcal/Mol)
 Vibrational temperatures:  15644.45
          (Kelvin)

 Zero-point correction=                           0.024772 (Hartree/Particle)
 Thermal correction to Energy=                    0.027132
 Thermal correction to Enthalpy=                  0.028076
 Thermal correction to Gibbs Free Energy=         0.004746
 Sum of electronic and zero-point Energies=           -100.775905
 Sum of electronic and thermal Energies=              -100.773544
 Sum of electronic and thermal Enthalpies=            -100.772600
 Sum of electronic and thermal Free Energies=         -100.795930

                     E (Thermal)             CV                S
                      KCal/Mol        Cal/Mol-Kelvin    Cal/Mol-Kelvin
 Total                   17.026              4.968             49.103
 Electronic               0.000              0.000              1.377
 Translational            0.889              2.981             35.068
 Rotational               0.592              1.987             12.657
 Vibrational             15.544              0.000              0.000

 Normal termination of Gaussian 16 at Fri Aug 22 15:45:05 2025.
