 Gaussian 16, Revision C.01,
 Gaussian 16:  ES64L-G16RevC.01  3-Jul-2019

 -----------------------------------------
 # sp b3lyp/6-311g** Force nosymm scf=(qc)
 -----------------------------------------

 -------------------
 Title Card Required
 -------------------
 Symbolic Z-matrix:
 Charge =  0 Multiplicity = 2

                          Input orientation:
 ---------------------------------------------------------------------
 Center     Atomic      Atomic             Coordinates (Angstroms)
 Number     Number       Type             X           Y           Z
 ---------------------------------------------------------------------
      1          1           0        0.000000    0.000000    0.000000
      2          1           0       -2.400000    0.000000    0.000000
      3          9           0        1.450000    0.000000    0.000000
 ---------------------------------------------------------------------

 SCF Done:  E(UB3LYP) =  -100.867540622     a.u. after    8 cycles

 Alpha  occ. eigenvalues --  -24.63998  -1.09826  -0.43965  -0.36271  -0.36271
 Alpha  occ. eigenvalues --   -0.35911
 Alpha virt. eigenvalues --   -0.12083   0.23419   0.26683   0.93648   0.93648
 Alpha virt. eigenvalues --    1.03570   1.12317   1.21546   1.21546   1.25972
 Alpha virt. eigenvalues --    1.32681   1.32681   1.73922   2.12205   2.21615

  Beta  occ. eigenvalues --  -24.63774  -1.09240  -0.43230  -0.36060  -0.36060
  Beta virt. eigenvalues --   -0.15480  -0.07169   0.25710   0.35222   0.93582
  Beta virt. eigenvalues --    0.93582   1.04122   1.13579   1.31807   1.31807
  Beta virt. eigenvalues --    1.41685   1.41685   1.43733   1.73895   2.19476

 Mulliken charges and spin densities:
               1          2
     1  H    0.337027  -0.044860
     2  H    0.021058   0.974883
     3  F   -0.358085   0.069977
 Sum of Mulliken charges =   0.00000   1.00000

 Dipole moment (field-independent basis, Debye):
    X=             -2.8053    Y=             -0.0000    Z=              0.0000  Tot=              2.8053
 Quadrupole moment (field-independent basis, Debye-Ang):
   XX=             -9.1434   YY=             -7.2913   ZZ=             -7.2913
   XY=             -0.0000   XZ=              0.0000   YZ=             -0.0000

  Exact polarizability:      20.998       0.000       2.230       0.000       0.000       2.230
 Approx polarizability:      31.817      -0.000       2.164      -0.000       0.000       2.164

 ******    2 imaginary frequencies (negative Signs) ******

                      1                      2                      3
                      A                      A                      A
 Frequencies --  -1290.1500              -256.8474              1029.4727
 Red. masses --      1.0463                 1.0655                 1.0250
 Frc consts  --      1.0261                 0.0414                 0.6401
 IR Inten    --    136.7165                 1.9563                99.3726

                      4
                      A
 Frequencies --   1029.4727
 Red. masses --      1.0250
 Frc consts  --      0.6401
 IR Inten    --     99.3726

 - Thermochemistry -
 -------------------
 Temperature   298.150 Kelvin.  Pressure   1.00000 Atm.
 Atom     1 has atomic number  1 and mass   1.00783

 Molecular mass:    21.01405 amu.
 Principal axes and moments of inertia in atomic units:
                           1         2         3
     Eigenvalues --     0.00000  56.06469  56.06469
           X            1.00000  -0.00000   0.00000
           Y            0.00000   1.00000   0.00000
           Z            0.00000   0.00000   1.00000
 This molecule is a prolate symmetric top.
 Rotational symmetry number  1.
 Rotational temperature (Kelvin)      1.54489
 Rotational constant (GHZ):          32.190335
    2 imaginary frequencies ignored.
 Zero-point vibrational energy      12315.2 (Joules/Mol)
                                    2.94341 (Kcal/Mol)
 Vibrational temperatures:   1481.18  1481.18
          (Kelvin)

 Zero-point correction=                           0.004691 (Hartree/Particle)
 Thermal correction to Energy=                    0.007117
 Thermal correction to Enthalpy=                  0.008061
 Thermal correction to Gibbs Free Energy=        -0.015247
 Sum of electronic and zero-point Energies=           -100.862850
 Sum of electronic and thermal Energies=              -100.860424
 Sum of electronic and thermal Enthalpies=            -100.859480
 Sum of electronic and thermal Free Energies=         -100.882788

                     E (Thermal)             CV                S
                      KCal/Mol        Cal/Mol-Kelvin    Cal/Mol-Kelvin
 Total                    4.466              5.660             49.057
 Electronic               0.000              0.000              1.377
 Translational            0.889              2.981             35.068
 Rotational               0.592              1.987             12.445
 Vibrational              2.985              0.692              0.166

 Normal termination of Gaussian 16 at Fri Aug 22 16:23:07 2025.
