 Gaussian 16, Revision C.01,
 Gaussian 16:  ES64L-G16RevC.01  3-Jul-2019

 -----------------------------------------
 # sp b3lyp/6-311g** Force nosymm scf=(qc)
 -----------------------------------------

 -------------------
 Title Card Required
 -------------------
 Symbolic Z-matrix:
 Charge =  0 Multiplicity = 2

                          Input orientation:
 ---------------------------------------------------------------------
 Center     Atomic      Atomic             Coordinates (Angstroms)
 Number     Number       Type             X           Y           Z
 ---------------------------------------------------------------------
      1          1           0        0.000000    0.000000    0.000000
      2          1           0       -1.650000    0.000000    0.000000
      3          9           0        1.500000    0.000000    0.000000
 ---------------------------------------------------------------------

 SCF Done:  E(UB3LYP) =  -100.869791597     a.u. after   13 cycles

 Alpha  occ. eigenvalues --  -24.64315  -1.10823  -0.45989  -0.38187  -0.36630
 Alpha  occ. eigenvalues --   -0.36630
 Alpha virt. eigenvalues --   -0.08546   0.21566   0.28438   0.93996   0.93996
 Alpha virt. eigenvalues --    0.95676   1.03751   1.17237   1.17237   1.37018
 Alpha virt. eigenvalues --    1.37018   1.43951   1.78416   2.14864   2.36704

  Beta  occ. eigenvalues --  -24.63134  -1.07672  -0.41462  -0.35502  -0.35502
  Beta virt. eigenvalues --   -0.20746  -0.05079   0.25075   0.30135   0.93924
  Beta virt. eigenvalues --    0.93924   1.00477   1.06356   1.25601   1.25601
  Beta virt. eigenvalues --    1.38720   1.38720   1.50324   1.81453   2.19272

 Mulliken charges and spin densities:
               1          2
     1  H    0.264588  -0.208346
     2  H    0.067365   0.840952
     3  F   -0.331954   0.367394
 Sum of Mulliken charges =   0.00000   1.00000

 Dipole moment (field-independent basis, Debye):
    X=             -2.9897    Y=              0.0000    Z=              0.0000  Tot=              2.9897
 Quadrupole moment (field-independent basis, Debye-Ang):
   XX=             -8.3987   YY=             -7.2576   ZZ=             -7.2576
   XY=              0.0000   XZ=              0.0000   YZ=              0.0000

  Exact polarizability:      33.923      -0.000       2.270      -0.000       0.000       2.270
 Approx polarizability:      47.451      -0.000       2.207      -0.000      -0.000       2.207

 ******    2 imaginary frequencies (negative Signs) ******

                      1                      2                      3
                      A                      A                      A
 Frequencies --  -2401.0179              -460.1504              1017.6767
 Red. masses --      1.0262                 1.0871                 1.0191
 Frc consts  --      3.4856                 0.1356                 0.6219
 IR Inten    --     79.6004                 2.3818                39.9782

                      4
                      A
 Frequencies --   1017.6767
 Red. masses --      1.0191
 Frc consts  --      0.6219
 IR Inten    --     39.9782

 - Thermochemistry -
 -------------------
 Temperature   298.150 Kelvin.  Pressure   1.00000 Atm.
 Atom     1 has atomic number  1 and mass   1.00783

 Molecular mass:    21.01405 amu.
 Principal axes and moments of inertia in atomic units:
                           1         2         3
     Eigenvalues --     0.00000  40.07674  40.07674
           X            1.00000  -0.00000   0.00000
           Y            0.00000   1.00000   0.00000
           Z            0.00000   0.00000   1.00000
 This molecule is a prolate symmetric top.
 Rotational symmetry number  1.
 Rotational temperature (Kelvin)      2.16120
 Rotational constant (GHZ):          45.032138
    2 imaginary frequencies ignored.
 Zero-point vibrational energy      12174.1 (Joules/Mol)
                                    2.90968 (Kcal/Mol)
 Vibrational temperatures:   1464.21  1464.21
          (Kelvin)

 Zero-point correction=                           0.004637 (Hartree/Particle)
 Thermal correction to Energy=                    0.007066
 Thermal correction to Enthalpy=                  0.008010
 Thermal correction to Gibbs Free Energy=        -0.014985
 Sum of electronic and zero-point Energies=           -100.865155
 Sum of electronic and thermal Energies=              -100.862725
 Sum of electronic and thermal Enthalpies=            -100.861781
 Sum of electronic and thermal Free Energies=         -100.884777

                     E (Thermal)             CV                S
                      KCal/Mol        Cal/Mol-Kelvin    Cal/Mol-Kelvin
 Total                    4.434              5.685             48.398
 Electronic               0.000              0.000              1.377
 Translational            0.889              2.981             35.068
 Rotational               0.592              1.987             11.778
 Vibrational              2.953              0.717              0.174

 Normal termination of Gaussian 16 at Fri Aug 22 16:25:12 2025.
