 Gaussian 16, Revision C.01,
 Gaussian 16:  ES64L-G16RevC.01  3-Jul-2019

 -----------------------------------------
 # sp b3lyp/6-311g** Force nosymm scf=(qc)
 -----------------------------------------

 -------------------
 Title Card Required
 -------------------
 Symbolic Z-matrix:
 Charge =  0 Multiplicity = 2

                          Input orientation:
 ---------------------------------------------------------------------
 Center     Atomic      Atomic             Coordinates (Angstroms)
 Number     Number       Type             X           Y           Z
 ---------------------------------------------------------------------
      1          1           0        0.000000    0.000000    0.000000
      2          1           0       -1.300000    0.000000    0.000000
      3          9           0        1.200000    0.000000    0.000000
 ---------------------------------------------------------------------

 SCF Done:  E(UB3LYP) =  -100.937052025     a.u. after    7 cycles

 Alpha  occ. eigenvalues --  -24.64021  -1.12804  -0.51479  -0.37790  -0.37448
 Alpha  occ. eigenvalues --   -0.37448
 Alpha virt. eigenvalues --    0.03624   0.19766   0.31339   0.92523   0.92523
 Alpha virt. eigenvalues --    1.00451   1.11316   1.11316   1.16531   1.47529
 Alpha virt. eigenvalues --    1.47529   1.56034   2.03574   2.30560   2.43926

  Beta  occ. eigenvalues --  -24.63156  -1.10595  -0.46669  -0.36651  -0.36651
  Beta virt. eigenvalues --   -0.20135   0.06778   0.23219   0.34660   0.93027
  Beta virt. eigenvalues --    0.93027   1.02400   1.18696   1.18696   1.23104
  Beta virt. eigenvalues --    1.51473   1.51473   1.58795   2.13890   2.31268

 Mulliken charges and spin densities:
               1          2
     1  H    0.288557  -0.060578
     2  H    0.056077   0.808260
     3  F   -0.344634   0.252318
 Sum of Mulliken charges =   0.00000   1.00000

 Dipole moment (field-independent basis, Debye):
    X=             -2.5740    Y=             -0.0000    Z=             -0.0000  Tot=              2.5740
 Quadrupole moment (field-independent basis, Debye-Ang):
   XX=             -7.8819   YY=             -6.9406   ZZ=             -6.9406
   XY=             -0.0000   XZ=             -0.0000   YZ=             -0.0000

  Exact polarizability:      21.294       0.000       2.480       0.000      -0.000       2.480
 Approx polarizability:      27.459      -0.000       2.463       0.000       0.000       2.463

 ******    1 imaginary frequencies (negative Signs) ******

                      1                      2                      3
                      A                      A                      A
 Frequencies --  -2051.1313               765.0698              1101.0696
 Red. masses --      1.0180                 1.0965                 1.0189
 Frc consts  --      2.5233                 0.3782                 0.7278
 IR Inten    --      7.4527                38.9305                51.3278

                      4
                      A
 Frequencies --   1101.0696
 Red. masses --      1.0189
 Frc consts  --      0.7278
 IR Inten    --     51.3278

 - Thermochemistry -
 -------------------
 Temperature   298.150 Kelvin.  Pressure   1.00000 Atm.
 Atom     1 has atomic number  1 and mass   1.00783

 Molecular mass:    21.01405 amu.
 Principal axes and moments of inertia in atomic units:
                           1         2         3
     Eigenvalues --     0.00000  25.31339  25.31339
           X            1.00000  -0.00000   0.00000
           Y            0.00000   1.00000   0.00000
           Z            0.00000   0.00000   1.00000
 This molecule is a prolate symmetric top.
 Rotational symmetry number  1.
 Rotational temperature (Kelvin)      3.42166
 Rotational constant (GHZ):          71.295920
    1 imaginary frequencies ignored.
 Zero-point vibrational energy      17747.9 (Joules/Mol)
                                    4.24184 (Kcal/Mol)
 Vibrational temperatures:   1100.76  1584.19  1584.19
          (Kelvin)

 Zero-point correction=                           0.006760 (Hartree/Particle)
 Thermal correction to Energy=                    0.009259
 Thermal correction to Enthalpy=                  0.010203
 Thermal correction to Gibbs Free Energy=        -0.012447
 Sum of electronic and zero-point Energies=           -100.930292
 Sum of electronic and thermal Energies=              -100.927793
 Sum of electronic and thermal Enthalpies=            -100.926849
 Sum of electronic and thermal Free Energies=         -100.949499

                     E (Thermal)             CV                S
                      KCal/Mol        Cal/Mol-Kelvin    Cal/Mol-Kelvin
 Total                    5.810              6.236             47.672
 Electronic               0.000              0.000              1.377
 Translational            0.889              2.981             35.068
 Rotational               0.592              1.987             10.865
 Vibrational              4.329              1.268              0.362

 Normal termination of Gaussian 16 at Fri Aug 22 16:09:39 2025.
