 Gaussian 16, Revision C.01,
 Gaussian 16:  ES64L-G16RevC.01  3-Jul-2019

 -----------------------------------------
 # sp b3lyp/6-311g** Force nosymm scf=(qc)
 -----------------------------------------

 -------------------
 Title Card Required
 -------------------
 Symbolic Z-matrix:
 Charge =  0 Multiplicity = 2

                          Input orientation:
 ---------------------------------------------------------------------
 Center     Atomic      Atomic             Coordinates (Angstroms)
 Number     Number       Type             X           Y           Z
 ---------------------------------------------------------------------
      1          1           0        0.000000    0.000000    0.000000
      2          1           0       -2.350000    0.000000    0.000000
      3          9           0        1.250000    0.000000    0.000000
 ---------------------------------------------------------------------

 SCF Done:  E(UB3LYP) =  -100.914629421     a.u. after    6 cycles

 Alpha  occ. eigenvalues --  -24.64033  -1.11421  -0.46837  -0.37013  -0.37013
 Alpha  occ. eigenvalues --   -0.35750
 Alpha virt. eigenvalues --   -0.06121   0.24349   0.27786   0.93327   0.93327
 Alpha virt. eigenvalues --    1.01594   1.18234   1.21751   1.21751   1.33078
 Alpha virt. eigenvalues --    1.34607   1.34607   1.72493   2.12433   2.28027

  Beta  occ. eigenvalues --  -24.63952  -1.11213  -0.46480  -0.36938  -0.36938
  Beta virt. eigenvalues --   -0.12861  -0.03010   0.27676   0.35733   0.93320
  Beta virt. eigenvalues --    0.93320   1.01792   1.24306   1.34385   1.34385
  Beta virt. eigenvalues --    1.42292   1.42292   1.46488   1.72748   2.26490

 Mulliken charges and spin densities:
               1          2
     1  H    0.345364  -0.005129
     2  H    0.015594   0.980180
     3  F   -0.360957   0.024950
 Sum of Mulliken charges =  -0.00000   1.00000

 Dipole moment (field-independent basis, Debye):
    X=             -2.5329    Y=              0.0000    Z=             -0.0000  Tot=              2.5329
 Quadrupole moment (field-independent basis, Debye-Ang):
   XX=             -8.5887   YY=             -7.1546   ZZ=             -7.1546
   XY=             -0.0000   XZ=             -0.0000   YZ=              0.0000

  Exact polarizability:      14.841       0.000       2.332      -0.000      -0.000       2.332
 Approx polarizability:      19.445      -0.000       2.286      -0.000      -0.000       2.286

 ******    1 imaginary frequencies (negative Signs) ******

                      1                      2                      3
                      A                      A                      A
 Frequencies --   -392.2955               289.0269              1158.0425
 Red. masses --      1.0079                 1.1084                 1.0271
 Frc consts  --      0.0914                 0.0546                 0.8115
 IR Inten    --     94.3841                58.2927               119.8689

                      4
                      A
 Frequencies --   1158.0425
 Red. masses --      1.0271
 Frc consts  --      0.8115
 IR Inten    --    119.8689

 - Thermochemistry -
 -------------------
 Temperature   298.150 Kelvin.  Pressure   1.00000 Atm.
 Atom     1 has atomic number  1 and mass   1.00783

 Molecular mass:    21.01405 amu.
 Principal axes and moments of inertia in atomic units:
                           1         2         3
     Eigenvalues --     0.00000  48.20646  48.20646
           X            1.00000  -0.00000   0.00000
           Y            0.00000   1.00000   0.00000
           Z            0.00000   0.00000   1.00000
 This molecule is a prolate symmetric top.
 Rotational symmetry number  1.
 Rotational temperature (Kelvin)      1.79673
 Rotational constant (GHZ):          37.437750
    1 imaginary frequencies ignored.
 Zero-point vibrational energy      15582.0 (Joules/Mol)
                                    3.72419 (Kcal/Mol)
 Warning -- explicit consideration of   1 degrees of freedom as
           vibrations may cause significant error
 Vibrational temperatures:    415.85  1666.16  1666.16
          (Kelvin)

 Zero-point correction=                           0.005935 (Hartree/Particle)
 Thermal correction to Energy=                    0.008769
 Thermal correction to Enthalpy=                  0.009713
 Thermal correction to Gibbs Free Energy=        -0.014123
 Sum of electronic and zero-point Energies=           -100.908695
 Sum of electronic and thermal Energies=              -100.905860
 Sum of electronic and thermal Enthalpies=            -100.904916
 Sum of electronic and thermal Free Energies=         -100.928753

                     E (Thermal)             CV                S
                      KCal/Mol        Cal/Mol-Kelvin    Cal/Mol-Kelvin
 Total                    5.503              7.130             50.168
 Electronic               0.000              0.000              1.377
 Translational            0.889              2.981             35.068
 Rotational               0.592              1.987             12.145
 Vibrational              4.021              2.162              1.578
 Vibration     1          0.686              1.694              1.480

 Normal termination of Gaussian 16 at Fri Aug 22 16:12:50 2025.
