 Gaussian 16, Revision C.01,
 Gaussian 16:  ES64L-G16RevC.01  3-Jul-2019

 -----------------------------------------
 # sp b3lyp/6-311g** Force nosymm scf=(qc)
 -----------------------------------------

 -------------------
 Title Card Required
 -------------------
 Symbolic Z-matrix:
 Charge =  0 Multiplicity = 2

                          Input orientation:
 ---------------------------------------------------------------------
 Center     Atomic      Atomic             Coordinates (Angstroms)
 Number     Number       Type             X           Y           Z
 ---------------------------------------------------------------------
      1          1           0        0.000000    0.000000    0.000000
      2          1           0       -0.850000    0.000000    0.000000
      3          9           0        3.150000    0.000000    0.000000
 ---------------------------------------------------------------------

 SCF Done:  E(UB3LYP) =  -100.928256671     a.u. after   21 cycles

 Alpha  occ. eigenvalues --  -24.76542  -1.22367  -0.55561  -0.46793  -0.46712
 Alpha  occ. eigenvalues --   -0.41152
 Alpha virt. eigenvalues --    0.03889   0.20526   0.43312   0.85884   0.90758
 Alpha virt. eigenvalues --    0.93576   1.03869   1.08328   1.08333   1.49249
 Alpha virt. eigenvalues --    1.75670   1.75676   2.13062   2.38360   2.87715

  Beta  occ. eigenvalues --  -24.73381  -1.13282  -0.43658  -0.43544  -0.41116
  Beta virt. eigenvalues --   -0.26189   0.03917   0.20547   0.43394   0.92257
  Beta virt. eigenvalues --    0.95263   0.95344   1.07710   1.08327   1.08332
  Beta virt. eigenvalues --    1.49260   1.75669   1.75675   2.13084   2.38365

 Mulliken charges and spin densities:
               1          2
     1  H   -0.003440  -0.000771
     2  H   -0.003790  -0.000139
     3  F    0.007230   1.000911
 Sum of Mulliken charges =   0.00000   1.00000

 Dipole moment (field-independent basis, Debye):
    X=              0.0795    Y=              0.0000    Z=              0.0000  Tot=              0.0795
 Quadrupole moment (field-independent basis, Debye-Ang):
   XX=             -6.1348   YY=             -6.4173   ZZ=             -6.9034
   XY=              0.0000   XZ=              0.0000   YZ=              0.3570

  Exact polarizability:       9.994       0.000       2.369      -0.000       0.191       2.109
 Approx polarizability:      11.969      -0.000       2.530      -0.000       0.240       2.204

                      1                      2                      3
                      A                      A                      A
 Frequencies --     48.6747              1328.0484              1329.0352
 Red. masses --      1.1085                 1.0092                 1.0092
 Frc consts  --      0.0015                 1.0487                 1.0503
 IR Inten    --      0.2508                 0.0023                 0.0018

                      4
                      A
 Frequencies --   3136.4786
 Red. masses --      1.0078
 Frc consts  --      5.8414
 IR Inten    --      0.3102

 - Thermochemistry -
 -------------------
 Temperature   298.150 Kelvin.  Pressure   1.00000 Atm.
 Atom     1 has atomic number  1 and mass   1.00783

 Molecular mass:    21.01405 amu.
 Principal axes and moments of inertia in atomic units:
                           1         2         3
     Eigenvalues --     0.00000  84.47120  84.47120
           X            1.00000  -0.00000   0.00000
           Y            0.00000   1.00000   0.00000
           Z            0.00000   0.00000   1.00000
 This molecule is a prolate symmetric top.
 Rotational symmetry number  1.
 Rotational temperature (Kelvin)      1.02537
 Rotational constant (GHZ):          21.365165
 Zero-point vibrational energy      34944.3 (Joules/Mol)
                                    8.35190 (Kcal/Mol)
 Warning -- explicit consideration of   1 degrees of freedom as
           vibrations may cause significant error
 Vibrational temperatures:     70.03  1910.77  1912.19  4512.69
          (Kelvin)

 Zero-point correction=                           0.013310 (Hartree/Particle)
 Thermal correction to Energy=                    0.016528
 Thermal correction to Enthalpy=                  0.017472
 Thermal correction to Gibbs Free Energy=        -0.008482
 Sum of electronic and zero-point Energies=           -100.914947
 Sum of electronic and thermal Energies=              -100.911729
 Sum of electronic and thermal Enthalpies=            -100.910785
 Sum of electronic and thermal Free Energies=         -100.936739

                     E (Thermal)             CV                S
                      KCal/Mol        Cal/Mol-Kelvin    Cal/Mol-Kelvin
 Total                   10.371              7.216             54.624
 Electronic               0.000              0.000              1.377
 Translational            0.889              2.981             35.068
 Rotational               0.592              1.987             13.260
 Vibrational              8.890              2.248              4.919
 Vibration     1          0.595              1.978              4.871

 Normal termination of Gaussian 16 at Fri Aug 22 20:01:36 2025.
