 Gaussian 16, Revision C.01,
 Gaussian 16:  ES64L-G16RevC.01  3-Jul-2019

 -----------------------------------------
 # sp b3lyp/6-311g** Force nosymm scf=(qc)
 -----------------------------------------

 -------------------
 Title Card Required
 -------------------
 Symbolic Z-matrix:
 Charge =  0 Multiplicity = 2

                          Input orientation:
 ---------------------------------------------------------------------
 Center     Atomic      Atomic             Coordinates (Angstroms)
 Number     Number       Type             X           Y           Z
 ---------------------------------------------------------------------
      1          1           0        0.000000    0.000000    0.000000
      2          1           0       -4.000000    0.000000    0.000000
      3          9           0        1.300000    0.000000    0.000000
 ---------------------------------------------------------------------

 SCF Done:  E(UB3LYP) =  -100.901203130     a.u. after    7 cycles

 Alpha  occ. eigenvalues --  -24.64388  -1.11125  -0.46071  -0.37084  -0.37084
 Alpha  occ. eigenvalues --   -0.33515
 Alpha virt. eigenvalues --   -0.08980   0.21540   0.27777   0.92988   0.92988
 Alpha virt. eigenvalues --    1.02052   1.21321   1.23954   1.23991   1.23991
 Alpha virt. eigenvalues --    1.33773   1.33773   1.70300   2.13233   2.24622

  Beta  occ. eigenvalues --  -24.64386  -1.11119  -0.46065  -0.37082  -0.37082
  Beta virt. eigenvalues --   -0.09232  -0.05557   0.24917   0.38585   0.92987
  Beta virt. eigenvalues --    0.92987   1.02057   1.21334   1.33767   1.33767
  Beta virt. eigenvalues --    1.47480   1.47480   1.47671   1.70317   2.23826

 Mulliken charges and spin densities:
               1          2
     1  H    0.358689  -0.000233
     2  H    0.000435   0.999540
     3  F   -0.359124   0.000693
 Sum of Mulliken charges =   0.00000   1.00000

 Dipole moment (field-independent basis, Debye):
    X=             -2.3947    Y=             -0.0000    Z=             -0.0000  Tot=              2.3947
 Quadrupole moment (field-independent basis, Debye-Ang):
   XX=             -9.2671   YY=             -7.1992   ZZ=             -7.1992
   XY=             -0.0000   XZ=             -0.0000   YZ=              0.0000

  Exact polarizability:      10.755      -0.000       2.278      -0.000      -0.000       2.278
 Approx polarizability:      16.962       0.000       2.221       0.000      -0.000       2.221

 ******    2 imaginary frequencies (negative Signs) ******

                      1                      2                      3
                      A                      A                      A
 Frequencies --   -601.7269               -33.0461              1167.8583
 Red. masses --      1.0578                 1.0537                 1.0350
 Frc consts  --      0.2257                 0.0007                 0.8317
 IR Inten    --     53.5716                 0.0115               138.7724

                      4
                      A
 Frequencies --   1167.8583
 Red. masses --      1.0350
 Frc consts  --      0.8317
 IR Inten    --    138.7724

 - Thermochemistry -
 -------------------
 Temperature   298.150 Kelvin.  Pressure   1.00000 Atm.
 Atom     1 has atomic number  1 and mass   1.00783

 Molecular mass:    21.01405 amu.
 Principal axes and moments of inertia in atomic units:
                           1         2         3
     Eigenvalues --     0.00000  99.65972  99.65972
           X            1.00000  -0.00000   0.00000
           Y            0.00000   1.00000   0.00000
           Z            0.00000   0.00000   1.00000
 This molecule is a prolate symmetric top.
 Rotational symmetry number  1.
 Rotational temperature (Kelvin)      0.86910
 Rotational constant (GHZ):          18.109034
    2 imaginary frequencies ignored.
 Zero-point vibrational energy      13970.7 (Joules/Mol)
                                    3.33907 (Kcal/Mol)
 Vibrational temperatures:   1680.29  1680.29
          (Kelvin)

 Zero-point correction=                           0.005321 (Hartree/Particle)
 Thermal correction to Energy=                    0.007720
 Thermal correction to Enthalpy=                  0.008664
 Thermal correction to Gibbs Free Energy=        -0.015154
 Sum of electronic and zero-point Energies=           -100.895882
 Sum of electronic and thermal Energies=              -100.893483
 Sum of electronic and thermal Enthalpies=            -100.892539
 Sum of electronic and thermal Free Energies=         -100.916357

                     E (Thermal)             CV                S
                      KCal/Mol        Cal/Mol-Kelvin    Cal/Mol-Kelvin
 Total                    4.844              5.422             50.128
 Electronic               0.000              0.000              1.377
 Translational            0.889              2.981             35.068
 Rotational               0.592              1.987             13.588
 Vibrational              3.363              0.454              0.094

 Normal termination of Gaussian 16 at Fri Aug 22 16:16:23 2025.
