 Gaussian 16, Revision C.01,
 Gaussian 16:  ES64L-G16RevC.01  3-Jul-2019

 -----------------------------------------
 # sp b3lyp/6-311g** Force nosymm scf=(qc)
 -----------------------------------------

 -------------------
 Title Card Required
 -------------------
 Symbolic Z-matrix:
 Charge =  0 Multiplicity = 2

                          Input orientation:
 ---------------------------------------------------------------------
 Center     Atomic      Atomic             Coordinates (Angstroms)
 Number     Number       Type             X           Y           Z
 ---------------------------------------------------------------------
      1          1           0        0.000000    0.000000    0.000000
      2          1           0       -3.950000    0.000000    0.000000
      3          9           0        1.600000    0.000000    0.000000
 ---------------------------------------------------------------------

 SCF Done:  E(UB3LYP) =  -100.833627619     a.u. after    7 cycles

 Alpha  occ. eigenvalues --  -24.64312  -1.09197  -0.42017  -0.36201  -0.36201
 Alpha  occ. eigenvalues --   -0.33639
 Alpha virt. eigenvalues --   -0.16860   0.20217   0.26759   0.94088   0.94088
 Alpha virt. eigenvalues --    1.00804   1.07019   1.23828   1.23867   1.23867
 Alpha virt. eigenvalues --    1.29307   1.29307   1.72632   2.12380   2.17450

  Beta  occ. eigenvalues --  -24.64332  -1.09252  -0.42058  -0.36221  -0.36221
  Beta virt. eigenvalues --   -0.16872  -0.06180   0.22724   0.38213   0.94098
  Beta virt. eigenvalues --    0.94098   1.00797   1.07019   1.29432   1.29432
  Beta virt. eigenvalues --    1.46407   1.46711   1.46711   1.72716   2.16218

 Mulliken charges and spin densities:
               1          2
     1  H    0.339269   0.007160
     2  H    0.000685   0.999282
     3  F   -0.339954  -0.006443
 Sum of Mulliken charges =  -0.00000   1.00000

 Dipole moment (field-independent basis, Debye):
    X=             -2.6801    Y=              0.0000    Z=              0.0000  Tot=              2.6801
 Quadrupole moment (field-independent basis, Debye-Ang):
   XX=            -10.3365   YY=             -7.3721   ZZ=             -7.3721
   XY=              0.0000   XZ=              0.0000   YZ=             -0.0000

  Exact polarizability:      16.798       0.000       2.143      -0.000      -0.000       2.143
 Approx polarizability:      36.147      -0.000       2.060       0.000      -0.000       2.060

 ******    2 imaginary frequencies (negative Signs) ******

                      1                      2                      3
                      A                      A                      A
 Frequencies --  -1182.2866               -47.7832               946.0760
 Red. masses --      1.0580                 1.0535                 1.0315
 Frc consts  --      0.8714                 0.0014                 0.5440
 IR Inten    --     33.2606                 0.0496               111.6899

                      4
                      A
 Frequencies --    946.0760
 Red. masses --      1.0315
 Frc consts  --      0.5440
 IR Inten    --    111.6899

 - Thermochemistry -
 -------------------
 Temperature   298.150 Kelvin.  Pressure   1.00000 Atm.
 Atom     1 has atomic number  1 and mass   1.00783

 Molecular mass:    21.01405 amu.
 Principal axes and moments of inertia in atomic units:
                           1         2         3
     Eigenvalues --     0.00000 111.24783 111.24783
           X            1.00000  -0.00000   0.00000
           Y            0.00000   1.00000   0.00000
           Z            0.00000   0.00000   1.00000
 This molecule is a prolate symmetric top.
 Rotational symmetry number  1.
 Rotational temperature (Kelvin)      0.77857
 Rotational constant (GHZ):          16.222710
    2 imaginary frequencies ignored.
 Zero-point vibrational energy      11317.6 (Joules/Mol)
                                    2.70497 (Kcal/Mol)
 Vibrational temperatures:   1361.19  1361.19
          (Kelvin)

 Zero-point correction=                           0.004311 (Hartree/Particle)
 Thermal correction to Energy=                    0.006762
 Thermal correction to Enthalpy=                  0.007706
 Thermal correction to Gibbs Free Energy=        -0.016281
 Sum of electronic and zero-point Energies=           -100.829317
 Sum of electronic and thermal Energies=              -100.826866
 Sum of electronic and thermal Enthalpies=            -100.825922
 Sum of electronic and thermal Free Energies=         -100.849909

                     E (Thermal)             CV                S
                      KCal/Mol        Cal/Mol-Kelvin    Cal/Mol-Kelvin
 Total                    4.243              5.848             50.485
 Electronic               0.000              0.000              1.377
 Translational            0.889              2.981             35.068
 Rotational               0.592              1.987             13.807
 Vibrational              2.762              0.880              0.232

 Normal termination of Gaussian 16 at Fri Aug 22 16:32:55 2025.
