 Gaussian 16, Revision C.01,
 Gaussian 16:  ES64L-G16RevC.01  3-Jul-2019

 -----------------------------------------
 # sp b3lyp/6-311g** Force nosymm scf=(qc)
 -----------------------------------------

 -------------------
 Title Card Required
 -------------------
 Symbolic Z-matrix:
 Charge =  0 Multiplicity = 2

                          Input orientation:
 ---------------------------------------------------------------------
 Center     Atomic      Atomic             Coordinates (Angstroms)
 Number     Number       Type             X           Y           Z
 ---------------------------------------------------------------------
      1          1           0        0.000000    0.000000    0.000000
      2          1           0       -0.500000    0.000000    0.000000
      3          9           0        3.700000    0.000000    0.000000
 ---------------------------------------------------------------------

 SCF Done:  E(UB3LYP) =  -100.861613149     a.u. after  232 cycles

 Alpha  occ. eigenvalues --  -24.76251  -1.22118  -0.55321  -0.49294  -0.46496
 Alpha  occ. eigenvalues --   -0.46475
 Alpha virt. eigenvalues --    0.09946   0.18300   0.55676   0.86075   0.90951
 Alpha virt. eigenvalues --    0.92792   1.01878   1.12043   1.12046   1.61124
 Alpha virt. eigenvalues --    1.84756   1.99571   1.99575   2.36120   3.64904

  Beta  occ. eigenvalues --  -24.73094  -1.13041  -0.49292  -0.43331  -0.43310
  Beta virt. eigenvalues --   -0.25963   0.09964   0.18308   0.55745   0.92451
  Beta virt. eigenvalues --    0.94307   0.95539   1.05920   1.12043   1.12045
  Beta virt. eigenvalues --    1.61131   1.84774   1.99571   1.99574   2.36120

 Mulliken charges and spin densities:
               1          2
     1  H   -0.002164  -0.000500
     2  H   -0.001079   0.000137
     3  F    0.003243   1.000363
 Sum of Mulliken charges =   0.00000   1.00000

 Dipole moment (field-independent basis, Debye):
    X=              0.0370    Y=              0.0000    Z=             -0.0000  Tot=              0.0370
 Quadrupole moment (field-independent basis, Debye-Ang):
   XX=             -6.1348   YY=             -6.4881   ZZ=             -5.8238
   XY=             -0.0000   XZ=              0.0000   YZ=             -0.2765

  Exact polarizability:       5.394      -0.000       1.853       0.000      -0.149       2.210
 Approx polarizability:       5.707      -0.000       1.948       0.000      -0.186       2.395

 ******    3 imaginary frequencies (negative Signs) ******

                      1                      2                      3
                      A                      A                      A
 Frequencies --  -4833.1657             -4832.6781               -42.5059
 Red. masses --      1.0082                 1.0082                 1.1085
 Frc consts  --     13.8763                13.8735                 0.0012
 IR Inten    --      0.0048                 0.0040                 0.0942

                      4
                      A
 Frequencies --   9960.5679
 Red. masses --      1.0078
 Frc consts  --     58.9120
 IR Inten    --      0.0396

 - Thermochemistry -
 -------------------
 Temperature   298.150 Kelvin.  Pressure   1.00000 Atm.
 Atom     1 has atomic number  1 and mass   1.00783

 Molecular mass:    21.01405 amu.
 Principal axes and moments of inertia in atomic units:
                           1         2         3
     Eigenvalues --     0.00000 101.98454 101.98454
           X            1.00000  -0.00000   0.00000
           Y            0.00000   1.00000   0.00000
           Z            0.00000   0.00000   1.00000
 This molecule is a prolate symmetric top.
 Rotational symmetry number  1.
 Rotational temperature (Kelvin)      0.84928
 Rotational constant (GHZ):          17.696223
    3 imaginary frequencies ignored.
 Zero-point vibrational energy      59577.4 (Joules/Mol)
                                   14.23935 (Kcal/Mol)
 Vibrational temperatures:  14331.04
          (Kelvin)

 Zero-point correction=                           0.022692 (Hartree/Particle)
 Thermal correction to Energy=                    0.025052
 Thermal correction to Enthalpy=                  0.025996
 Thermal correction to Gibbs Free Energy=         0.002202
 Sum of electronic and zero-point Energies=           -100.838921
 Sum of electronic and thermal Energies=              -100.836561
 Sum of electronic and thermal Enthalpies=            -100.835617
 Sum of electronic and thermal Free Energies=         -100.859411

                     E (Thermal)             CV                S
                      KCal/Mol        Cal/Mol-Kelvin    Cal/Mol-Kelvin
 Total                   15.721              4.968             50.080
 Electronic               0.000              0.000              1.377
 Translational            0.889              2.981             35.068
 Rotational               0.592              1.987             13.634
 Vibrational             14.239              0.000              0.000

 Normal termination of Gaussian 16 at Fri Aug 22 23:39:31 2025.
