 Gaussian 16, Revision C.01,
 Gaussian 16:  ES64L-G16RevC.01  3-Jul-2019

 -----------------------------------------
 # sp b3lyp/6-311g** Force nosymm scf=(qc)
 -----------------------------------------

 -------------------
 Title Card Required
 -------------------
 Symbolic Z-matrix:
 Charge =  0 Multiplicity = 2

                          Input orientation:
 ---------------------------------------------------------------------
 Center     Atomic      Atomic             Coordinates (Angstroms)
 Number     Number       Type             X           Y           Z
 ---------------------------------------------------------------------
      1          1           0        0.000000    0.000000    0.000000
      2          1           0       -1.600000    0.000000    0.000000
      3          9           0        2.450000    0.000000    0.000000
 ---------------------------------------------------------------------

 SCF Done:  E(UB3LYP) =  -100.811831429     a.u. after   14 cycles

 Alpha  occ. eigenvalues --  -24.72572  -1.18738  -0.51742  -0.43416  -0.43416
 Alpha  occ. eigenvalues --   -0.35841
 Alpha virt. eigenvalues --   -0.11629   0.23872   0.31046   0.88576   0.93072
 Alpha virt. eigenvalues --    0.93072   1.02989   1.14910   1.19801   1.19801
 Alpha virt. eigenvalues --    1.37260   1.37260   1.72274   2.16946   2.43163

  Beta  occ. eigenvalues --  -24.69685  -1.10506  -0.40535  -0.40535  -0.35407
  Beta virt. eigenvalues --   -0.24385  -0.10887   0.25451   0.30769   0.94449
  Beta virt. eigenvalues --    0.94449   0.94593   1.05994   1.18632   1.20503
  Beta virt. eigenvalues --    1.20503   1.37845   1.37845   1.72984   2.17972

 Mulliken charges and spin densities:
               1          2
     1  H    0.031984  -0.460852
     2  H    0.041471   0.548457
     3  F   -0.073454   0.912395
 Sum of Mulliken charges =  -0.00000   1.00000

 Dipole moment (field-independent basis, Debye):
    X=             -1.2294    Y=             -0.0000    Z=              0.0000  Tot=              1.2294
 Quadrupole moment (field-independent basis, Debye-Ang):
   XX=             -7.2920   YY=             -7.6726   ZZ=             -7.6726
   XY=             -0.0000   XZ=             -0.0000   YZ=             -0.0000

  Exact polarizability:      60.960      -0.000       2.039      -0.000       0.000       2.039
 Approx polarizability:      82.281       0.000       2.000      -0.000       0.000       2.000

 ******    2 imaginary frequencies (negative Signs) ******

                      1                      2                      3
                      A                      A                      A
 Frequencies --  -2047.0008              -355.9008              1002.0951
 Red. masses --      1.0085                 1.1077                 1.0136
 Frc consts  --      2.4898                 0.0827                 0.5997
 IR Inten    --    420.3401                41.5338                 0.1360

                      4
                      A
 Frequencies --   1002.0951
 Red. masses --      1.0136
 Frc consts  --      0.5997
 IR Inten    --      0.1360

 - Thermochemistry -
 -------------------
 Temperature   298.150 Kelvin.  Pressure   1.00000 Atm.
 Atom     1 has atomic number  1 and mass   1.00783

 Molecular mass:    21.01405 amu.
 Principal axes and moments of inertia in atomic units:
                           1         2         3
     Eigenvalues --     0.00000  73.34314  73.34314
           X            1.00000  -0.00000   0.00000
           Y            0.00000   1.00000   0.00000
           Z            0.00000   0.00000   1.00000
 This molecule is a prolate symmetric top.
 Rotational symmetry number  1.
 Rotational temperature (Kelvin)      1.18094
 Rotational constant (GHZ):          24.606815
    2 imaginary frequencies ignored.
 Zero-point vibrational energy      11987.7 (Joules/Mol)
                                    2.86513 (Kcal/Mol)
 Vibrational temperatures:   1441.79  1441.79
          (Kelvin)

 Zero-point correction=                           0.004566 (Hartree/Particle)
 Thermal correction to Energy=                    0.006999
 Thermal correction to Enthalpy=                  0.007944
 Thermal correction to Gibbs Free Energy=        -0.015628
 Sum of electronic and zero-point Energies=           -100.807266
 Sum of electronic and thermal Energies=              -100.804832
 Sum of electronic and thermal Enthalpies=            -100.803888
 Sum of electronic and thermal Free Energies=         -100.827459

                     E (Thermal)             CV                S
                      KCal/Mol        Cal/Mol-Kelvin    Cal/Mol-Kelvin
 Total                    4.392              5.718             49.610
 Electronic               0.000              0.000              1.377
 Translational            0.889              2.981             35.068
 Rotational               0.592              1.987             12.979
 Vibrational              2.911              0.750              0.186

 Normal termination of Gaussian 16 at Fri Aug 22 17:37:55 2025.
