 Gaussian 16, Revision C.01,
 Gaussian 16:  ES64L-G16RevC.01  3-Jul-2019

 -----------------------------------------
 # sp b3lyp/6-311g** Force nosymm scf=(qc)
 -----------------------------------------

 -------------------
 Title Card Required
 -------------------
 Symbolic Z-matrix:
 Charge =  0 Multiplicity = 2

                          Input orientation:
 ---------------------------------------------------------------------
 Center     Atomic      Atomic             Coordinates (Angstroms)
 Number     Number       Type             X           Y           Z
 ---------------------------------------------------------------------
      1          1           0        0.000000    0.000000    0.000000
      2          1           0       -3.350000    0.000000    0.000000
      3          9           0        2.600000    0.000000    0.000000
 ---------------------------------------------------------------------

 SCF Done:  E(UB3LYP) =  -100.765729416     a.u. after   19 cycles

 Alpha  occ. eigenvalues --  -24.72301  -1.18483  -0.51410  -0.43181  -0.43181
 Alpha  occ. eigenvalues --   -0.32880
 Alpha virt. eigenvalues --   -0.09910   0.23753   0.35358   0.89934   0.93311
 Alpha virt. eigenvalues --    0.93311   1.06057   1.24635   1.24635   1.24933
 Alpha virt. eigenvalues --    1.41426   1.41426   1.43816   2.14753   2.36940

  Beta  occ. eigenvalues --  -24.69410  -1.10239  -0.40296  -0.40296  -0.34969
  Beta virt. eigenvalues --   -0.23703  -0.06991   0.24150   0.37637   0.94710
  Beta virt. eigenvalues --    0.94710   0.97163   1.08785   1.22411   1.22411
  Beta virt. eigenvalues --    1.27252   1.45407   1.45667   1.45667   2.13667

 Mulliken charges and spin densities:
               1          2
     1  H    0.075509  -0.911228
     2  H    0.001156   0.996989
     3  F   -0.076665   0.914239
 Sum of Mulliken charges =  -0.00000   1.00000

 Dipole moment (field-independent basis, Debye):
    X=             -1.0359    Y=             -0.0000    Z=             -0.0000  Tot=              1.0359
 Quadrupole moment (field-independent basis, Debye-Ang):
   XX=             -9.0830   YY=             -7.5844   ZZ=             -7.5844
   XY=             -0.0000   XZ=             -0.0000   YZ=             -0.0000

  Exact polarizability:      32.274      -0.000       2.023      -0.000      -0.000       2.023
 Approx polarizability:      38.843      -0.000       1.920      -0.000       0.000       1.920

 ******    2 imaginary frequencies (negative Signs) ******

                      1                      2                      3
                      A                      A                      A
 Frequencies --   -565.5984              -143.2473               216.0743
 Red. masses --      1.0509                 1.0607                 1.0213
 Frc consts  --      0.1981                 0.0128                 0.0281
 IR Inten    --     70.9161                 0.6891                 5.3759

                      4
                      A
 Frequencies --    216.0743
 Red. masses --      1.0213
 Frc consts  --      0.0281
 IR Inten    --      5.3759

 - Thermochemistry -
 -------------------
 Temperature   298.150 Kelvin.  Pressure   1.00000 Atm.
 Atom     1 has atomic number  1 and mass   1.00783

 Molecular mass:    21.01405 amu.
 Principal axes and moments of inertia in atomic units:
                           1         2         3
     Eigenvalues --     0.00000 139.12520 139.12520
           X            1.00000  -0.00000   0.00000
           Y            0.00000   1.00000   0.00000
           Z            0.00000   0.00000   1.00000
 This molecule is a prolate symmetric top.
 Rotational symmetry number  1.
 Rotational temperature (Kelvin)      0.62256
 Rotational constant (GHZ):          12.972065
    2 imaginary frequencies ignored.
 Zero-point vibrational energy       2584.8 (Joules/Mol)
                                    0.61779 (Kcal/Mol)
 Warning -- explicit consideration of   2 degrees of freedom as
           vibrations may cause significant error
 Vibrational temperatures:    310.88   310.88
          (Kelvin)

 Zero-point correction=                           0.000985 (Hartree/Particle)
 Thermal correction to Energy=                    0.004417
 Thermal correction to Enthalpy=                  0.005361
 Thermal correction to Gibbs Free Energy=        -0.020619
 Sum of electronic and zero-point Energies=           -100.764745
 Sum of electronic and thermal Energies=              -100.761313
 Sum of electronic and thermal Enthalpies=            -100.760368
 Sum of electronic and thermal Free Energies=         -100.786349

                     E (Thermal)             CV                S
                      KCal/Mol        Cal/Mol-Kelvin    Cal/Mol-Kelvin
 Total                    2.772              8.601             54.680
 Electronic               0.000              0.000              1.377
 Translational            0.889              2.981             35.068
 Rotational               0.592              1.987             14.251
 Vibrational              1.290              3.633              3.983
 Vibration     1          0.645              1.817              1.992
 Vibration     2          0.645              1.817              1.992

 Normal termination of Gaussian 16 at Fri Aug 22 18:05:04 2025.
