 Gaussian 16, Revision C.01,
 Gaussian 16:  ES64L-G16RevC.01  3-Jul-2019

 -----------------------------------------
 # sp b3lyp/6-311g** Force nosymm scf=(qc)
 -----------------------------------------

 -------------------
 Title Card Required
 -------------------
 Symbolic Z-matrix:
 Charge =  0 Multiplicity = 2

                          Input orientation:
 ---------------------------------------------------------------------
 Center     Atomic      Atomic             Coordinates (Angstroms)
 Number     Number       Type             X           Y           Z
 ---------------------------------------------------------------------
      1          1           0        0.000000    0.000000    0.000000
      2          1           0       -2.200000    0.000000    0.000000
      3          9           0        2.800000    0.000000    0.000000
 ---------------------------------------------------------------------

 SCF Done:  E(UB3LYP) =  -100.771391348     a.u. after   21 cycles

 Alpha  occ. eigenvalues --  -24.73401  -1.19502  -0.52514  -0.44094  -0.44094
 Alpha  occ. eigenvalues --   -0.33756
 Alpha virt. eigenvalues --   -0.11782   0.25318   0.32613   0.90210   0.92692
 Alpha virt. eigenvalues --    0.92692   1.05230   1.23667   1.24079   1.24079
 Alpha virt. eigenvalues --    1.37324   1.37324   1.43715   2.13112   2.34917

  Beta  occ. eigenvalues --  -24.70425  -1.10990  -0.41119  -0.41119  -0.34296
  Beta virt. eigenvalues --   -0.24424  -0.10609   0.26065   0.33409   0.94134
  Beta virt. eigenvalues --    0.94134   0.98626   1.09032   1.23420   1.23420
  Beta virt. eigenvalues --    1.23427   1.39247   1.39247   1.45214   2.14188

 Mulliken charges and spin densities:
               1          2
     1  H    0.036844  -0.869736
     2  H    0.014412   0.927621
     3  F   -0.051256   0.942114
 Sum of Mulliken charges =  -0.00000   1.00000

 Dipole moment (field-independent basis, Debye):
    X=             -0.8866    Y=             -0.0000    Z=              0.0000  Tot=              0.8866
 Quadrupole moment (field-independent basis, Debye-Ang):
   XX=             -7.9811   YY=             -7.6705   ZZ=             -7.6705
   XY=              0.0000   XZ=             -0.0000   YZ=             -0.0000

  Exact polarizability:      54.424       0.000       2.007      -0.000       0.000       2.007
 Approx polarizability:      51.234       0.000       1.921      -0.000      -0.000       1.921

 ******    2 imaginary frequencies (negative Signs) ******

                      1                      2                      3
                      A                      A                      A
 Frequencies --  -1057.6073              -295.7280               410.1897
 Red. masses --      1.0088                 1.1073                 1.0153
 Frc consts  --      0.6649                 0.0571                 0.1006
 IR Inten    --     33.2993                34.5458                 0.8580

                      4
                      A
 Frequencies --    410.1897
 Red. masses --      1.0153
 Frc consts  --      0.1006
 IR Inten    --      0.8580

 - Thermochemistry -
 -------------------
 Temperature   298.150 Kelvin.  Pressure   1.00000 Atm.
 Atom     1 has atomic number  1 and mass   1.00783

 Molecular mass:    21.01405 amu.
 Principal axes and moments of inertia in atomic units:
                           1         2         3
     Eigenvalues --     0.00000 107.69004 107.69004
           X            1.00000  -0.00000   0.00000
           Y            0.00000   1.00000   0.00000
           Z            0.00000   0.00000   1.00000
 This molecule is a prolate symmetric top.
 Rotational symmetry number  1.
 Rotational temperature (Kelvin)      0.80429
 Rotational constant (GHZ):          16.758665
    2 imaginary frequencies ignored.
 Zero-point vibrational energy       4907.0 (Joules/Mol)
                                    1.17279 (Kcal/Mol)
 Warning -- explicit consideration of   2 degrees of freedom as
           vibrations may cause significant error
 Vibrational temperatures:    590.17   590.17
          (Kelvin)

 Zero-point correction=                           0.001869 (Hartree/Particle)
 Thermal correction to Energy=                    0.004829
 Thermal correction to Enthalpy=                  0.005773
 Thermal correction to Gibbs Free Energy=        -0.018953
 Sum of electronic and zero-point Energies=           -100.769522
 Sum of electronic and thermal Energies=              -100.766563
 Sum of electronic and thermal Enthalpies=            -100.765619
 Sum of electronic and thermal Free Energies=         -100.790344

                     E (Thermal)             CV                S
                      KCal/Mol        Cal/Mol-Kelvin    Cal/Mol-Kelvin
 Total                    3.030              7.864             52.040
 Electronic               0.000              0.000              1.377
 Translational            0.889              2.981             35.068
 Rotational               0.592              1.987             13.742
 Vibrational              1.549              2.896              1.852
 Vibration     1          0.774              1.448              0.926
 Vibration     2          0.774              1.448              0.926

 Normal termination of Gaussian 16 at Fri Aug 22 18:43:14 2025.
