 Gaussian 16, Revision C.01,
 Gaussian 16:  ES64L-G16RevC.01  3-Jul-2019

 -----------------------------------------
 # sp b3lyp/6-311g** Force nosymm scf=(qc)
 -----------------------------------------

 -------------------
 Title Card Required
 -------------------
 Symbolic Z-matrix:
 Charge =  0 Multiplicity = 2

                          Input orientation:
 ---------------------------------------------------------------------
 Center     Atomic      Atomic             Coordinates (Angstroms)
 Number     Number       Type             X           Y           Z
 ---------------------------------------------------------------------
      1          1           0        0.000000    0.000000    0.000000
      2          1           0       -2.900000    0.000000    0.000000
      3          9           0        1.450000    0.000000    0.000000
 ---------------------------------------------------------------------

 SCF Done:  E(UB3LYP) =  -100.866228701     a.u. after    8 cycles

 Alpha  occ. eigenvalues --  -24.64251  -1.09908  -0.43864  -0.36469  -0.36469
 Alpha  occ. eigenvalues --   -0.34780
 Alpha virt. eigenvalues --   -0.12924   0.21768   0.27421   0.93389   0.93389
 Alpha virt. eigenvalues --    1.03534   1.12854   1.22735   1.22735   1.23508
 Alpha virt. eigenvalues --    1.32129   1.32129   1.73132   2.13638   2.20440

  Beta  occ. eigenvalues --  -24.64181  -1.09721  -0.43661  -0.36402  -0.36402
  Beta virt. eigenvalues --   -0.14118  -0.07158   0.24612   0.37051   0.93366
  Beta virt. eigenvalues --    0.93366   1.03721   1.13018   1.31842   1.31842
  Beta virt. eigenvalues --    1.44386   1.44596   1.44596   1.73184   2.19979

 Mulliken charges and spin densities:
               1          2
     1  H    0.348428  -0.014414
     2  H    0.007299   0.991947
     3  F   -0.355726   0.022467
 Sum of Mulliken charges =  -0.00000   1.00000

 Dipole moment (field-independent basis, Debye):
    X=             -2.6473    Y=             -0.0000    Z=              0.0000  Tot=              2.6473
 Quadrupole moment (field-independent basis, Debye-Ang):
   XX=             -9.4834   YY=             -7.2956   ZZ=             -7.2956
   XY=             -0.0000   XZ=              0.0000   YZ=             -0.0000

  Exact polarizability:      16.998      -0.000       2.216       0.000       0.000       2.216
 Approx polarizability:      27.959      -0.000       2.147      -0.000      -0.000       2.147

 ******    2 imaginary frequencies (negative Signs) ******

                      1                      2                      3
                      A                      A                      A
 Frequencies --  -1136.9557              -153.4561              1042.2601
 Red. masses --      1.0545                 1.0571                 1.0281
 Frc consts  --      0.8031                 0.0147                 0.6580
 IR Inten    --     78.4513                 1.1736               114.2015

                      4
                      A
 Frequencies --   1042.2601
 Red. masses --      1.0281
 Frc consts  --      0.6580
 IR Inten    --    114.2015

 - Thermochemistry -
 -------------------
 Temperature   298.150 Kelvin.  Pressure   1.00000 Atm.
 Atom     1 has atomic number  1 and mass   1.00783

 Molecular mass:    21.01405 amu.
 Principal axes and moments of inertia in atomic units:
                           1         2         3
     Eigenvalues --     0.00000  69.86266  69.86266
           X            1.00000  -0.00000   0.00000
           Y            0.00000   1.00000   0.00000
           Z            0.00000   0.00000   1.00000
 This molecule is a prolate symmetric top.
 Rotational symmetry number  1.
 Rotational temperature (Kelvin)      1.23977
 Rotational constant (GHZ):          25.832702
    2 imaginary frequencies ignored.
 Zero-point vibrational energy      12468.2 (Joules/Mol)
                                    2.97997 (Kcal/Mol)
 Vibrational temperatures:   1499.58  1499.58
          (Kelvin)

 Zero-point correction=                           0.004749 (Hartree/Particle)
 Thermal correction to Energy=                    0.007172
 Thermal correction to Enthalpy=                  0.008116
 Thermal correction to Gibbs Free Energy=        -0.015396
 Sum of electronic and zero-point Energies=           -100.861480
 Sum of electronic and thermal Energies=              -100.859057
 Sum of electronic and thermal Enthalpies=            -100.858113
 Sum of electronic and thermal Free Energies=         -100.881625

                     E (Thermal)             CV                S
                      KCal/Mol        Cal/Mol-Kelvin    Cal/Mol-Kelvin
 Total                    4.500              5.634             49.486
 Electronic               0.000              0.000              1.377
 Translational            0.889              2.981             35.068
 Rotational               0.592              1.987             12.882
 Vibrational              3.019              0.666              0.158

 Normal termination of Gaussian 16 at Fri Aug 22 16:23:28 2025.
