 Gaussian 16, Revision C.01,
 Gaussian 16:  ES64L-G16RevC.01  3-Jul-2019

 -----------------------------------------
 # sp b3lyp/6-311g** Force nosymm scf=(qc)
 -----------------------------------------

 -------------------
 Title Card Required
 -------------------
 Symbolic Z-matrix:
 Charge =  0 Multiplicity = 2

                          Input orientation:
 ---------------------------------------------------------------------
 Center     Atomic      Atomic             Coordinates (Angstroms)
 Number     Number       Type             X           Y           Z
 ---------------------------------------------------------------------
      1          1           0        0.000000    0.000000    0.000000
      2          1           0       -1.300000    0.000000    0.000000
      3          9           0        1.050000    0.000000    0.000000
 ---------------------------------------------------------------------

 SCF Done:  E(UB3LYP) =  -100.960718380     a.u. after    6 cycles

 Alpha  occ. eigenvalues --  -24.63746  -1.14979  -0.53482  -0.38152  -0.38152
 Alpha  occ. eigenvalues --   -0.37281
 Alpha virt. eigenvalues --    0.08387   0.19810   0.34801   0.93049   0.93049
 Alpha virt. eigenvalues --    0.99107   1.11486   1.11486   1.24103   1.47543
 Alpha virt. eigenvalues --    1.47543   1.55113   2.09524   2.31818   2.54645

  Beta  occ. eigenvalues --  -24.63192  -1.13592  -0.49938  -0.37656  -0.37656
  Beta virt. eigenvalues --   -0.18077   0.10887   0.23950   0.39073   0.93615
  Beta virt. eigenvalues --    0.93615   1.00293   1.19736   1.19736   1.31208
  Beta virt. eigenvalues --    1.52525   1.52525   1.58346   2.23075   2.31770

 Mulliken charges and spin densities:
               1          2
     1  H    0.291656  -0.018851
     2  H    0.040831   0.868565
     3  F   -0.332487   0.150286
 Sum of Mulliken charges =   0.00000   1.00000

 Dipole moment (field-independent basis, Debye):
    X=             -2.3437    Y=             -0.0000    Z=             -0.0000  Tot=              2.3437
 Quadrupole moment (field-independent basis, Debye-Ang):
   XX=             -7.7218   YY=             -6.8243   ZZ=             -6.8243
   XY=             -0.0000   XZ=             -0.0000   YZ=              0.0000

  Exact polarizability:      15.576       0.000       2.533      -0.000      -0.000       2.533
 Approx polarizability:      18.018      -0.000       2.533       0.000      -0.000       2.533

 ******    1 imaginary frequencies (negative Signs) ******

                      1                      2                      3
                      A                      A                      A
 Frequencies --   -446.2653               926.3647               926.3647
 Red. masses --      1.0243                 1.0207                 1.0207
 Frc consts  --      0.1202                 0.5161                 0.5161
 IR Inten    --      0.5513                75.1263                75.1263

                      4
                      A
 Frequencies --   1874.9997
 Red. masses --      1.0893
 Frc consts  --      2.2563
 IR Inten    --     98.2684

 - Thermochemistry -
 -------------------
 Temperature   298.150 Kelvin.  Pressure   1.00000 Atm.
 Atom     1 has atomic number  1 and mass   1.00783

 Molecular mass:    21.01405 amu.
 Principal axes and moments of inertia in atomic units:
                           1         2         3
     Eigenvalues --     0.00000  21.84810  21.84810
           X            1.00000  -0.00000   0.00000
           Y            0.00000   1.00000   0.00000
           Z            0.00000   0.00000   1.00000
 This molecule is a prolate symmetric top.
 Rotational symmetry number  1.
 Rotational temperature (Kelvin)      3.96437
 Rotational constant (GHZ):          82.604051
    1 imaginary frequencies ignored.
 Zero-point vibrational energy      22296.8 (Joules/Mol)
                                    5.32906 (Kcal/Mol)
 Vibrational temperatures:   1332.83  1332.83  2697.71
          (Kelvin)

 Zero-point correction=                           0.008492 (Hartree/Particle)
 Thermal correction to Energy=                    0.010952
 Thermal correction to Enthalpy=                  0.011896
 Thermal correction to Gibbs Free Energy=        -0.010565
 Sum of electronic and zero-point Energies=           -100.952226
 Sum of electronic and thermal Energies=              -100.949767
 Sum of electronic and thermal Enthalpies=            -100.948823
 Sum of electronic and thermal Free Energies=         -100.971283

                     E (Thermal)             CV                S
                      KCal/Mol        Cal/Mol-Kelvin    Cal/Mol-Kelvin
 Total                    6.872              5.917             47.272
 Electronic               0.000              0.000              1.377
 Translational            0.889              2.981             35.068
 Rotational               0.592              1.987             10.572
 Vibrational              5.391              0.949              0.254

 Normal termination of Gaussian 16 at Fri Aug 22 16:02:27 2025.
