 Gaussian 16, Revision C.01,
 Gaussian 16:  ES64L-G16RevC.01  3-Jul-2019

 -----------------------------------------
 # sp b3lyp/6-311g** Force nosymm scf=(qc)
 -----------------------------------------

 -------------------
 Title Card Required
 -------------------
 Symbolic Z-matrix:
 Charge =  0 Multiplicity = 2

                          Input orientation:
 ---------------------------------------------------------------------
 Center     Atomic      Atomic             Coordinates (Angstroms)
 Number     Number       Type             X           Y           Z
 ---------------------------------------------------------------------
      1          1           0        0.000000    0.000000    0.000000
      2          1           0       -3.700000    0.000000    0.000000
      3          9           0        3.600000    0.000000    0.000000
 ---------------------------------------------------------------------

 SCF Done:  E(UB3LYP) =  -100.758826718     a.u. after   37 cycles

 Alpha  occ. eigenvalues --  -24.75533  -1.21485  -0.54656  -0.45890  -0.45890
 Alpha  occ. eigenvalues --   -0.32294
 Alpha virt. eigenvalues --   -0.06568   0.24190   0.37333   0.87305   0.91390
 Alpha virt. eigenvalues --    0.91390   1.01585   1.25205   1.25205   1.25277
 Alpha virt. eigenvalues --    1.45797   1.45797   1.45882   2.14795   2.41802

  Beta  occ. eigenvalues --  -24.72410  -1.12508  -0.42759  -0.42759  -0.32707
  Beta virt. eigenvalues --   -0.25557  -0.06165   0.23954   0.38121   0.92882
  Beta virt. eigenvalues --    0.92882   0.96506   1.05627   1.24738   1.24738
  Beta virt. eigenvalues --    1.24791   1.46273   1.46460   1.46460   2.14917

 Mulliken charges and spin densities:
               1          2
     1  H    0.008676  -0.989059
     2  H    0.000087   0.998703
     3  F   -0.008763   0.990357
 Sum of Mulliken charges =  -0.00000   1.00000

 Dipole moment (field-independent basis, Debye):
    X=             -0.1639    Y=             -0.0000    Z=             -0.0000  Tot=              0.1639
 Quadrupole moment (field-independent basis, Debye-Ang):
   XX=             -7.2761   YY=             -7.6201   ZZ=             -7.6201
   XY=             -0.0000   XZ=             -0.0000   YZ=             -0.0000

  Exact polarizability:      20.492      -0.000       2.042      -0.000      -0.000       2.042
 Approx polarizability:      15.686      -0.000       1.935      -0.000      -0.000       1.935

 ******    2 imaginary frequencies (negative Signs) ******

                      1                      2                      3
                      A                      A                      A
 Frequencies --   -209.9057               -85.7293                54.6087
 Red. masses --      1.0319                 1.0808                 1.0183
 Frc consts  --      0.0268                 0.0047                 0.0018
 IR Inten    --      7.4567                 0.6175                 0.0606

                      4
                      A
 Frequencies --     54.6091
 Red. masses --      1.0183
 Frc consts  --      0.0018
 IR Inten    --      0.0606

 - Thermochemistry -
 -------------------
 Temperature   298.150 Kelvin.  Pressure   1.00000 Atm.
 Atom     1 has atomic number  1 and mass   1.00783

 Molecular mass:    21.01405 amu.
 Principal axes and moments of inertia in atomic units:
                           1         2         3
     Eigenvalues --     0.00000 217.92689 217.92689
           X            1.00000  -0.00000   0.00000
           Y            0.00000   1.00000   0.00000
           Z            0.00000   0.00000   1.00000
 This molecule is a prolate symmetric top.
 Rotational symmetry number  1.
 Rotational temperature (Kelvin)      0.39744
 Rotational constant (GHZ):           8.281407
    2 imaginary frequencies ignored.
 Zero-point vibrational energy        653.3 (Joules/Mol)
                                    0.15613 (Kcal/Mol)
 Warning -- explicit consideration of   2 degrees of freedom as
           vibrations may cause significant error
 Vibrational temperatures:     78.57    78.57
          (Kelvin)

 Zero-point correction=                           0.000249 (Hartree/Particle)
 Thermal correction to Energy=                    0.004260
 Thermal correction to Enthalpy=                  0.005204
 Thermal correction to Gibbs Free Energy=        -0.023720
 Sum of electronic and zero-point Energies=           -100.758578
 Sum of electronic and thermal Energies=              -100.754567
 Sum of electronic and thermal Enthalpies=            -100.753623
 Sum of electronic and thermal Free Energies=         -100.782546

                     E (Thermal)             CV                S
                      KCal/Mol        Cal/Mol-Kelvin    Cal/Mol-Kelvin
 Total                    2.673              8.919             60.875
 Electronic               0.000              0.000              1.377
 Translational            0.889              2.981             35.068
 Rotational               0.592              1.987             15.143
 Vibrational              1.192              3.951              9.286
 Vibration     1          0.596              1.976              4.643
 Vibration     2          0.596              1.976              4.643

 Normal termination of Gaussian 16 at Fri Aug 22 23:08:19 2025.
