 Gaussian 16, Revision C.01,
 Gaussian 16:  ES64L-G16RevC.01  3-Jul-2019

 -----------------------------------------
 # sp b3lyp/6-311g** Force nosymm scf=(qc)
 -----------------------------------------

 -------------------
 Title Card Required
 -------------------
 Symbolic Z-matrix:
 Charge =  0 Multiplicity = 2

                          Input orientation:
 ---------------------------------------------------------------------
 Center     Atomic      Atomic             Coordinates (Angstroms)
 Number     Number       Type             X           Y           Z
 ---------------------------------------------------------------------
      1          1           0        0.000000    0.000000    0.000000
      2          1           0       -2.700000    0.000000    0.000000
      3          9           0        3.950000    0.000000    0.000000
 ---------------------------------------------------------------------

 SCF Done:  E(UB3LYP) =  -100.760851315     a.u. after   38 cycles

 Alpha  occ. eigenvalues --  -24.75876  -1.21804  -0.55001  -0.46181  -0.46181
 Alpha  occ. eigenvalues --   -0.32437
 Alpha virt. eigenvalues --   -0.08531   0.25543   0.35497   0.86613   0.91170
 Alpha virt. eigenvalues --    0.91170   1.01101   1.25149   1.25149   1.26480
 Alpha virt. eigenvalues --    1.43018   1.43018   1.43642   2.16085   2.38148

  Beta  occ. eigenvalues --  -24.72732  -1.12762  -0.43029  -0.43029  -0.32597
  Beta virt. eigenvalues --   -0.25736  -0.08316   0.25386   0.35777   0.92668
  Beta virt. eigenvalues --    0.92668   0.95987   1.05228   1.24975   1.24975
  Beta virt. eigenvalues --    1.26286   1.43333   1.43333   1.43955   2.16150

 Mulliken charges and spin densities:
               1          2
     1  H    0.002077  -0.979781
     2  H    0.000580   0.982787
     3  F   -0.002656   0.996994
 Sum of Mulliken charges =   0.00000   1.00000

 Dipole moment (field-independent basis, Debye):
    X=             -0.0616    Y=              0.0000    Z=              0.0000  Tot=              0.0616
 Quadrupole moment (field-independent basis, Debye-Ang):
   XX=             -6.7832   YY=             -7.6518   ZZ=             -7.6518
   XY=              0.0000   XZ=              0.0000   YZ=              0.0000

  Exact polarizability:      17.112       0.000       2.025       0.000       0.000       2.025
 Approx polarizability:      12.915       0.000       1.932       0.000       0.000       1.932

 ******    2 imaginary frequencies (negative Signs) ******

                      1                      2                      3
                      A                      A                      A
 Frequencies --   -498.1009               -77.1765               181.1486
 Red. masses --      1.0079                 1.1084                 1.0140
 Frc consts  --      0.1473                 0.0039                 0.0196
 IR Inten    --      0.6892                 0.7661                 0.0032

                      4
                      A
 Frequencies --    181.1486
 Red. masses --      1.0140
 Frc consts  --      0.0196
 IR Inten    --      0.0032

 - Thermochemistry -
 -------------------
 Temperature   298.150 Kelvin.  Pressure   1.00000 Atm.
 Atom     1 has atomic number  1 and mass   1.00783

 Molecular mass:    21.01405 amu.
 Principal axes and moments of inertia in atomic units:
                           1         2         3
     Eigenvalues --     0.00000 195.91657 195.91657
           X            1.00000  -0.00000   0.00000
           Y            0.00000   1.00000   0.00000
           Z            0.00000   0.00000   1.00000
 This molecule is a prolate symmetric top.
 Rotational symmetry number  1.
 Rotational temperature (Kelvin)      0.44210
 Rotational constant (GHZ):           9.211784
    2 imaginary frequencies ignored.
 Zero-point vibrational energy       2167.0 (Joules/Mol)
                                    0.51793 (Kcal/Mol)
 Warning -- explicit consideration of   2 degrees of freedom as
           vibrations may cause significant error
 Vibrational temperatures:    260.63   260.63
          (Kelvin)

 Zero-point correction=                           0.000825 (Hartree/Particle)
 Thermal correction to Energy=                    0.004368
 Thermal correction to Enthalpy=                  0.005312
 Thermal correction to Gibbs Free Energy=        -0.021300
 Sum of electronic and zero-point Energies=           -100.760026
 Sum of electronic and thermal Energies=              -100.756484
 Sum of electronic and thermal Enthalpies=            -100.755540
 Sum of electronic and thermal Free Energies=         -100.782152

                     E (Thermal)             CV                S
                      KCal/Mol        Cal/Mol-Kelvin    Cal/Mol-Kelvin
 Total                    2.741              8.699             56.010
 Electronic               0.000              0.000              1.377
 Translational            0.889              2.981             35.068
 Rotational               0.592              1.987             14.932
 Vibrational              1.259              3.731              4.633
 Vibration     1          0.630              1.865              2.317
 Vibration     2          0.630              1.865              2.317

 Normal termination of Gaussian 16 at Sat Aug 23 01:39:59 2025.
