 Gaussian 16, Revision C.01,
 Gaussian 16:  ES64L-G16RevC.01  3-Jul-2019

 -----------------------------------------
 # sp b3lyp/6-311g** Force nosymm scf=(qc)
 -----------------------------------------

 -------------------
 Title Card Required
 -------------------
 Symbolic Z-matrix:
 Charge =  0 Multiplicity = 2

                          Input orientation:
 ---------------------------------------------------------------------
 Center     Atomic      Atomic             Coordinates (Angstroms)
 Number     Number       Type             X           Y           Z
 ---------------------------------------------------------------------
      1          1           0        0.000000    0.000000    0.000000
      2          1           0       -3.450000    0.000000    0.000000
      3          9           0        1.800000    0.000000    0.000000
 ---------------------------------------------------------------------

 SCF Done:  E(UB3LYP) =  -100.804311247     a.u. after   18 cycles

 Alpha  occ. eigenvalues --  -24.64633  -1.07497  -0.39365  -0.36435  -0.36435
 Alpha  occ. eigenvalues --   -0.33688
 Alpha virt. eigenvalues --   -0.19208   0.19598   0.27322   0.93418   0.94812
 Alpha virt. eigenvalues --    0.94812   1.07936   1.23741   1.23741   1.23788
 Alpha virt. eigenvalues --    1.23788   1.23858   1.64794   2.11607   2.14685

  Beta  occ. eigenvalues --  -24.66521  -1.12697  -0.45292  -0.38278  -0.38278
  Beta virt. eigenvalues --   -0.15264  -0.05452   0.26737   0.39131   0.92882
  Beta virt. eigenvalues --    0.94811   0.94811   1.05901   1.33684   1.33684
  Beta virt. eigenvalues --    1.46688   1.46688   1.46805   1.69789   2.25650

 Mulliken charges and spin densities:
               1          2
     1  H    0.257114   0.595774
     2  H    0.001870   0.998194
     3  F   -0.258984  -0.593968
 Sum of Mulliken charges =   0.00000   1.00000

 Dipole moment (field-independent basis, Debye):
    X=             -2.3081    Y=             -0.0000    Z=              0.0000  Tot=              2.3081
 Quadrupole moment (field-independent basis, Debye-Ang):
   XX=            -10.2144   YY=             -7.4313   ZZ=             -7.4313
   XY=             -0.0000   XZ=              0.0000   YZ=              0.0000

  Exact polarizability:      23.771      -0.000       2.097       0.000      -0.000       2.097
 Approx polarizability:      37.134      -0.000       1.988      -0.000      -0.000       1.988

 ******    1 imaginary frequencies (negative Signs) ******

                      1                      2                      3
                      A                      A                      A
 Frequencies --  -1509.8528                26.9943               655.3407
 Red. masses --      1.0587                 1.0529                 1.0274
 Frc consts  --      1.4220                 0.0005                 0.2600
 IR Inten    --    126.0039                 0.4415                61.3106

                      4
                      A
 Frequencies --    655.3407
 Red. masses --      1.0274
 Frc consts  --      0.2600
 IR Inten    --     61.3106

 - Thermochemistry -
 -------------------
 Temperature   298.150 Kelvin.  Pressure   1.00000 Atm.
 Atom     1 has atomic number  1 and mass   1.00783

 Molecular mass:    21.01405 amu.
 Principal axes and moments of inertia in atomic units:
                           1         2         3
     Eigenvalues --     0.00000 102.27947 102.27947
           X            1.00000  -0.00000   0.00000
           Y            0.00000   1.00000   0.00000
           Z            0.00000   0.00000   1.00000
 This molecule is a prolate symmetric top.
 Rotational symmetry number  1.
 Rotational temperature (Kelvin)      0.84684
 Rotational constant (GHZ):          17.645196
    1 imaginary frequencies ignored.
 Zero-point vibrational energy       8001.1 (Joules/Mol)
                                    1.91230 (Kcal/Mol)
 Warning -- explicit consideration of   1 degrees of freedom as
           vibrations may cause significant error
 Vibrational temperatures:     38.84   942.89   942.89
          (Kelvin)

 Zero-point correction=                           0.003047 (Hartree/Particle)
 Thermal correction to Energy=                    0.006556
 Thermal correction to Enthalpy=                  0.007500
 Thermal correction to Gibbs Free Energy=        -0.019512
 Sum of electronic and zero-point Energies=           -100.801264
 Sum of electronic and thermal Energies=              -100.797755
 Sum of electronic and thermal Enthalpies=            -100.796811
 Sum of electronic and thermal Free Energies=         -100.823823

                     E (Thermal)             CV                S
                      KCal/Mol        Cal/Mol-Kelvin    Cal/Mol-Kelvin
 Total                    4.114              8.787             56.851
 Electronic               0.000              0.000              1.377
 Translational            0.889              2.981             35.068
 Rotational               0.592              1.987             13.640
 Vibrational              2.633              3.819              6.766
 Vibration     1          0.593              1.984              6.039

 Normal termination of Gaussian 16 at Fri Aug 22 16:44:57 2025.
