 Gaussian 16, Revision C.01,
 Gaussian 16:  ES64L-G16RevC.01  3-Jul-2019

 -----------------------------------------
 # sp b3lyp/6-311g** Force nosymm scf=(qc)
 -----------------------------------------

 -------------------
 Title Card Required
 -------------------
 Symbolic Z-matrix:
 Charge =  0 Multiplicity = 2

                          Input orientation:
 ---------------------------------------------------------------------
 Center     Atomic      Atomic             Coordinates (Angstroms)
 Number     Number       Type             X           Y           Z
 ---------------------------------------------------------------------
      1          1           0        0.000000    0.000000    0.000000
      2          1           0       -0.950000    0.000000    0.000000
      3          9           0        2.550000    0.000000    0.000000
 ---------------------------------------------------------------------

 SCF Done:  E(UB3LYP) =  -100.915092710     a.u. after    8 cycles

 Alpha  occ. eigenvalues --  -24.75842  -1.21767  -0.55041  -0.46161  -0.46161
 Alpha  occ. eigenvalues --   -0.40415
 Alpha virt. eigenvalues --    0.01421   0.21037   0.40678   0.89752   0.91091
 Alpha virt. eigenvalues --    0.91091   1.07882   1.07882   1.10007   1.41041
 Alpha virt. eigenvalues --    1.68205   1.68205   2.21820   2.37203   2.63969

  Beta  occ. eigenvalues --  -24.72731  -1.12836  -0.43045  -0.43045  -0.40332
  Beta virt. eigenvalues --   -0.26121   0.01857   0.21306   0.41074   0.92563
  Beta virt. eigenvalues --    0.92563   0.98167   1.08061   1.08061   1.14325
  Beta virt. eigenvalues --    1.41325   1.68334   1.68334   2.22068   2.37372

 Mulliken charges and spin densities:
               1          2
     1  H   -0.010875  -0.013240
     2  H    0.018631   0.029589
     3  F   -0.007755   0.983652
 Sum of Mulliken charges =   0.00000   1.00000

 Dipole moment (field-independent basis, Debye):
    X=             -0.1899    Y=             -0.0000    Z=              0.0000  Tot=              0.1899
 Quadrupole moment (field-independent basis, Debye-Ang):
   XX=             -5.7166   YY=             -7.2027   ZZ=             -7.2027
   XY=             -0.0000   XZ=              0.0000   YZ=             -0.0000

  Exact polarizability:      19.312      -0.000       2.062       0.000       0.000       2.062
 Approx polarizability:      21.968       0.000       2.121       0.000       0.000       2.121

 ******    1 imaginary frequencies (negative Signs) ******

                      1                      2                      3
                      A                      A                      A
 Frequencies --   -165.8865              1495.6779              1495.6779
 Red. masses --      1.1085                 1.0103                 1.0103
 Frc consts  --      0.0180                 1.3316                 1.3316
 IR Inten    --      7.0532                 0.2443                 0.2443

                      4
                      A
 Frequencies --   2155.9271
 Red. masses --      1.0079
 Frc consts  --      2.7600
 IR Inten    --     68.2476

 - Thermochemistry -
 -------------------
 Temperature   298.150 Kelvin.  Pressure   1.00000 Atm.
 Atom     1 has atomic number  1 and mass   1.00783

 Molecular mass:    21.01405 amu.
 Principal axes and moments of inertia in atomic units:
                           1         2         3
     Eigenvalues --     0.00000  61.17256  61.17256
           X            1.00000  -0.00000   0.00000
           Y            0.00000   1.00000   0.00000
           Z            0.00000   0.00000   1.00000
 This molecule is a prolate symmetric top.
 Rotational symmetry number  1.
 Rotational temperature (Kelvin)      1.41589
 Rotational constant (GHZ):          29.502462
    1 imaginary frequencies ignored.
 Zero-point vibrational energy      30787.6 (Joules/Mol)
                                    7.35841 (Kcal/Mol)
 Vibrational temperatures:   2151.95  2151.95  3101.90
          (Kelvin)

 Zero-point correction=                           0.011726 (Hartree/Particle)
 Thermal correction to Energy=                    0.014097
 Thermal correction to Enthalpy=                  0.015041
 Thermal correction to Gibbs Free Energy=        -0.008282
 Sum of electronic and zero-point Energies=           -100.903366
 Sum of electronic and thermal Energies=              -100.900996
 Sum of electronic and thermal Enthalpies=            -100.900051
 Sum of electronic and thermal Free Energies=         -100.923375

                     E (Thermal)             CV                S
                      KCal/Mol        Cal/Mol-Kelvin    Cal/Mol-Kelvin
 Total                    8.846              5.127             49.089
 Electronic               0.000              0.000              1.377
 Translational            0.889              2.981             35.068
 Rotational               0.592              1.987             12.618
 Vibrational              7.365              0.159              0.025

 Normal termination of Gaussian 16 at Fri Aug 22 17:51:20 2025.
