 Gaussian 16, Revision C.01,
 Gaussian 16:  ES64L-G16RevC.01  3-Jul-2019

 -----------------------------------------
 # sp b3lyp/6-311g** Force nosymm scf=(qc)
 -----------------------------------------

 -------------------
 Title Card Required
 -------------------
 Symbolic Z-matrix:
 Charge =  0 Multiplicity = 2

                          Input orientation:
 ---------------------------------------------------------------------
 Center     Atomic      Atomic             Coordinates (Angstroms)
 Number     Number       Type             X           Y           Z
 ---------------------------------------------------------------------
      1          1           0        0.000000    0.000000    0.000000
      2          1           0       -2.650000    0.000000    0.000000
      3          9           0        3.400000    0.000000    0.000000
 ---------------------------------------------------------------------

 SCF Done:  E(UB3LYP) =  -100.761857206     a.u. after   26 cycles

 Alpha  occ. eigenvalues --  -24.75250  -1.21222  -0.54371  -0.45652  -0.45652
 Alpha  occ. eigenvalues --   -0.32638
 Alpha virt. eigenvalues --   -0.09191   0.25455   0.34615   0.87950   0.91564
 Alpha virt. eigenvalues --    0.91564   1.02082   1.24961   1.24961   1.26459
 Alpha virt. eigenvalues --    1.41998   1.41998   1.42821   2.15917   2.37815

  Beta  occ. eigenvalues --  -24.72146  -1.12306  -0.42541  -0.42541  -0.33061
  Beta virt. eigenvalues --   -0.25422  -0.08562   0.25264   0.35526   0.93050
  Beta virt. eigenvalues --    0.93050   0.97050   1.06087   1.24460   1.24460
  Beta virt. eigenvalues --    1.25863   1.42994   1.42994   1.43813   2.16481

 Mulliken charges and spin densities:
               1          2
     1  H    0.012329  -0.964665
     2  H    0.001943   0.980550
     3  F   -0.014272   0.984115
 Sum of Mulliken charges =   0.00000   1.00000

 Dipole moment (field-independent basis, Debye):
    X=             -0.2738    Y=             -0.0000    Z=             -0.0000  Tot=              0.2738
 Quadrupole moment (field-independent basis, Debye-Ang):
   XX=             -7.3333   YY=             -7.6519   ZZ=             -7.6519
   XY=             -0.0000   XZ=             -0.0000   YZ=              0.0000

  Exact polarizability:      33.248      -0.000       2.024      -0.000       0.000       2.024
 Approx polarizability:      25.961      -0.000       1.928      -0.000      -0.000       1.928

 ******    2 imaginary frequencies (negative Signs) ******

                      1                      2                      3
                      A                      A                      A
 Frequencies --   -552.2418              -153.4168               199.7842
 Red. masses --      1.0086                 1.1075                 1.0152
 Frc consts  --      0.1812                 0.0154                 0.0239
 IR Inten    --      8.8538                 7.6057                 0.1164

                      4
                      A
 Frequencies --    199.7842
 Red. masses --      1.0152
 Frc consts  --      0.0239
 IR Inten    --      0.1164

 - Thermochemistry -
 -------------------
 Temperature   298.150 Kelvin.  Pressure   1.00000 Atm.
 Atom     1 has atomic number  1 and mass   1.00783

 Molecular mass:    21.01405 amu.
 Principal axes and moments of inertia in atomic units:
                           1         2         3
     Eigenvalues --     0.00000 157.92302 157.92302
           X            1.00000  -0.00000   0.00000
           Y            0.00000   1.00000   0.00000
           Z            0.00000   0.00000   1.00000
 This molecule is a prolate symmetric top.
 Rotational symmetry number  1.
 Rotational temperature (Kelvin)      0.54846
 Rotational constant (GHZ):          11.427981
    2 imaginary frequencies ignored.
 Zero-point vibrational energy       2390.0 (Joules/Mol)
                                    0.57121 (Kcal/Mol)
 Warning -- explicit consideration of   2 degrees of freedom as
           vibrations may cause significant error
 Vibrational temperatures:    287.44   287.44
          (Kelvin)

 Zero-point correction=                           0.000910 (Hartree/Particle)
 Thermal correction to Energy=                    0.004393
 Thermal correction to Enthalpy=                  0.005337
 Thermal correction to Gibbs Free Energy=        -0.020899
 Sum of electronic and zero-point Energies=           -100.760947
 Sum of electronic and thermal Energies=              -100.757464
 Sum of electronic and thermal Enthalpies=            -100.756520
 Sum of electronic and thermal Free Energies=         -100.782756

                     E (Thermal)             CV                S
                      KCal/Mol        Cal/Mol-Kelvin    Cal/Mol-Kelvin
 Total                    2.757              8.648             55.219
 Electronic               0.000              0.000              1.377
 Translational            0.889              2.981             35.068
 Rotational               0.592              1.987             14.503
 Vibrational              1.275              3.680              4.270
 Vibration     1          0.638              1.840              2.135
 Vibration     2          0.638              1.840              2.135

 Normal termination of Gaussian 16 at Fri Aug 22 21:17:35 2025.
