 Gaussian 16, Revision C.01,
 Gaussian 16:  ES64L-G16RevC.01  3-Jul-2019

 -----------------------------------------
 # sp b3lyp/6-311g** Force nosymm scf=(qc)
 -----------------------------------------

 -------------------
 Title Card Required
 -------------------
 Symbolic Z-matrix:
 Charge =  0 Multiplicity = 2

                          Input orientation:
 ---------------------------------------------------------------------
 Center     Atomic      Atomic             Coordinates (Angstroms)
 Number     Number       Type             X           Y           Z
 ---------------------------------------------------------------------
      1          1           0        0.000000    0.000000    0.000000
      2          1           0       -2.950000    0.000000    0.000000
      3          9           0        2.950000    0.000000    0.000000
 ---------------------------------------------------------------------

 SCF Done:  E(UB3LYP) =  -100.762432655     a.u. after   21 cycles

 Alpha  occ. eigenvalues --  -24.73923  -1.19994  -0.53041  -0.44538  -0.44538
 Alpha  occ. eigenvalues --   -0.32781
 Alpha virt. eigenvalues --   -0.09306   0.24703   0.34881   0.89624   0.92373
 Alpha virt. eigenvalues --    0.92373   1.04238   1.24764   1.24764   1.25691
 Alpha virt. eigenvalues --    1.42103   1.42103   1.42687   2.15504   2.38537

  Beta  occ. eigenvalues --  -24.70908  -1.11356  -0.41521  -0.41521  -0.33888
  Beta virt. eigenvalues --   -0.24687  -0.07792   0.24778   0.36521   0.93831
  Beta virt. eigenvalues --    0.93831   0.98276   1.08004   1.23482   1.23482
  Beta virt. eigenvalues --    1.24647   1.44435   1.44435   1.44479   2.15932

 Mulliken charges and spin densities:
               1          2
     1  H    0.038498  -0.946869
     2  H    0.001982   0.991583
     3  F   -0.040480   0.955287
 Sum of Mulliken charges =  -0.00000   1.00000

 Dipole moment (field-independent basis, Debye):
    X=             -0.6409    Y=             -0.0000    Z=             -0.0000  Tot=              0.6409
 Quadrupole moment (field-independent basis, Debye-Ang):
   XX=             -8.2773   YY=             -7.6216   ZZ=             -7.6216
   XY=             -0.0000   XZ=             -0.0000   YZ=             -0.0000

  Exact polarizability:      35.890      -0.000       2.021      -0.000      -0.000       2.021
 Approx polarizability:      35.675      -0.000       1.923      -0.000       0.000       1.923

 ******    2 imaginary frequencies (negative Signs) ******

                      1                      2                      3
                      A                      A                      A
 Frequencies --   -471.2204              -198.3281               174.8032
 Red. masses --      1.0253                 1.0881                 1.0179
 Frc consts  --      0.1341                 0.0252                 0.0183
 IR Inten    --     37.0796                 6.6774                 1.3134

                      4
                      A
 Frequencies --    174.8032
 Red. masses --      1.0179
 Frc consts  --      0.0183
 IR Inten    --      1.3134

 - Thermochemistry -
 -------------------
 Temperature   298.150 Kelvin.  Pressure   1.00000 Atm.
 Atom     1 has atomic number  1 and mass   1.00783

 Molecular mass:    21.01405 amu.
 Principal axes and moments of inertia in atomic units:
                           1         2         3
     Eigenvalues --     0.00000 143.08285 143.08285
           X            1.00000  -0.00000   0.00000
           Y            0.00000   1.00000   0.00000
           Z            0.00000   0.00000   1.00000
 This molecule is a prolate symmetric top.
 Rotational symmetry number  1.
 Rotational temperature (Kelvin)      0.60534
 Rotational constant (GHZ):          12.613260
    2 imaginary frequencies ignored.
 Zero-point vibrational energy       2091.1 (Joules/Mol)
                                    0.49979 (Kcal/Mol)
 Warning -- explicit consideration of   2 degrees of freedom as
           vibrations may cause significant error
 Vibrational temperatures:    251.50   251.50
          (Kelvin)

 Zero-point correction=                           0.000796 (Hartree/Particle)
 Thermal correction to Energy=                    0.004360
 Thermal correction to Enthalpy=                  0.005304
 Thermal correction to Gibbs Free Energy=        -0.021075
 Sum of electronic and zero-point Energies=           -100.761636
 Sum of electronic and thermal Energies=              -100.758073
 Sum of electronic and thermal Enthalpies=            -100.757129
 Sum of electronic and thermal Free Energies=         -100.783508

                     E (Thermal)             CV                S
                      KCal/Mol        Cal/Mol-Kelvin    Cal/Mol-Kelvin
 Total                    2.736              8.715             55.519
 Electronic               0.000              0.000              1.377
 Translational            0.889              2.981             35.068
 Rotational               0.592              1.987             14.307
 Vibrational              1.254              3.747              4.766
 Vibration     1          0.627              1.873              2.383
 Vibration     2          0.627              1.873              2.383

 Normal termination of Gaussian 16 at Fri Aug 22 19:18:24 2025.
