 Gaussian 16, Revision C.01,
 Gaussian 16:  ES64L-G16RevC.01  3-Jul-2019

 -----------------------------------------
 # sp b3lyp/6-311g** Force nosymm scf=(qc)
 -----------------------------------------

 -------------------
 Title Card Required
 -------------------
 Symbolic Z-matrix:
 Charge =  0 Multiplicity = 2

                          Input orientation:
 ---------------------------------------------------------------------
 Center     Atomic      Atomic             Coordinates (Angstroms)
 Number     Number       Type             X           Y           Z
 ---------------------------------------------------------------------
      1          1           0        0.000000    0.000000    0.000000
      2          1           0       -3.350000    0.000000    0.000000
      3          9           0        3.550000    0.000000    0.000000
 ---------------------------------------------------------------------

 SCF Done:  E(UB3LYP) =  -100.759209988     a.u. after   29 cycles

 Alpha  occ. eigenvalues --  -24.75468  -1.21425  -0.54591  -0.45835  -0.45835
 Alpha  occ. eigenvalues --   -0.32351
 Alpha virt. eigenvalues --   -0.07221   0.24459   0.36870   0.87453   0.91430
 Alpha virt. eigenvalues --    0.91430   1.01693   1.25159   1.25159   1.25413
 Alpha virt. eigenvalues --    1.44853   1.45018   1.45018   2.15245   2.40734

  Beta  occ. eigenvalues --  -24.72349  -1.12461  -0.42709  -0.42709  -0.32781
  Beta virt. eigenvalues --   -0.25526  -0.06733   0.24235   0.37691   0.92921
  Beta virt. eigenvalues --    0.92921   0.96625   1.05723   1.24668   1.24668
  Beta virt. eigenvalues --    1.24899   1.45569   1.45804   1.45804   2.15441

 Mulliken charges and spin densities:
               1          2
     1  H    0.009765  -0.985889
     2  H    0.000243   0.996920
     3  F   -0.010008   0.988969
 Sum of Mulliken charges =  -0.00000   1.00000

 Dipole moment (field-independent basis, Debye):
    X=             -0.1867    Y=              0.0000    Z=             -0.0000  Tot=              0.1867
 Quadrupole moment (field-independent basis, Debye-Ang):
   XX=             -7.3083   YY=             -7.6249   ZZ=             -7.6249
   XY=              0.0000   XZ=             -0.0000   YZ=             -0.0000

  Exact polarizability:      22.836       0.000       2.036      -0.000      -0.000       2.036
 Approx polarizability:      17.687       0.000       1.933      -0.000       0.000       1.933

 ******    2 imaginary frequencies (negative Signs) ******

                      1                      2                      3
                      A                      A                      A
 Frequencies --   -261.8318              -110.8238                82.2973
 Red. masses --      1.0191                 1.0952                 1.0173
 Frc consts  --      0.0412                 0.0079                 0.0041
 IR Inten    --      7.8904                 1.9079                 0.0803

                      4
                      A
 Frequencies --     82.2974
 Red. masses --      1.0173
 Frc consts  --      0.0041
 IR Inten    --      0.0803

 - Thermochemistry -
 -------------------
 Temperature   298.150 Kelvin.  Pressure   1.00000 Atm.
 Atom     1 has atomic number  1 and mass   1.00783

 Molecular mass:    21.01405 amu.
 Principal axes and moments of inertia in atomic units:
                           1         2         3
     Eigenvalues --     0.00000 197.85620 197.85620
           X            1.00000  -0.00000   0.00000
           Y            0.00000   1.00000   0.00000
           Z            0.00000   0.00000   1.00000
 This molecule is a prolate symmetric top.
 Rotational symmetry number  1.
 Rotational temperature (Kelvin)      0.43776
 Rotational constant (GHZ):           9.121479
    2 imaginary frequencies ignored.
 Zero-point vibrational energy        984.5 (Joules/Mol)
                                    0.23530 (Kcal/Mol)
 Warning -- explicit consideration of   2 degrees of freedom as
           vibrations may cause significant error
 Vibrational temperatures:    118.41   118.41
          (Kelvin)

 Zero-point correction=                           0.000375 (Hartree/Particle)
 Thermal correction to Energy=                    0.004274
 Thermal correction to Enthalpy=                  0.005218
 Thermal correction to Gibbs Free Energy=        -0.022847
 Sum of electronic and zero-point Energies=           -100.758835
 Sum of electronic and thermal Energies=              -100.754936
 Sum of electronic and thermal Enthalpies=            -100.753992
 Sum of electronic and thermal Free Energies=         -100.782057

                     E (Thermal)             CV                S
                      KCal/Mol        Cal/Mol-Kelvin    Cal/Mol-Kelvin
 Total                    2.682              8.891             59.067
 Electronic               0.000              0.000              1.377
 Translational            0.889              2.981             35.068
 Rotational               0.592              1.987             14.951
 Vibrational              1.201              3.923              7.671
 Vibration     1          0.600              1.961              3.835
 Vibration     2          0.600              1.961              3.835

 Normal termination of Gaussian 16 at Fri Aug 22 22:41:10 2025.
