 Gaussian 16, Revision C.01,
 Gaussian 16:  ES64L-G16RevC.01  3-Jul-2019

 -----------------------------------------
 # sp b3lyp/6-311g** Force nosymm scf=(qc)
 -----------------------------------------

 -------------------
 Title Card Required
 -------------------
 Symbolic Z-matrix:
 Charge =  0 Multiplicity = 2

                          Input orientation:
 ---------------------------------------------------------------------
 Center     Atomic      Atomic             Coordinates (Angstroms)
 Number     Number       Type             X           Y           Z
 ---------------------------------------------------------------------
      1          1           0        0.000000    0.000000    0.000000
      2          1           0       -3.150000    0.000000    0.000000
      3          9           0        1.450000    0.000000    0.000000
 ---------------------------------------------------------------------

 SCF Done:  E(UB3LYP) =  -100.865983194     a.u. after    8 cycles

 Alpha  occ. eigenvalues --  -24.64312  -1.09933  -0.43866  -0.36518  -0.36518
 Alpha  occ. eigenvalues --   -0.34386
 Alpha virt. eigenvalues --   -0.13097   0.21056   0.27781   0.93327   0.93327
 Alpha virt. eigenvalues --    1.03523   1.12503   1.23132   1.23132   1.23431
 Alpha virt. eigenvalues --    1.32007   1.32007   1.72769   2.13758   2.19964

  Beta  occ. eigenvalues --  -24.64273  -1.09829  -0.43758  -0.36481  -0.36481
  Beta virt. eigenvalues --   -0.13787  -0.06923   0.24100   0.37711   0.93314
  Beta virt. eigenvalues --    0.93314   1.03630   1.12589   1.31844   1.31844
  Beta virt. eigenvalues --    1.45058   1.45493   1.45493   1.72779   2.19730

 Mulliken charges and spin densities:
               1          2
     1  H    0.350987  -0.008164
     2  H    0.004104   0.995557
     3  F   -0.355091   0.012607
 Sum of Mulliken charges =   0.00000   1.00000

 Dipole moment (field-independent basis, Debye):
    X=             -2.6039    Y=             -0.0000    Z=              0.0000  Tot=              2.6039
 Quadrupole moment (field-independent basis, Debye-Ang):
   XX=             -9.5988   YY=             -7.2948   ZZ=             -7.2948
   XY=             -0.0000   XZ=              0.0000   YZ=              0.0000

  Exact polarizability:      15.648      -0.000       2.213       0.000      -0.000       2.213
 Approx polarizability:      26.723       0.000       2.143      -0.000      -0.000       2.143

 ******    2 imaginary frequencies (negative Signs) ******

                      1                      2                      3
                      A                      A                      A
 Frequencies --  -1114.4442              -115.5896              1047.7068
 Red. masses --      1.0563                 1.0553                 1.0294
 Frc consts  --      0.7729                 0.0083                 0.6658
 IR Inten    --     61.0326                 0.5706               118.1745

                      4
                      A
 Frequencies --   1047.7068
 Red. masses --      1.0294
 Frc consts  --      0.6658
 IR Inten    --    118.1745

 - Thermochemistry -
 -------------------
 Temperature   298.150 Kelvin.  Pressure   1.00000 Atm.
 Atom     1 has atomic number  1 and mass   1.00783

 Molecular mass:    21.01405 amu.
 Principal axes and moments of inertia in atomic units:
                           1         2         3
     Eigenvalues --     0.00000  77.40409  77.40409
           X            1.00000  -0.00000   0.00000
           Y            0.00000   1.00000   0.00000
           Z            0.00000   0.00000   1.00000
 This molecule is a prolate symmetric top.
 Rotational symmetry number  1.
 Rotational temperature (Kelvin)      1.11898
 Rotational constant (GHZ):          23.315837
    2 imaginary frequencies ignored.
 Zero-point vibrational energy      12533.4 (Joules/Mol)
                                    2.99554 (Kcal/Mol)
 Vibrational temperatures:   1507.42  1507.42
          (Kelvin)

 Zero-point correction=                           0.004774 (Hartree/Particle)
 Thermal correction to Energy=                    0.007195
 Thermal correction to Enthalpy=                  0.008140
 Thermal correction to Gibbs Free Energy=        -0.015468
 Sum of electronic and zero-point Energies=           -100.861209
 Sum of electronic and thermal Energies=              -100.858788
 Sum of electronic and thermal Enthalpies=            -100.857844
 Sum of electronic and thermal Free Energies=         -100.881451

                     E (Thermal)             CV                S
                      KCal/Mol        Cal/Mol-Kelvin    Cal/Mol-Kelvin
 Total                    4.515              5.624             49.686
 Electronic               0.000              0.000              1.377
 Translational            0.889              2.981             35.068
 Rotational               0.592              1.987             13.086
 Vibrational              3.034              0.656              0.154

 Normal termination of Gaussian 16 at Fri Aug 22 16:23:38 2025.
