 Gaussian 16, Revision C.01,
 Gaussian 16:  ES64L-G16RevC.01  3-Jul-2019

 -----------------------------------------
 # sp b3lyp/6-311g** Force nosymm scf=(qc)
 -----------------------------------------

 -------------------
 Title Card Required
 -------------------
 Symbolic Z-matrix:
 Charge =  0 Multiplicity = 2

                          Input orientation:
 ---------------------------------------------------------------------
 Center     Atomic      Atomic             Coordinates (Angstroms)
 Number     Number       Type             X           Y           Z
 ---------------------------------------------------------------------
      1          1           0        0.000000    0.000000    0.000000
      2          1           0       -2.050000    0.000000    0.000000
      3          9           0        1.950000    0.000000    0.000000
 ---------------------------------------------------------------------

 SCF Done:  E(UB3LYP) =  -100.802016487     a.u. after   13 cycles

 Alpha  occ. eigenvalues --  -24.67667  -1.13995  -0.46736  -0.39260  -0.39260
 Alpha  occ. eigenvalues --   -0.36408
 Alpha virt. eigenvalues --   -0.13637   0.23896   0.30532   0.89077   0.95041
 Alpha virt. eigenvalues --    0.95041   1.05176   1.21464   1.21464   1.28246
 Alpha virt. eigenvalues --    1.33973   1.33973   1.62008   2.10973   2.30250

  Beta  occ. eigenvalues --  -24.65364  -1.07572  -0.37723  -0.36994  -0.36994
  Beta virt. eigenvalues --   -0.21024  -0.11349   0.25849   0.32061   0.91519
  Beta virt. eigenvalues --    0.95628   0.95628   1.08497   1.23313   1.23313
  Beta virt. eigenvalues --    1.36744   1.36744   1.40225   1.58297   2.12061

 Mulliken charges and spin densities:
               1          2
     1  H    0.160190  -0.626009
     2  H    0.042520   0.902184
     3  F   -0.202710   0.723826
 Sum of Mulliken charges =  -0.00000   1.00000

 Dipole moment (field-independent basis, Debye):
    X=             -2.3728    Y=              0.0000    Z=              0.0000  Tot=              2.3728
 Quadrupole moment (field-independent basis, Debye-Ang):
   XX=             -8.8396   YY=             -7.5308   ZZ=             -7.5308
   XY=             -0.0000   XZ=             -0.0000   YZ=             -0.0000

  Exact polarizability:      46.988      -0.000       2.071      -0.000       0.000       2.071
 Approx polarizability:      56.601       0.000       1.975       0.000      -0.000       1.975

 ******    2 imaginary frequencies (negative Signs) ******

                      1                      2                      3
                      A                      A                      A
 Frequencies --  -1555.8166              -569.9940               644.6154
 Red. masses --      1.0242                 1.0893                 1.0186
 Frc consts  --      1.4607                 0.2085                 0.2494
 IR Inten    --    108.4905                30.2541                16.9162

                      4
                      A
 Frequencies --    644.6154
 Red. masses --      1.0186
 Frc consts  --      0.2494
 IR Inten    --     16.9162

 - Thermochemistry -
 -------------------
 Temperature   298.150 Kelvin.  Pressure   1.00000 Atm.
 Atom     1 has atomic number  1 and mass   1.00783

 Molecular mass:    21.01405 amu.
 Principal axes and moments of inertia in atomic units:
                           1         2         3
     Eigenvalues --     0.00000  65.15865  65.15865
           X            1.00000  -0.00000   0.00000
           Y            0.00000   1.00000   0.00000
           Z            0.00000   0.00000   1.00000
 This molecule is a prolate symmetric top.
 Rotational symmetry number  1.
 Rotational temperature (Kelvin)      1.32928
 Rotational constant (GHZ):          27.697646
    2 imaginary frequencies ignored.
 Zero-point vibrational energy       7711.3 (Joules/Mol)
                                    1.84305 (Kcal/Mol)
 Vibrational temperatures:    927.46   927.46
          (Kelvin)

 Zero-point correction=                           0.002937 (Hartree/Particle)
 Thermal correction to Energy=                    0.005572
 Thermal correction to Enthalpy=                  0.006516
 Thermal correction to Gibbs Free Energy=        -0.017216
 Sum of electronic and zero-point Energies=           -100.799079
 Sum of electronic and thermal Energies=              -100.796445
 Sum of electronic and thermal Enthalpies=            -100.795501
 Sum of electronic and thermal Free Energies=         -100.819232

                     E (Thermal)             CV                S
                      KCal/Mol        Cal/Mol-Kelvin    Cal/Mol-Kelvin
 Total                    3.496              6.846             49.947
 Electronic               0.000              0.000              1.377
 Translational            0.889              2.981             35.068
 Rotational               0.592              1.987             12.744
 Vibrational              2.015              1.878              0.758

 Normal termination of Gaussian 16 at Fri Aug 22 16:53:21 2025.
