 Gaussian 16, Revision C.01,
 Gaussian 16:  ES64L-G16RevC.01  3-Jul-2019

 -----------------------------------------
 # sp b3lyp/6-311g** Force nosymm scf=(qc)
 -----------------------------------------

 -------------------
 Title Card Required
 -------------------
 Symbolic Z-matrix:
 Charge =  0 Multiplicity = 2

                          Input orientation:
 ---------------------------------------------------------------------
 Center     Atomic      Atomic             Coordinates (Angstroms)
 Number     Number       Type             X           Y           Z
 ---------------------------------------------------------------------
      1          1           0        0.000000    0.000000    0.000000
      2          1           0       -3.350000    0.000000    0.000000
      3          9           0        2.150000    0.000000    0.000000
 ---------------------------------------------------------------------

 SCF Done:  E(UB3LYP) =  -100.778271978     a.u. after   21 cycles

 Alpha  occ. eigenvalues --  -24.66722  -1.08389  -0.38117  -0.38117  -0.37092
 Alpha  occ. eigenvalues --   -0.33226
 Alpha virt. eigenvalues --   -0.21611   0.20610   0.27943   0.90959   0.95675
 Alpha virt. eigenvalues --    0.95675   1.08272   1.21531   1.21531   1.24188
 Alpha virt. eigenvalues --    1.24188   1.24330   1.44784   2.11535   2.15029

  Beta  occ. eigenvalues --  -24.69287  -1.15611  -0.48326  -0.40657  -0.40657
  Beta virt. eigenvalues --   -0.13011  -0.04745   0.30814   0.39975   0.88510
  Beta virt. eigenvalues --    0.94685   0.94685   1.06096   1.37052   1.37052
  Beta virt. eigenvalues --    1.47599   1.47599   1.47807   1.53948   2.31919

 Mulliken charges and spin densities:
               1          2
     1  H    0.155766   0.809166
     2  H    0.001799   0.998245
     3  F   -0.157565  -0.807411
 Sum of Mulliken charges =   0.00000   1.00000

 Dipole moment (field-independent basis, Debye):
    X=             -1.7206    Y=             -0.0000    Z=             -0.0000  Tot=              1.7206
 Quadrupole moment (field-independent basis, Debye-Ang):
   XX=             -9.9195   YY=             -7.5074   ZZ=             -7.5074
   XY=             -0.0000   XZ=             -0.0000   YZ=              0.0000

  Exact polarizability:      29.062      -0.000       2.045      -0.000      -0.000       2.045
 Approx polarizability:      40.512      -0.000       1.933      -0.000       0.000       1.933

 ******    1 imaginary frequencies (negative Signs) ******

                      1                      2                      3
                      A                      A                      A
 Frequencies --   -909.1106                85.8408               381.2062
 Red. masses --      1.0597                 1.0518                 1.0241
 Frc consts  --      0.5160                 0.0046                 0.0877
 IR Inten    --     98.2888                 0.4367                22.6963

                      4
                      A
 Frequencies --    381.2062
 Red. masses --      1.0241
 Frc consts  --      0.0877
 IR Inten    --     22.6963

 - Thermochemistry -
 -------------------
 Temperature   298.150 Kelvin.  Pressure   1.00000 Atm.
 Atom     1 has atomic number  1 and mass   1.00783

 Molecular mass:    21.01405 amu.
 Principal axes and moments of inertia in atomic units:
                           1         2         3
     Eigenvalues --     0.00000 115.40504 115.40504
           X            1.00000  -0.00000   0.00000
           Y            0.00000   1.00000   0.00000
           Z            0.00000   0.00000   1.00000
 This molecule is a prolate symmetric top.
 Rotational symmetry number  1.
 Rotational temperature (Kelvin)      0.75052
 Rotational constant (GHZ):          15.638323
    1 imaginary frequencies ignored.
 Zero-point vibrational energy       5073.7 (Joules/Mol)
                                    1.21264 (Kcal/Mol)
 Warning -- explicit consideration of   3 degrees of freedom as
           vibrations may cause significant error
 Vibrational temperatures:    123.51   548.47   548.47
          (Kelvin)

 Zero-point correction=                           0.001932 (Hartree/Particle)
 Thermal correction to Energy=                    0.005711
 Thermal correction to Enthalpy=                  0.006655
 Thermal correction to Gibbs Free Energy=        -0.020022
 Sum of electronic and zero-point Energies=           -100.776340
 Sum of electronic and thermal Energies=              -100.772561
 Sum of electronic and thermal Enthalpies=            -100.771617
 Sum of electronic and thermal Free Energies=         -100.798294

                     E (Thermal)             CV                S
                      KCal/Mol        Cal/Mol-Kelvin    Cal/Mol-Kelvin
 Total                    3.584              9.948             56.147
 Electronic               0.000              0.000              1.377
 Translational            0.889              2.981             35.068
 Rotational               0.592              1.987             13.880
 Vibrational              2.103              4.980              5.821
 Vibration     1          0.601              1.959              3.753
 Vibration     2          0.751              1.510              1.034
 Vibration     3          0.751              1.510              1.034

 Normal termination of Gaussian 16 at Fri Aug 22 17:08:59 2025.
