 Gaussian 16, Revision C.01,
 Gaussian 16:  ES64L-G16RevC.01  3-Jul-2019

 -----------------------------------------
 # sp b3lyp/6-311g** Force nosymm scf=(qc)
 -----------------------------------------

 -------------------
 Title Card Required
 -------------------
 Symbolic Z-matrix:
 Charge =  0 Multiplicity = 2

                          Input orientation:
 ---------------------------------------------------------------------
 Center     Atomic      Atomic             Coordinates (Angstroms)
 Number     Number       Type             X           Y           Z
 ---------------------------------------------------------------------
      1          1           0        0.000000    0.000000    0.000000
      2          1           0       -0.900000    0.000000    0.000000
      3          9           0        2.400000    0.000000    0.000000
 ---------------------------------------------------------------------

 SCF Done:  E(UB3LYP) =  -100.922384407     a.u. after    7 cycles

 Alpha  occ. eigenvalues --  -24.75668  -1.21613  -0.54936  -0.46019  -0.46019
 Alpha  occ. eigenvalues --   -0.41381
 Alpha virt. eigenvalues --    0.02771   0.20821   0.42234   0.89558   0.91112
 Alpha virt. eigenvalues --    0.91112   1.07389   1.07389   1.11625   1.45678
 Alpha virt. eigenvalues --    1.71274   1.71274   2.17769   2.37719   2.73235

  Beta  occ. eigenvalues --  -24.72572  -1.12735  -0.42920  -0.42920  -0.41303
  Beta virt. eigenvalues --   -0.26066   0.03325   0.21155   0.42575   0.92569
  Beta virt. eigenvalues --    0.92569   0.97906   1.07646   1.07646   1.15749
  Beta virt. eigenvalues --    1.46201   1.71446   1.71446   2.18068   2.37972

 Mulliken charges and spin densities:
               1          2
     1  H   -0.009975  -0.016139
     2  H    0.022041   0.038357
     3  F   -0.012066   0.977782
 Sum of Mulliken charges =   0.00000   1.00000

 Dipole moment (field-independent basis, Debye):
    X=             -0.2421    Y=             -0.0000    Z=             -0.0000  Tot=              0.2421
 Quadrupole moment (field-independent basis, Debye-Ang):
   XX=             -5.7869   YY=             -7.1356   ZZ=             -7.1356
   XY=             -0.0000   XZ=             -0.0000   YZ=              0.0000

  Exact polarizability:      19.264      -0.000       2.056       0.000      -0.000       2.056
 Approx polarizability:      21.557      -0.000       2.122      -0.000      -0.000       2.122

 ******    1 imaginary frequencies (negative Signs) ******

                      1                      2                      3
                      A                      A                      A
 Frequencies --   -185.7609              1430.6021              1430.6021
 Red. masses --      1.1085                 1.0103                 1.0103
 Frc consts  --      0.0225                 1.2182                 1.2182
 IR Inten    --     11.0032                 0.3675                 0.3675

                      4
                      A
 Frequencies --   2590.6908
 Red. masses --      1.0078
 Frc consts  --      3.9854
 IR Inten    --    104.0822

 - Thermochemistry -
 -------------------
 Temperature   298.150 Kelvin.  Pressure   1.00000 Atm.
 Atom     1 has atomic number  1 and mass   1.00783

 Molecular mass:    21.01405 amu.
 Principal axes and moments of inertia in atomic units:
                           1         2         3
     Eigenvalues --     0.00000  54.31549  54.31549
           X            1.00000  -0.00000   0.00000
           Y            0.00000   1.00000   0.00000
           Z            0.00000   0.00000   1.00000
 This molecule is a prolate symmetric top.
 Rotational symmetry number  1.
 Rotational temperature (Kelvin)      1.59464
 Rotational constant (GHZ):          33.227006
    1 imaginary frequencies ignored.
 Zero-point vibrational energy      32609.6 (Joules/Mol)
                                    7.79388 (Kcal/Mol)
 Vibrational temperatures:   2058.32  2058.32  3727.43
          (Kelvin)

 Zero-point correction=                           0.012420 (Hartree/Particle)
 Thermal correction to Energy=                    0.014794
 Thermal correction to Enthalpy=                  0.015738
 Thermal correction to Gibbs Free Energy=        -0.007476
 Sum of electronic and zero-point Energies=           -100.909964
 Sum of electronic and thermal Energies=              -100.907590
 Sum of electronic and thermal Enthalpies=            -100.906646
 Sum of electronic and thermal Free Energies=         -100.929861

                     E (Thermal)             CV                S
                      KCal/Mol        Cal/Mol-Kelvin    Cal/Mol-Kelvin
 Total                    9.283              5.160             48.859
 Electronic               0.000              0.000              1.377
 Translational            0.889              2.981             35.068
 Rotational               0.592              1.987             12.382
 Vibrational              7.802              0.192              0.032

 Normal termination of Gaussian 16 at Fri Aug 22 17:30:31 2025.
