 Gaussian 16, Revision C.01,
 Gaussian 16:  ES64L-G16RevC.01  3-Jul-2019

 -----------------------------------------
 # sp b3lyp/6-311g** Force nosymm scf=(qc)
 -----------------------------------------

 -------------------
 Title Card Required
 -------------------
 Symbolic Z-matrix:
 Charge =  0 Multiplicity = 2

                          Input orientation:
 ---------------------------------------------------------------------
 Center     Atomic      Atomic             Coordinates (Angstroms)
 Number     Number       Type             X           Y           Z
 ---------------------------------------------------------------------
      1          1           0        0.000000    0.000000    0.000000
      2          1           0       -3.350000    0.000000    0.000000
      3          9           0        1.150000    0.000000    0.000000
 ---------------------------------------------------------------------

 SCF Done:  E(UB3LYP) =  -100.937392597     a.u. after    6 cycles

 Alpha  occ. eigenvalues --  -24.64315  -1.12994  -0.48647  -0.37788  -0.37788
 Alpha  occ. eigenvalues --   -0.33954
 Alpha virt. eigenvalues --   -0.04051   0.22957   0.30176   0.93363   0.93363
 Alpha virt. eigenvalues --    1.00194   1.23504   1.23565   1.23565   1.28061
 Alpha virt. eigenvalues --    1.34944   1.34944   1.75753   2.14032   2.30340

  Beta  occ. eigenvalues --  -24.64311  -1.12982  -0.48633  -0.37784  -0.37784
  Beta virt. eigenvalues --   -0.07472  -0.02808   0.28238   0.38636   0.93363
  Beta virt. eigenvalues --    0.93363   1.00206   1.27931   1.34936   1.34936
  Beta virt. eigenvalues --    1.47752   1.47752   1.48189   1.75799   2.30169

 Mulliken charges and spin densities:
               1          2
     1  H    0.347178   0.000338
     2  H    0.001644   0.998116
     3  F   -0.348822   0.001546
 Sum of Mulliken charges =   0.00000   1.00000

 Dipole moment (field-independent basis, Debye):
    X=             -2.2431    Y=             -0.0000    Z=             -0.0000  Tot=              2.2431
 Quadrupole moment (field-independent basis, Debye-Ang):
   XX=             -8.6728   YY=             -7.0891   ZZ=             -7.0891
   XY=             -0.0000   XZ=             -0.0000   YZ=              0.0000

  Exact polarizability:       9.025       0.000       2.346      -0.000      -0.000       2.346
 Approx polarizability:      12.132      -0.000       2.306       0.000      -0.000       2.306

 ******    1 imaginary frequencies (negative Signs) ******

                      1                      2                      3
                      A                      A                      A
 Frequencies --    -67.7754              1204.3194              1204.3194
 Red. masses --      1.0529                 1.0341                 1.0341
 Frc consts  --      0.0028                 0.8837                 0.8837
 IR Inten    --      0.1582               150.3651               150.3651

                      4
                      A
 Frequencies --   1464.5607
 Red. masses --      1.0587
 Frc consts  --      1.3379
 IR Inten    --     76.0062

 - Thermochemistry -
 -------------------
 Temperature   298.150 Kelvin.  Pressure   1.00000 Atm.
 Atom     1 has atomic number  1 and mass   1.00783

 Molecular mass:    21.01405 amu.
 Principal axes and moments of inertia in atomic units:
                           1         2         3
     Eigenvalues --     0.00000  72.12957  72.12957
           X            1.00000  -0.00000   0.00000
           Y            0.00000   1.00000   0.00000
           Z            0.00000   0.00000   1.00000
 This molecule is a prolate symmetric top.
 Rotational symmetry number  1.
 Rotational temperature (Kelvin)      1.20081
 Rotational constant (GHZ):          25.020824
    1 imaginary frequencies ignored.
 Zero-point vibrational energy      23166.9 (Joules/Mol)
                                    5.53702 (Kcal/Mol)
 Vibrational temperatures:   1732.75  1732.75  2107.18
          (Kelvin)

 Zero-point correction=                           0.008824 (Hartree/Particle)
 Thermal correction to Energy=                    0.011223
 Thermal correction to Enthalpy=                  0.012167
 Thermal correction to Gibbs Free Energy=        -0.011345
 Sum of electronic and zero-point Energies=           -100.928569
 Sum of electronic and thermal Energies=              -100.926170
 Sum of electronic and thermal Enthalpies=            -100.925226
 Sum of electronic and thermal Free Energies=         -100.948738

                     E (Thermal)             CV                S
                      KCal/Mol        Cal/Mol-Kelvin    Cal/Mol-Kelvin
 Total                    7.042              5.457             49.486
 Electronic               0.000              0.000              1.377
 Translational            0.889              2.981             35.068
 Rotational               0.592              1.987             12.946
 Vibrational              5.561              0.489              0.095

 Normal termination of Gaussian 16 at Fri Aug 22 16:08:38 2025.
