 Gaussian 16, Revision C.01,
 Gaussian 16:  ES64L-G16RevC.01  3-Jul-2019

 -----------------------------------------
 # sp b3lyp/6-311g** Force nosymm scf=(qc)
 -----------------------------------------

 -------------------
 Title Card Required
 -------------------
 Symbolic Z-matrix:
 Charge =  0 Multiplicity = 2

                          Input orientation:
 ---------------------------------------------------------------------
 Center     Atomic      Atomic             Coordinates (Angstroms)
 Number     Number       Type             X           Y           Z
 ---------------------------------------------------------------------
      1          1           0        0.000000    0.000000    0.000000
      2          1           0       -3.750000    0.000000    0.000000
      3          9           0        1.200000    0.000000    0.000000
 ---------------------------------------------------------------------

 SCF Done:  E(UB3LYP) =  -100.925545979     a.u. after    6 cycles

 Alpha  occ. eigenvalues --  -24.64358  -1.12275  -0.47749  -0.37535  -0.37535
 Alpha  occ. eigenvalues --   -0.33639
 Alpha virt. eigenvalues --   -0.05766   0.22133   0.29265   0.93169   0.93169
 Alpha virt. eigenvalues --    1.00801   1.23818   1.23871   1.23871   1.26089
 Alpha virt. eigenvalues --    1.34612   1.34612   1.72621   2.13601   2.28445

  Beta  occ. eigenvalues --  -24.64355  -1.12269  -0.47743  -0.37532  -0.37532
  Beta virt. eigenvalues --   -0.07057  -0.04436   0.26714   0.38885   0.93169
  Beta virt. eigenvalues --    0.93169   1.00808   1.26082   1.34606   1.34606
  Beta virt. eigenvalues --    1.48210   1.48210   1.48682   1.72643   2.27845

 Mulliken charges and spin densities:
               1          2
     1  H    0.353396   0.000026
     2  H    0.000713   0.999225
     3  F   -0.354110   0.000749
 Sum of Mulliken charges =   0.00000   1.00000

 Dipole moment (field-independent basis, Debye):
    X=             -2.2877    Y=             -0.0000    Z=             -0.0000  Tot=              2.2877
 Quadrupole moment (field-independent basis, Debye-Ang):
   XX=             -8.9017   YY=             -7.1277   ZZ=             -7.1277
   XY=             -0.0000   XZ=             -0.0000   YZ=              0.0000

  Exact polarizability:       9.282       0.000       2.322      -0.000      -0.000       2.322
 Approx polarizability:      13.273       0.000       2.276       0.000      -0.000       2.276

 ******    1 imaginary frequencies (negative Signs) ******

                      1                      2                      3
                      A                      A                      A
 Frequencies --    -44.1210              1006.1003              1208.3566
 Red. masses --      1.0529                 1.0586                 1.0352
 Frc consts  --      0.0012                 0.6313                 0.8906
 IR Inten    --      0.0483                65.1735               147.7478

                      4
                      A
 Frequencies --   1208.3566
 Red. masses --      1.0352
 Frc consts  --      0.8906
 IR Inten    --    147.7478

 - Thermochemistry -
 -------------------
 Temperature   298.150 Kelvin.  Pressure   1.00000 Atm.
 Atom     1 has atomic number  1 and mass   1.00783

 Molecular mass:    21.01405 amu.
 Principal axes and moments of inertia in atomic units:
                           1         2         3
     Eigenvalues --     0.00000  86.83885  86.83885
           X            1.00000  -0.00000   0.00000
           Y            0.00000   1.00000   0.00000
           Z            0.00000   0.00000   1.00000
 This molecule is a prolate symmetric top.
 Rotational symmetry number  1.
 Rotational temperature (Kelvin)      0.99741
 Rotational constant (GHZ):          20.782646
    1 imaginary frequencies ignored.
 Zero-point vibrational energy      20473.0 (Joules/Mol)
                                    4.89316 (Kcal/Mol)
 Vibrational temperatures:   1447.55  1738.56  1738.56
          (Kelvin)

 Zero-point correction=                           0.007798 (Hartree/Particle)
 Thermal correction to Energy=                    0.010227
 Thermal correction to Enthalpy=                  0.011171
 Thermal correction to Gibbs Free Energy=        -0.012553
 Sum of electronic and zero-point Energies=           -100.917748
 Sum of electronic and thermal Energies=              -100.915319
 Sum of electronic and thermal Enthalpies=            -100.914375
 Sum of electronic and thermal Free Energies=         -100.938099

                     E (Thermal)             CV                S
                      KCal/Mol        Cal/Mol-Kelvin    Cal/Mol-Kelvin
 Total                    6.417              5.738             49.931
 Electronic               0.000              0.000              1.377
 Translational            0.889              2.981             35.068
 Rotational               0.592              1.987             13.315
 Vibrational              4.936              0.770              0.171

 Normal termination of Gaussian 16 at Fri Aug 22 16:11:18 2025.
