 Gaussian 16, Revision C.01,
 Gaussian 16:  ES64L-G16RevC.01  3-Jul-2019

 -----------------------------------------
 # sp b3lyp/6-311g** Force nosymm scf=(qc)
 -----------------------------------------

 -------------------
 Title Card Required
 -------------------
 Symbolic Z-matrix:
 Charge =  0 Multiplicity = 2

                          Input orientation:
 ---------------------------------------------------------------------
 Center     Atomic      Atomic             Coordinates (Angstroms)
 Number     Number       Type             X           Y           Z
 ---------------------------------------------------------------------
      1          1           0        0.000000    0.000000    0.000000
      2          1           0       -3.250000    0.000000    0.000000
      3          9           0        1.700000    0.000000    0.000000
 ---------------------------------------------------------------------

 SCF Done:  E(UB3LYP) =  -100.814694506     a.u. after   10 cycles

 Alpha  occ. eigenvalues --  -24.64152  -1.08764  -0.40907  -0.35930  -0.35930
 Alpha  occ. eigenvalues --   -0.34357
 Alpha virt. eigenvalues --   -0.18725   0.20048   0.27532   0.94914   0.94914
 Alpha virt. eigenvalues --    0.96643   1.07476   1.23141   1.23141   1.23342
 Alpha virt. eigenvalues --    1.27601   1.27601   1.70390   2.13460   2.15934

  Beta  occ. eigenvalues --  -24.64180  -1.08840  -0.40930  -0.35957  -0.35957
  Beta virt. eigenvalues --   -0.18847  -0.07411   0.23118   0.37648   0.94932
  Beta virt. eigenvalues --    0.94932   0.96726   1.07496   1.27834   1.27834
  Beta virt. eigenvalues --    1.44809   1.45286   1.45286   1.70574   2.16186

 Mulliken charges and spin densities:
               1          2
     1  H    0.323895   0.013871
     2  H    0.004905   0.994905
     3  F   -0.328800  -0.008776
 Sum of Mulliken charges =  -0.00000   1.00000

 Dipole moment (field-independent basis, Debye):
    X=             -2.8302    Y=              0.0000    Z=             -0.0000  Tot=              2.8302
 Quadrupole moment (field-independent basis, Debye-Ang):
   XX=            -10.5031   YY=             -7.4204   ZZ=             -7.4204
   XY=              0.0000   XZ=             -0.0000   YZ=             -0.0000

  Exact polarizability:      22.209      -0.000       2.104       0.000      -0.000       2.104
 Approx polarizability:      48.784       0.000       2.017       0.000      -0.000       2.017

 ******    2 imaginary frequencies (negative Signs) ******

                      1                      2                      3
                      A                      A                      A
 Frequencies --  -1194.2272              -125.5687               862.1045
 Red. masses --      1.0564                 1.0551                 1.0273
 Frc consts  --      0.8877                 0.0098                 0.4499
 IR Inten    --     53.1509                 1.2452                98.4435

                      4
                      A
 Frequencies --    862.1045
 Red. masses --      1.0273
 Frc consts  --      0.4499
 IR Inten    --     98.4435

 - Thermochemistry -
 -------------------
 Temperature   298.150 Kelvin.  Pressure   1.00000 Atm.
 Atom     1 has atomic number  1 and mass   1.00783

 Molecular mass:    21.01405 amu.
 Principal axes and moments of inertia in atomic units:
                           1         2         3
     Eigenvalues --     0.00000  90.95273  90.95273
           X            1.00000  -0.00000   0.00000
           Y            0.00000   1.00000   0.00000
           Z            0.00000   0.00000   1.00000
 This molecule is a prolate symmetric top.
 Rotational symmetry number  1.
 Rotational temperature (Kelvin)      0.95230
 Rotational constant (GHZ):          19.842628
    2 imaginary frequencies ignored.
 Zero-point vibrational energy      10313.1 (Joules/Mol)
                                    2.46488 (Kcal/Mol)
 Vibrational temperatures:   1240.38  1240.38
          (Kelvin)

 Zero-point correction=                           0.003928 (Hartree/Particle)
 Thermal correction to Energy=                    0.006413
 Thermal correction to Enthalpy=                  0.007357
 Thermal correction to Gibbs Free Energy=        -0.016483
 Sum of electronic and zero-point Energies=           -100.810766
 Sum of electronic and thermal Energies=              -100.808281
 Sum of electronic and thermal Enthalpies=            -100.807337
 Sum of electronic and thermal Free Energies=         -100.831178

                     E (Thermal)             CV                S
                      KCal/Mol        Cal/Mol-Kelvin    Cal/Mol-Kelvin
 Total                    4.024              6.076             50.177
 Electronic               0.000              0.000              1.377
 Translational            0.889              2.981             35.068
 Rotational               0.592              1.987             13.407
 Vibrational              2.543              1.108              0.325

 Normal termination of Gaussian 16 at Fri Aug 22 16:38:36 2025.
