 Gaussian 16, Revision C.01,
 Gaussian 16:  ES64L-G16RevC.01  3-Jul-2019

 -----------------------------------------
 # sp b3lyp/6-311g** Force nosymm scf=(qc)
 -----------------------------------------

 -------------------
 Title Card Required
 -------------------
 Symbolic Z-matrix:
 Charge =  0 Multiplicity = 2

                          Input orientation:
 ---------------------------------------------------------------------
 Center     Atomic      Atomic             Coordinates (Angstroms)
 Number     Number       Type             X           Y           Z
 ---------------------------------------------------------------------
      1          1           0        0.000000    0.000000    0.000000
      2          1           0       -3.200000    0.000000    0.000000
      3          9           0        2.600000    0.000000    0.000000
 ---------------------------------------------------------------------

 SCF Done:  E(UB3LYP) =  -100.765948241     a.u. after   19 cycles

 Alpha  occ. eigenvalues --  -24.72305  -1.18486  -0.51413  -0.43183  -0.43183
 Alpha  occ. eigenvalues --   -0.32957
 Alpha virt. eigenvalues --   -0.10101   0.23933   0.35102   0.89977   0.93310
 Alpha virt. eigenvalues --    0.93310   1.06100   1.24567   1.24567   1.25063
 Alpha virt. eigenvalues --    1.41251   1.41251   1.43575   2.14943   2.36468

  Beta  occ. eigenvalues --  -24.69414  -1.10242  -0.40298  -0.40298  -0.34971
  Beta virt. eigenvalues --   -0.23707  -0.07314   0.24376   0.37296   0.94709
  Beta virt. eigenvalues --    0.94709   0.97255   1.08876   1.22420   1.22420
  Beta virt. eigenvalues --    1.27291   1.45057   1.45252   1.45252   2.13974

 Mulliken charges and spin densities:
               1          2
     1  H    0.074830  -0.909874
     2  H    0.001697   0.995587
     3  F   -0.076526   0.914288
 Sum of Mulliken charges =  -0.00000   1.00000

 Dipole moment (field-independent basis, Debye):
    X=             -1.0416    Y=              0.0000    Z=             -0.0000  Tot=              1.0416
 Quadrupole moment (field-independent basis, Debye-Ang):
   XX=             -9.0451   YY=             -7.5878   ZZ=             -7.5878
   XY=              0.0000   XZ=             -0.0000   YZ=              0.0000

  Exact polarizability:      33.196       0.000       2.022      -0.000       0.000       2.022
 Approx polarizability:      39.417       0.000       1.920      -0.000      -0.000       1.920

 ******    2 imaginary frequencies (negative Signs) ******

                      1                      2                      3
                      A                      A                      A
 Frequencies --   -575.3172              -169.1845               220.4384
 Red. masses --      1.0478                 1.0638                 1.0206
 Frc consts  --      0.2043                 0.0179                 0.0292
 IR Inten    --     69.9703                 1.3961                 5.2120

                      4
                      A
 Frequencies --    220.4384
 Red. masses --      1.0206
 Frc consts  --      0.0292
 IR Inten    --      5.2120

 - Thermochemistry -
 -------------------
 Temperature   298.150 Kelvin.  Pressure   1.00000 Atm.
 Atom     1 has atomic number  1 and mass   1.00783

 Molecular mass:    21.01405 amu.
 Principal axes and moments of inertia in atomic units:
                           1         2         3
     Eigenvalues --     0.00000 133.22080 133.22080
           X            1.00000  -0.00000   0.00000
           Y            0.00000   1.00000   0.00000
           Z            0.00000   0.00000   1.00000
 This molecule is a prolate symmetric top.
 Rotational symmetry number  1.
 Rotational temperature (Kelvin)      0.65015
 Rotational constant (GHZ):          13.546993
    2 imaginary frequencies ignored.
 Zero-point vibrational energy       2637.0 (Joules/Mol)
                                    0.63027 (Kcal/Mol)
 Warning -- explicit consideration of   2 degrees of freedom as
           vibrations may cause significant error
 Vibrational temperatures:    317.16   317.16
          (Kelvin)

 Zero-point correction=                           0.001004 (Hartree/Particle)
 Thermal correction to Energy=                    0.004424
 Thermal correction to Enthalpy=                  0.005368
 Thermal correction to Gibbs Free Energy=        -0.020537
 Sum of electronic and zero-point Energies=           -100.764944
 Sum of electronic and thermal Energies=              -100.761525
 Sum of electronic and thermal Enthalpies=            -100.760580
 Sum of electronic and thermal Free Energies=         -100.786485

                     E (Thermal)             CV                S
                      KCal/Mol        Cal/Mol-Kelvin    Cal/Mol-Kelvin
 Total                    2.776              8.588             54.521
 Electronic               0.000              0.000              1.377
 Translational            0.889              2.981             35.068
 Rotational               0.592              1.987             14.165
 Vibrational              1.295              3.620              3.911
 Vibration     1          0.647              1.810              1.955
 Vibration     2          0.647              1.810              1.955

 Normal termination of Gaussian 16 at Fri Aug 22 18:04:55 2025.
