 Gaussian 16, Revision C.01,
 Gaussian 16:  ES64L-G16RevC.01  3-Jul-2019

 -----------------------------------------
 # sp b3lyp/6-311g** Force nosymm scf=(qc)
 -----------------------------------------

 -------------------
 Title Card Required
 -------------------
 Symbolic Z-matrix:
 Charge =  0 Multiplicity = 2

                          Input orientation:
 ---------------------------------------------------------------------
 Center     Atomic      Atomic             Coordinates (Angstroms)
 Number     Number       Type             X           Y           Z
 ---------------------------------------------------------------------
      1          1           0        0.000000    0.000000    0.000000
      2          1           0       -3.550000    0.000000    0.000000
      3          9           0        1.600000    0.000000    0.000000
 ---------------------------------------------------------------------

 SCF Done:  E(UB3LYP) =  -100.833881173     a.u. after   10 cycles

 Alpha  occ. eigenvalues --  -24.64059  -1.08354  -0.41466  -0.36005  -0.36005
 Alpha  occ. eigenvalues --   -0.33911
 Alpha virt. eigenvalues --   -0.17052   0.19627   0.27151   0.93880   0.93880
 Alpha virt. eigenvalues --    1.01127   1.07205   1.23592   1.23592   1.23613
 Alpha virt. eigenvalues --    1.27720   1.27720   1.72063   2.12411   2.15468

  Beta  occ. eigenvalues --  -24.64821  -1.10401  -0.43211  -0.36737  -0.36737
  Beta virt. eigenvalues --   -0.15672  -0.06377   0.24135   0.38540   0.94177
  Beta virt. eigenvalues --    0.94177   1.00481   1.06994   1.31864   1.31864
  Beta virt. eigenvalues --    1.45875   1.46357   1.46357   1.74102   2.20144

 Mulliken charges and spin densities:
               1          2
     1  H    0.330406   0.242744
     2  H    0.001766   0.998231
     3  F   -0.332173  -0.240974
 Sum of Mulliken charges =   0.00000   1.00000

 Dipole moment (field-independent basis, Debye):
    X=             -2.6286    Y=             -0.0000    Z=             -0.0000  Tot=              2.6286
 Quadrupole moment (field-independent basis, Debye-Ang):
   XX=            -10.1771   YY=             -7.3680   ZZ=             -7.3680
   XY=              0.0000   XZ=              0.0000   YZ=             -0.0000

  Exact polarizability:      19.681      -0.000       2.147       0.000       0.000       2.147
 Approx polarizability:      34.676      -0.000       2.061       0.000       0.000       2.061

 ******    2 imaginary frequencies (negative Signs) ******

                      1                      2                      3
                      A                      A                      A
 Frequencies --  -1921.8828               -62.4429               913.6347
 Red. masses --      1.0587                 1.0529                 1.0297
 Frc consts  --      2.3039                 0.0024                 0.5064
 IR Inten    --     69.2623                 0.3787               103.6174

                      4
                      A
 Frequencies --    913.6347
 Red. masses --      1.0297
 Frc consts  --      0.5064
 IR Inten    --    103.6174

 - Thermochemistry -
 -------------------
 Temperature   298.150 Kelvin.  Pressure   1.00000 Atm.
 Atom     1 has atomic number  1 and mass   1.00783

 Molecular mass:    21.01405 amu.
 Principal axes and moments of inertia in atomic units:
                           1         2         3
     Eigenvalues --     0.00000  96.80376  96.80376
           X            1.00000  -0.00000   0.00000
           Y            0.00000   1.00000   0.00000
           Z            0.00000   0.00000   1.00000
 This molecule is a prolate symmetric top.
 Rotational symmetry number  1.
 Rotational temperature (Kelvin)      0.89474
 Rotational constant (GHZ):          18.643296
    2 imaginary frequencies ignored.
 Zero-point vibrational energy      10929.5 (Joules/Mol)
                                    2.61221 (Kcal/Mol)
 Vibrational temperatures:   1314.52  1314.52
          (Kelvin)

 Zero-point correction=                           0.004163 (Hartree/Particle)
 Thermal correction to Energy=                    0.006626
 Thermal correction to Enthalpy=                  0.007570
 Thermal correction to Gibbs Free Energy=        -0.016301
 Sum of electronic and zero-point Energies=           -100.829718
 Sum of electronic and thermal Energies=              -100.827255
 Sum of electronic and thermal Enthalpies=            -100.826311
 Sum of electronic and thermal Free Energies=         -100.850182

                     E (Thermal)             CV                S
                      KCal/Mol        Cal/Mol-Kelvin    Cal/Mol-Kelvin
 Total                    4.158              5.931             50.240
 Electronic               0.000              0.000              1.377
 Translational            0.889              2.981             35.068
 Rotational               0.592              1.987             13.531
 Vibrational              2.677              0.963              0.265

 Normal termination of Gaussian 16 at Fri Aug 22 16:32:35 2025.
