 Gaussian 16, Revision C.01,
 Gaussian 16:  ES64L-G16RevC.01  3-Jul-2019

 -----------------------------------------
 # sp b3lyp/6-311g** Force nosymm scf=(qc)
 -----------------------------------------

 -------------------
 Title Card Required
 -------------------
 Symbolic Z-matrix:
 Charge =  0 Multiplicity = 2

                          Input orientation:
 ---------------------------------------------------------------------
 Center     Atomic      Atomic             Coordinates (Angstroms)
 Number     Number       Type             X           Y           Z
 ---------------------------------------------------------------------
      1          1           0        0.000000    0.000000    0.000000
      2          1           0       -0.600000    0.000000    0.000000
      3          9           0        2.950000    0.000000    0.000000
 ---------------------------------------------------------------------

 SCF Done:  E(UB3LYP) =  -100.915216012     a.u. after  216 cycles

 Alpha  occ. eigenvalues --  -24.76608  -1.22404  -0.55596  -0.47142  -0.46745
 Alpha  occ. eigenvalues --   -0.46101
 Alpha virt. eigenvalues --    0.08890   0.19115   0.52474   0.85874   0.90746
 Alpha virt. eigenvalues --    0.93959   1.07484   1.10359   1.10367   1.61241
 Alpha virt. eigenvalues --    1.83531   1.92908   1.92918   2.37867   3.64667

  Beta  occ. eigenvalues --  -24.73445  -1.13315  -0.46523  -0.43575  -0.43546
  Beta virt. eigenvalues --   -0.26217   0.08952   0.19152   0.52592   0.92244
  Beta virt. eigenvalues --    0.95330   0.95854   1.10359   1.10366   1.11036
  Beta virt. eigenvalues --    1.61260   1.83570   1.92907   1.92917   2.37874

 Mulliken charges and spin densities:
               1          2
     1  H   -0.008081  -0.001675
     2  H   -0.002508   0.000216
     3  F    0.010589   1.001459
 Sum of Mulliken charges =   0.00000   1.00000

 Dipole moment (field-independent basis, Debye):
    X=              0.0956    Y=             -0.0000    Z=              0.0000  Tot=              0.0956
 Quadrupole moment (field-independent basis, Debye-Ang):
   XX=             -6.0060   YY=             -6.5564   ZZ=             -6.0727
   XY=             -0.0000   XZ=             -0.0000   YZ=              0.3576

  Exact polarizability:       6.852       0.000       1.977      -0.000       0.190       2.234
 Approx polarizability:       7.367      -0.000       2.086      -0.000       0.238       2.408

 ******    2 imaginary frequencies (negative Signs) ******

                      1                      2                      3
                      A                      A                      A
 Frequencies --  -2754.8365             -2754.2121                71.1213
 Red. masses --      1.0087                 1.0087                 1.1085
 Frc consts  --      4.5102                 4.5082                 0.0033
 IR Inten    --      0.0413                 0.0404                 0.1923

                      4
                      A
 Frequencies --   7042.2477
 Red. masses --      1.0078
 Frc consts  --     29.4481
 IR Inten    --      0.3997

 - Thermochemistry -
 -------------------
 Temperature   298.150 Kelvin.  Pressure   1.00000 Atm.
 Atom     1 has atomic number  1 and mass   1.00783

 Molecular mass:    21.01405 amu.
 Principal axes and moments of inertia in atomic units:
                           1         2         3
     Eigenvalues --     0.00000  69.38423  69.38423
           X            1.00000  -0.00000   0.00000
           Y            0.00000   1.00000   0.00000
           Z            0.00000   0.00000   1.00000
 This molecule is a prolate symmetric top.
 Rotational symmetry number  1.
 Rotational temperature (Kelvin)      1.24832
 Rotational constant (GHZ):          26.010825
    2 imaginary frequencies ignored.
 Zero-point vibrational energy      42547.4 (Joules/Mol)
                                   10.16907 (Kcal/Mol)
 Warning -- explicit consideration of   1 degrees of freedom as
           vibrations may cause significant error
 Vibrational temperatures:    102.33 10132.22
          (Kelvin)

 Zero-point correction=                           0.016205 (Hartree/Particle)
 Thermal correction to Energy=                    0.019357
 Thermal correction to Enthalpy=                  0.020302
 Thermal correction to Gibbs Free Energy=        -0.005088
 Sum of electronic and zero-point Energies=           -100.899011
 Sum of electronic and thermal Energies=              -100.895859
 Sum of electronic and thermal Enthalpies=            -100.894915
 Sum of electronic and thermal Free Energies=         -100.920304

                     E (Thermal)             CV                S
                      KCal/Mol        Cal/Mol-Kelvin    Cal/Mol-Kelvin
 Total                   12.147              6.936             53.436
 Electronic               0.000              0.000              1.377
 Translational            0.889              2.981             35.068
 Rotational               0.592              1.987             12.869
 Vibrational             10.666              1.968              4.122
 Vibration     1          0.598              1.968              4.122

 Normal termination of Gaussian 16 at Fri Aug 22 19:07:31 2025.
