 Gaussian 16, Revision C.01,
 Gaussian 16:  ES64L-G16RevC.01  3-Jul-2019

 -----------------------------------------
 # sp b3lyp/6-311g** Force nosymm scf=(qc)
 -----------------------------------------

 -------------------
 Title Card Required
 -------------------
 Symbolic Z-matrix:
 Charge =  0 Multiplicity = 2

                          Input orientation:
 ---------------------------------------------------------------------
 Center     Atomic      Atomic             Coordinates (Angstroms)
 Number     Number       Type             X           Y           Z
 ---------------------------------------------------------------------
      1          1           0        0.000000    0.000000    0.000000
      2          1           0       -0.700000    0.000000    0.000000
      3          9           0        1.400000    0.000000    0.000000
 ---------------------------------------------------------------------

 SCF Done:  E(UB3LYP) =  -100.934432947     a.u. after    7 cycles

 Alpha  occ. eigenvalues --  -24.70472  -1.18058  -0.57840  -0.42393  -0.42393
 Alpha  occ. eigenvalues --   -0.42070
 Alpha virt. eigenvalues --    0.10449   0.19516   0.46481   0.88215   0.88215
 Alpha virt. eigenvalues --    0.96992   1.09378   1.09378   1.37468   1.64872
 Alpha virt. eigenvalues --    1.83855   1.83855   1.93345   2.42520   3.23809

  Beta  occ. eigenvalues --  -24.67925  -1.11170  -0.49601  -0.39943  -0.39943
  Beta virt. eigenvalues --   -0.22587   0.11759   0.20420   0.49337   0.89447
  Beta virt. eigenvalues --    0.89447   1.02713   1.11954   1.11954   1.41347
  Beta virt. eigenvalues --    1.68199   1.85470   1.85470   1.94280   2.46124

 Mulliken charges and spin densities:
               1          2
     1  H    0.167306  -0.036415
     2  H    0.003071   0.280213
     3  F   -0.170377   0.756201
 Sum of Mulliken charges =   0.00000   1.00000

 Dipole moment (field-independent basis, Debye):
    X=             -1.2203    Y=              0.0000    Z=              0.0000  Tot=              1.2203
 Quadrupole moment (field-independent basis, Debye-Ang):
   XX=             -6.9611   YY=             -6.6892   ZZ=             -6.6892
   XY=              0.0000   XZ=              0.0000   YZ=             -0.0000

  Exact polarizability:      18.077       0.000       2.341      -0.000       0.000       2.341
 Approx polarizability:      22.989      -0.000       2.382       0.000       0.000       2.382

 ******    2 imaginary frequencies (negative Signs) ******

                      1                      2                      3
                      A                      A                      A
 Frequencies --  -1615.8292             -1615.8292               183.7593
 Red. masses --      1.0117                 1.0117                 1.1080
 Frc consts  --      1.5563                 1.5563                 0.0220
 IR Inten    --      1.6442                 1.6442                82.8637

                      4
                      A
 Frequencies --   4714.0342
 Red. masses --      1.0082
 Frc consts  --     13.2007
 IR Inten    --    638.4823

 - Thermochemistry -
 -------------------
 Temperature   298.150 Kelvin.  Pressure   1.00000 Atm.
 Atom     1 has atomic number  1 and mass   1.00783

 Molecular mass:    21.01405 amu.
 Principal axes and moments of inertia in atomic units:
                           1         2         3
     Eigenvalues --     0.00000  20.81125  20.81125
           X            1.00000  -0.00000   0.00000
           Y            0.00000   1.00000   0.00000
           Z            0.00000   0.00000   1.00000
 This molecule is a prolate symmetric top.
 Rotational symmetry number  1.
 Rotational temperature (Kelvin)      4.16188
 Rotational constant (GHZ):          86.719502
    2 imaginary frequencies ignored.
 Zero-point vibrational energy      29295.3 (Joules/Mol)
                                    7.00175 (Kcal/Mol)
 Warning -- explicit consideration of   1 degrees of freedom as
           vibrations may cause significant error
 Vibrational temperatures:    264.39  6782.44
          (Kelvin)

 Zero-point correction=                           0.011158 (Hartree/Particle)
 Thermal correction to Energy=                    0.014105
 Thermal correction to Enthalpy=                  0.015049
 Thermal correction to Gibbs Free Energy=        -0.008333
 Sum of electronic and zero-point Energies=           -100.923275
 Sum of electronic and thermal Energies=              -100.920328
 Sum of electronic and thermal Enthalpies=            -100.919384
 Sum of electronic and thermal Free Energies=         -100.942765

                     E (Thermal)             CV                S
                      KCal/Mol        Cal/Mol-Kelvin    Cal/Mol-Kelvin
 Total                    8.851              6.830             49.211
 Electronic               0.000              0.000              1.377
 Translational            0.889              2.981             35.068
 Rotational               0.592              1.987             10.476
 Vibrational              7.370              1.862              2.290
 Vibration     1          0.631              1.862              2.290

 Normal termination of Gaussian 16 at Fri Aug 22 16:19:07 2025.
