 Gaussian 16, Revision C.01,
 Gaussian 16:  ES64L-G16RevC.01  3-Jul-2019

 -----------------------------------------
 # sp b3lyp/6-311g** Force nosymm scf=(qc)
 -----------------------------------------

 -------------------
 Title Card Required
 -------------------
 Symbolic Z-matrix:
 Charge =  0 Multiplicity = 2

                          Input orientation:
 ---------------------------------------------------------------------
 Center     Atomic      Atomic             Coordinates (Angstroms)
 Number     Number       Type             X           Y           Z
 ---------------------------------------------------------------------
      1          1           0        0.000000    0.000000    0.000000
      2          1           0       -3.600000    0.000000    0.000000
      3          9           0        1.550000    0.000000    0.000000
 ---------------------------------------------------------------------

 SCF Done:  E(UB3LYP) =  -100.843960928     a.u. after    9 cycles

 Alpha  occ. eigenvalues --  -24.64399  -1.09610  -0.42763  -0.36373  -0.36373
 Alpha  occ. eigenvalues --   -0.33910
 Alpha virt. eigenvalues --   -0.15531   0.20232   0.27593   0.93812   0.93812
 Alpha virt. eigenvalues --    1.02579   1.07684   1.23600   1.23600   1.23608
 Alpha virt. eigenvalues --    1.30654   1.30654   1.73386   2.13096   2.18432

  Beta  occ. eigenvalues --  -24.64255  -1.09226  -0.42449  -0.36236  -0.36236
  Beta virt. eigenvalues --   -0.15978  -0.06620   0.22824   0.38164   0.93745
  Beta virt. eigenvalues --    0.93745   1.02836   1.07636   1.29876   1.29876
  Beta virt. eigenvalues --    1.45853   1.46285   1.46285   1.73039   2.16550

 Mulliken charges and spin densities:
               1          2
     1  H    0.343761  -0.044038
     2  H    0.001596   0.998308
     3  F   -0.345357   0.045730
 Sum of Mulliken charges =  -0.00000   1.00000

 Dipole moment (field-independent basis, Debye):
    X=             -2.6524    Y=             -0.0000    Z=              0.0000  Tot=              2.6524
 Quadrupole moment (field-independent basis, Debye-Ang):
   XX=            -10.0839   YY=             -7.3480   ZZ=             -7.3480
   XY=             -0.0000   XZ=              0.0000   YZ=              0.0000

  Exact polarizability:      16.737      -0.000       2.165       0.000       0.000       2.165
 Approx polarizability:      32.530       0.000       2.085      -0.000       0.000       2.085

 ******    2 imaginary frequencies (negative Signs) ******

                      1                      2                      3
                      A                      A                      A
 Frequencies --  -1363.5964               -75.7628               978.0410
 Red. masses --      1.0572                 1.0543                 1.0305
 Frc consts  --      1.1582                 0.0036                 0.5808
 IR Inten    --     15.3603                 0.1278               113.5241

                      4
                      A
 Frequencies --    978.0410
 Red. masses --      1.0305
 Frc consts  --      0.5808
 IR Inten    --    113.5241

 - Thermochemistry -
 -------------------
 Temperature   298.150 Kelvin.  Pressure   1.00000 Atm.
 Atom     1 has atomic number  1 and mass   1.00783

 Molecular mass:    21.01405 amu.
 Principal axes and moments of inertia in atomic units:
                           1         2         3
     Eigenvalues --     0.00000  96.35300  96.35300
           X            1.00000  -0.00000   0.00000
           Y            0.00000   1.00000   0.00000
           Z            0.00000   0.00000   1.00000
 This molecule is a prolate symmetric top.
 Rotational symmetry number  1.
 Rotational temperature (Kelvin)      0.89892
 Rotational constant (GHZ):          18.730514
    2 imaginary frequencies ignored.
 Zero-point vibrational energy      11700.0 (Joules/Mol)
                                    2.79636 (Kcal/Mol)
 Vibrational temperatures:   1407.18  1407.18
          (Kelvin)

 Zero-point correction=                           0.004456 (Hartree/Particle)
 Thermal correction to Energy=                    0.006897
 Thermal correction to Enthalpy=                  0.007841
 Thermal correction to Gibbs Free Energy=        -0.015997
 Sum of electronic and zero-point Energies=           -100.839505
 Sum of electronic and thermal Energies=              -100.837064
 Sum of electronic and thermal Enthalpies=            -100.836120
 Sum of electronic and thermal Free Energies=         -100.859958

                     E (Thermal)             CV                S
                      KCal/Mol        Cal/Mol-Kelvin    Cal/Mol-Kelvin
 Total                    4.328              5.772             50.171
 Electronic               0.000              0.000              1.377
 Translational            0.889              2.981             35.068
 Rotational               0.592              1.987             13.521
 Vibrational              2.847              0.804              0.204

 Normal termination of Gaussian 16 at Fri Aug 22 16:29:32 2025.
