 Gaussian 16, Revision C.01,
 Gaussian 16:  ES64L-G16RevC.01  3-Jul-2019

 -----------------------------------------
 # sp b3lyp/6-311g** Force nosymm scf=(qc)
 -----------------------------------------

 -------------------
 Title Card Required
 -------------------
 Symbolic Z-matrix:
 Charge =  0 Multiplicity = 2

                          Input orientation:
 ---------------------------------------------------------------------
 Center     Atomic      Atomic             Coordinates (Angstroms)
 Number     Number       Type             X           Y           Z
 ---------------------------------------------------------------------
      1          1           0        0.000000    0.000000    0.000000
      2          1           0       -3.500000    0.000000    0.000000
      3          9           0        3.600000    0.000000    0.000000
 ---------------------------------------------------------------------

 SCF Done:  E(UB3LYP) =  -100.758971720     a.u. after   34 cycles

 Alpha  occ. eigenvalues --  -24.75536  -1.21488  -0.54660  -0.45893  -0.45893
 Alpha  occ. eigenvalues --   -0.32316
 Alpha virt. eigenvalues --   -0.06895   0.24319   0.37173   0.87309   0.91387
 Alpha virt. eigenvalues --    0.91387   1.01585   1.25188   1.25188   1.25339
 Alpha virt. eigenvalues --    1.45289   1.45427   1.45427   2.15043   2.41214

  Beta  occ. eigenvalues --  -24.72413  -1.12511  -0.42762  -0.42762  -0.32717
  Beta virt. eigenvalues --   -0.25559  -0.06465   0.24095   0.37936   0.92879
  Beta virt. eigenvalues --    0.92879   0.96512   1.05629   1.24733   1.24733
  Beta virt. eigenvalues --    1.24864   1.45896   1.46127   1.46127   2.15187

 Mulliken charges and spin densities:
               1          2
     1  H    0.008568  -0.988272
     2  H    0.000148   0.997877
     3  F   -0.008716   0.990395
 Sum of Mulliken charges =  -0.00000   1.00000

 Dipole moment (field-independent basis, Debye):
    X=             -0.1640    Y=             -0.0000    Z=             -0.0000  Tot=              0.1640
 Quadrupole moment (field-independent basis, Debye-Ang):
   XX=             -7.2593   YY=             -7.6226   ZZ=             -7.6226
   XY=             -0.0000   XZ=             -0.0000   YZ=              0.0000

  Exact polarizability:      20.953      -0.000       2.042      -0.000      -0.000       2.042
 Approx polarizability:      16.012      -0.000       1.934      -0.000      -0.000       1.934

 ******    2 imaginary frequencies (negative Signs) ******

                      1                      2                      3
                      A                      A                      A
 Frequencies --   -230.2126               -98.1470                65.4383
 Red. masses --      1.0230                 1.0907                 1.0176
 Frc consts  --      0.0319                 0.0062                 0.0026
 IR Inten    --      6.8796                 1.1988                 0.0575

                      4
                      A
 Frequencies --     65.4385
 Red. masses --      1.0176
 Frc consts  --      0.0026
 IR Inten    --      0.0575

 - Thermochemistry -
 -------------------
 Temperature   298.150 Kelvin.  Pressure   1.00000 Atm.
 Atom     1 has atomic number  1 and mass   1.00783

 Molecular mass:    21.01405 amu.
 Principal axes and moments of inertia in atomic units:
                           1         2         3
     Eigenvalues --     0.00000 208.30741 208.30741
           X            1.00000  -0.00000   0.00000
           Y            0.00000   1.00000   0.00000
           Z            0.00000   0.00000   1.00000
 This molecule is a prolate symmetric top.
 Rotational symmetry number  1.
 Rotational temperature (Kelvin)      0.41580
 Rotational constant (GHZ):           8.663836
    2 imaginary frequencies ignored.
 Zero-point vibrational energy        782.8 (Joules/Mol)
                                    0.18710 (Kcal/Mol)
 Warning -- explicit consideration of   2 degrees of freedom as
           vibrations may cause significant error
 Vibrational temperatures:     94.15    94.15
          (Kelvin)

 Zero-point correction=                           0.000298 (Hartree/Particle)
 Thermal correction to Energy=                    0.004264
 Thermal correction to Enthalpy=                  0.005209
 Thermal correction to Gibbs Free Energy=        -0.023333
 Sum of electronic and zero-point Energies=           -100.758674
 Sum of electronic and thermal Energies=              -100.754707
 Sum of electronic and thermal Enthalpies=            -100.753763
 Sum of electronic and thermal Free Energies=         -100.782305

                     E (Thermal)             CV                S
                      KCal/Mol        Cal/Mol-Kelvin    Cal/Mol-Kelvin
 Total                    2.676              8.910             60.071
 Electronic               0.000              0.000              1.377
 Translational            0.889              2.981             35.068
 Rotational               0.592              1.987             15.053
 Vibrational              1.195              3.942              8.572
 Vibration     1          0.597              1.971              4.286
 Vibration     2          0.597              1.971              4.286

 Normal termination of Gaussian 16 at Fri Aug 22 23:07:55 2025.
