 Gaussian 16, Revision C.01,
 Gaussian 16:  ES64L-G16RevC.01  3-Jul-2019

 -----------------------------------------
 # sp b3lyp/6-311g** Force nosymm scf=(qc)
 -----------------------------------------

 -------------------
 Title Card Required
 -------------------
 Symbolic Z-matrix:
 Charge =  0 Multiplicity = 2

                          Input orientation:
 ---------------------------------------------------------------------
 Center     Atomic      Atomic             Coordinates (Angstroms)
 Number     Number       Type             X           Y           Z
 ---------------------------------------------------------------------
      1          1           0        0.000000    0.000000    0.000000
      2          1           0       -2.650000    0.000000    0.000000
      3          9           0        0.650000    0.000000    0.000000
 ---------------------------------------------------------------------

 SCF Done:  E(UB3LYP) =  -100.800826024     a.u. after    6 cycles

 Alpha  occ. eigenvalues --  -24.62907  -1.31280  -0.59791  -0.42324  -0.42324
 Alpha  occ. eigenvalues --   -0.34183
 Alpha virt. eigenvalues --    0.07986   0.25620   0.55580   0.92915   0.92915
 Alpha virt. eigenvalues --    0.94685   1.19496   1.23360   1.23360   1.41621
 Alpha virt. eigenvalues --    1.46942   1.46942   1.95984   2.14568   3.09663

  Beta  occ. eigenvalues --  -24.62902  -1.31264  -0.59776  -0.42321  -0.42321
  Beta virt. eigenvalues --   -0.07540   0.09254   0.38490   0.55501   0.92911
  Beta virt. eigenvalues --    0.92911   0.94756   1.30808   1.46935   1.46935
  Beta virt. eigenvalues --    1.47497   1.47497   1.54888   1.95762   2.43695

 Mulliken charges and spin densities:
               1          2
     1  H    0.251191   0.002541
     2  H    0.003501   0.995118
     3  F   -0.254692   0.002341
 Sum of Mulliken charges =   0.00000   1.00000

 Dipole moment (field-independent basis, Debye):
    X=             -1.5509    Y=             -0.0000    Z=              0.0000  Tot=              1.5509
 Quadrupole moment (field-independent basis, Debye-Ang):
   XX=             -6.9947   YY=             -6.6041   ZZ=             -6.6041
   XY=             -0.0000   XZ=              0.0000   YZ=             -0.0000

  Exact polarizability:       4.843       0.000       2.464      -0.000       0.000       2.464
 Approx polarizability:       4.959      -0.000       2.448      -0.000       0.000       2.448

 ******    2 imaginary frequencies (negative Signs) ******

                      1                      2                      3
                      A                      A                      A
 Frequencies --  -4567.8668             -4567.8668                77.5251
 Red. masses --      1.0392                 1.0392                 1.0532
 Frc consts  --     12.7754                12.7754                 0.0037
 IR Inten    --    214.7377               214.7377                 0.1666

                      4
                      A
 Frequencies --  10873.3367
 Red. masses --      1.0583
 Frc consts  --     73.7208
 IR Inten    --    113.0926

 - Thermochemistry -
 -------------------
 Temperature   298.150 Kelvin.  Pressure   1.00000 Atm.
 Atom     1 has atomic number  1 and mass   1.00783

 Molecular mass:    21.01405 amu.
 Principal axes and moments of inertia in atomic units:
                           1         2         3
     Eigenvalues --     0.00000  38.02068  38.02068
           X            1.00000  -0.00000   0.00000
           Y            0.00000   1.00000   0.00000
           Z            0.00000   0.00000   1.00000
 This molecule is a prolate symmetric top.
 Rotational symmetry number  1.
 Rotational temperature (Kelvin)      2.27807
 Rotational constant (GHZ):          47.467351
    2 imaginary frequencies ignored.
 Zero-point vibrational energy      65500.7 (Joules/Mol)
                                   15.65504 (Kcal/Mol)
 Warning -- explicit consideration of   1 degrees of freedom as
           vibrations may cause significant error
 Vibrational temperatures:    111.54 15644.31
          (Kelvin)

 Zero-point correction=                           0.024948 (Hartree/Particle)
 Thermal correction to Energy=                    0.028087
 Thermal correction to Enthalpy=                  0.029031
 Thermal correction to Gibbs Free Energy=         0.004290
 Sum of electronic and zero-point Energies=           -100.775878
 Sum of electronic and thermal Energies=              -100.772739
 Sum of electronic and thermal Enthalpies=            -100.771795
 Sum of electronic and thermal Free Energies=         -100.796536

                     E (Thermal)             CV                S
                      KCal/Mol        Cal/Mol-Kelvin    Cal/Mol-Kelvin
 Total                   17.625              6.932             52.071
 Electronic               0.000              0.000              1.377
 Translational            0.889              2.981             35.068
 Rotational               0.592              1.987             11.673
 Vibrational             16.144              1.964              3.953
 Vibration     1          0.599              1.964              3.953

 Normal termination of Gaussian 16 at Fri Aug 22 15:44:30 2025.
