 Gaussian 16, Revision C.01,
 Gaussian 16:  ES64L-G16RevC.01  3-Jul-2019

 -----------------------------------------
 # sp b3lyp/6-311g** Force nosymm scf=(qc)
 -----------------------------------------

 -------------------
 Title Card Required
 -------------------
 Symbolic Z-matrix:
 Charge =  0 Multiplicity = 2

                          Input orientation:
 ---------------------------------------------------------------------
 Center     Atomic      Atomic             Coordinates (Angstroms)
 Number     Number       Type             X           Y           Z
 ---------------------------------------------------------------------
      1          1           0        0.000000    0.000000    0.000000
      2          1           0       -0.900000    0.000000    0.000000
      3          9           0        1.650000    0.000000    0.000000
 ---------------------------------------------------------------------

 SCF Done:  E(UB3LYP) =  -100.929246853     a.u. after    7 cycles

 Alpha  occ. eigenvalues --  -24.71469  -1.18118  -0.53587  -0.42776  -0.42776
 Alpha  occ. eigenvalues --   -0.42231
 Alpha virt. eigenvalues --    0.04744   0.20319   0.38037   0.89930   0.89930
 Alpha virt. eigenvalues --    0.96608   1.07094   1.07094   1.16912   1.65849
 Alpha virt. eigenvalues --    1.70305   1.70305   2.16360   2.35491   2.70600

  Beta  occ. eigenvalues --  -24.68797  -1.10680  -0.44194  -0.40152  -0.40152
  Beta virt. eigenvalues --   -0.24207   0.06429   0.21366   0.39449   0.91050
  Beta virt. eigenvalues --    0.91050   1.03362   1.09107   1.09107   1.20037
  Beta virt. eigenvalues --    1.68818   1.71490   1.71490   2.18001   2.37687

 Mulliken charges and spin densities:
               1          2
     1  H    0.091955  -0.067757
     2  H    0.040922   0.244644
     3  F   -0.132877   0.823113
 Sum of Mulliken charges =  -0.00000   1.00000

 Dipole moment (field-independent basis, Debye):
    X=             -1.2255    Y=             -0.0000    Z=             -0.0000  Tot=              1.2255
 Quadrupole moment (field-independent basis, Debye-Ang):
   XX=             -6.9046   YY=             -6.9973   ZZ=             -6.9973
   XY=             -0.0000   XZ=             -0.0000   YZ=             -0.0000

  Exact polarizability:      26.109       0.000       2.278      -0.000       0.000       2.278
 Approx polarizability:      35.111      -0.000       2.298       0.000       0.000       2.298

 ******    1 imaginary frequencies (negative Signs) ******

                      1                      2                      3
                      A                      A                      A
 Frequencies --   -690.7025              1216.3004              1216.3004
 Red. masses --      1.1039                 1.0123                 1.0123
 Frc consts  --      0.3103                 0.8823                 0.8823
 IR Inten    --    218.3727                 0.5198                 0.5198

                      4
                      A
 Frequencies --   2185.6592
 Red. masses --      1.0117
 Frc consts  --      2.8475
 IR Inten    --    716.2773

 - Thermochemistry -
 -------------------
 Temperature   298.150 Kelvin.  Pressure   1.00000 Atm.
 Atom     1 has atomic number  1 and mass   1.00783

 Molecular mass:    21.01405 amu.
 Principal axes and moments of inertia in atomic units:
                           1         2         3
     Eigenvalues --     0.00000  30.15607  30.15607
           X            1.00000  -0.00000   0.00000
           Y            0.00000   1.00000   0.00000
           Z            0.00000   0.00000   1.00000
 This molecule is a prolate symmetric top.
 Rotational symmetry number  1.
 Rotational temperature (Kelvin)      2.87219
 Rotational constant (GHZ):          59.846702
    1 imaginary frequencies ignored.
 Zero-point vibrational energy      27623.3 (Joules/Mol)
                                    6.60213 (Kcal/Mol)
 Vibrational temperatures:   1749.98  1749.98  3144.68
          (Kelvin)

 Zero-point correction=                           0.010521 (Hartree/Particle)
 Thermal correction to Energy=                    0.012913
 Thermal correction to Enthalpy=                  0.013857
 Thermal correction to Gibbs Free Energy=        -0.008824
 Sum of electronic and zero-point Energies=           -100.918726
 Sum of electronic and thermal Energies=              -100.916334
 Sum of electronic and thermal Enthalpies=            -100.915389
 Sum of electronic and thermal Free Energies=         -100.938070

                     E (Thermal)             CV                S
                      KCal/Mol        Cal/Mol-Kelvin    Cal/Mol-Kelvin
 Total                    8.103              5.363             47.736
 Electronic               0.000              0.000              1.377
 Translational            0.889              2.981             35.068
 Rotational               0.592              1.987             11.213
 Vibrational              6.622              0.395              0.078

 Normal termination of Gaussian 16 at Fri Aug 22 16:33:16 2025.
