 Gaussian 16, Revision C.01,
 Gaussian 16:  ES64L-G16RevC.01  3-Jul-2019

 -----------------------------------------
 # sp b3lyp/6-311g** Force nosymm scf=(qc)
 -----------------------------------------

 -------------------
 Title Card Required
 -------------------
 Symbolic Z-matrix:
 Charge =  0 Multiplicity = 2

                          Input orientation:
 ---------------------------------------------------------------------
 Center     Atomic      Atomic             Coordinates (Angstroms)
 Number     Number       Type             X           Y           Z
 ---------------------------------------------------------------------
      1          1           0        0.000000    0.000000    0.000000
      2          1           0       -3.750000    0.000000    0.000000
      3          9           0        1.400000    0.000000    0.000000
 ---------------------------------------------------------------------

 SCF Done:  E(UB3LYP) =  -100.877288752     a.u. after    7 cycles

 Alpha  occ. eigenvalues --  -24.64379  -1.10284  -0.44563  -0.36717  -0.36717
 Alpha  occ. eigenvalues --   -0.33731
 Alpha virt. eigenvalues --   -0.11906   0.20767   0.27652   0.93104   0.93104
 Alpha virt. eigenvalues --    1.03159   1.15211   1.23756   1.23779   1.23779
 Alpha virt. eigenvalues --    1.32599   1.32599   1.71399   2.13169   2.21356

  Beta  occ. eigenvalues --  -24.64372  -1.10267  -0.44546  -0.36710  -0.36710
  Beta virt. eigenvalues --   -0.12131  -0.06113   0.23833   0.38405   0.93102
  Beta virt. eigenvalues --    0.93102   1.03176   1.15231   1.32573   1.32573
  Beta virt. eigenvalues --    1.46450   1.46834   1.46834   1.71417   2.20518

 Mulliken charges and spin densities:
               1          2
     1  H    0.356545  -0.001222
     2  H    0.000895   0.999050
     3  F   -0.357440   0.002171
 Sum of Mulliken charges =   0.00000   1.00000

 Dipole moment (field-independent basis, Debye):
    X=             -2.5059    Y=              0.0000    Z=             -0.0000  Tot=              2.5059
 Quadrupole moment (field-independent basis, Debye-Ang):
   XX=             -9.5833   YY=             -7.2637   ZZ=             -7.2637
   XY=              0.0000   XZ=             -0.0000   YZ=             -0.0000

  Exact polarizability:      12.881       0.000       2.232      -0.000      -0.000       2.232
 Approx polarizability:      22.171       0.000       2.166       0.000       0.000       2.166

 ******    2 imaginary frequencies (negative Signs) ******

                      1                      2                      3
                      A                      A                      A
 Frequencies --  -1013.4977               -54.1846              1095.9923
 Red. masses --      1.0579                 1.0537                 1.0328
 Frc consts  --      0.6402                 0.0018                 0.7309
 IR Inten    --     47.3519                 0.0541               127.9772

                      4
                      A
 Frequencies --   1095.9923
 Red. masses --      1.0328
 Frc consts  --      0.7309
 IR Inten    --    127.9772

 - Thermochemistry -
 -------------------
 Temperature   298.150 Kelvin.  Pressure   1.00000 Atm.
 Atom     1 has atomic number  1 and mass   1.00783

 Molecular mass:    21.01405 amu.
 Principal axes and moments of inertia in atomic units:
                           1         2         3
     Eigenvalues --     0.00000  95.10349  95.10349
           X            1.00000  -0.00000   0.00000
           Y            0.00000   1.00000   0.00000
           Z            0.00000   0.00000   1.00000
 This molecule is a prolate symmetric top.
 Rotational symmetry number  1.
 Rotational temperature (Kelvin)      0.91073
 Rotational constant (GHZ):          18.976603
    2 imaginary frequencies ignored.
 Zero-point vibrational energy      13111.0 (Joules/Mol)
                                    3.13360 (Kcal/Mol)
 Vibrational temperatures:   1576.89  1576.89
          (Kelvin)

 Zero-point correction=                           0.004994 (Hartree/Particle)
 Thermal correction to Energy=                    0.007405
 Thermal correction to Enthalpy=                  0.008349
 Thermal correction to Gibbs Free Energy=        -0.015440
 Sum of electronic and zero-point Energies=           -100.872295
 Sum of electronic and thermal Energies=              -100.869884
 Sum of electronic and thermal Enthalpies=            -100.868940
 Sum of electronic and thermal Free Energies=         -100.892728

                     E (Thermal)             CV                S
                      KCal/Mol        Cal/Mol-Kelvin    Cal/Mol-Kelvin
 Total                    4.647              5.535             50.067
 Electronic               0.000              0.000              1.377
 Translational            0.889              2.981             35.068
 Rotational               0.592              1.987             13.495
 Vibrational              3.165              0.567              0.127

 Normal termination of Gaussian 16 at Fri Aug 22 16:21:22 2025.
