 Gaussian 16, Revision C.01,
 Gaussian 16:  ES64L-G16RevC.01  3-Jul-2019

 -----------------------------------------
 # sp b3lyp/6-311g** Force nosymm scf=(qc)
 -----------------------------------------

 -------------------
 Title Card Required
 -------------------
 Symbolic Z-matrix:
 Charge =  0 Multiplicity = 2

                          Input orientation:
 ---------------------------------------------------------------------
 Center     Atomic      Atomic             Coordinates (Angstroms)
 Number     Number       Type             X           Y           Z
 ---------------------------------------------------------------------
      1          1           0        0.000000    0.000000    0.000000
      2          1           0       -3.300000    0.000000    0.000000
      3          9           0        0.750000    0.000000    0.000000
 ---------------------------------------------------------------------

 SCF Done:  E(UB3LYP) =  -100.921979091     a.u. after    6 cycles

 Alpha  occ. eigenvalues --  -24.63449  -1.25470  -0.57379  -0.41188  -0.41188
 Alpha  occ. eigenvalues --   -0.33625
 Alpha virt. eigenvalues --    0.05913   0.25088   0.49129   0.93928   0.93928
 Alpha virt. eigenvalues --    0.96518   1.23398   1.23892   1.23892   1.31560
 Alpha virt. eigenvalues --    1.41713   1.41713   2.00544   2.14703   2.67717

  Beta  occ. eigenvalues --  -24.63447  -1.25466  -0.57376  -0.41187  -0.41187
  Beta virt. eigenvalues --   -0.05628   0.06618   0.39436   0.49151   0.93928
  Beta virt. eigenvalues --    0.93928   0.96506   1.30509   1.41714   1.41714
  Beta virt. eigenvalues --    1.50986   1.50986   1.51061   2.00570   2.44590

 Mulliken charges and spin densities:
               1          2
     1  H    0.267189   0.000844
     2  H    0.001144   0.998527
     3  F   -0.268333   0.000630
 Sum of Mulliken charges =   0.00000   1.00000

 Dipole moment (field-independent basis, Debye):
    X=             -1.6733    Y=              0.0000    Z=              0.0000  Tot=              1.6733
 Quadrupole moment (field-independent basis, Debye-Ang):
   XX=             -7.4151   YY=             -6.7166   ZZ=             -6.7166
   XY=              0.0000   XZ=              0.0000   YZ=              0.0000

  Exact polarizability:       4.524      -0.000       2.450      -0.000      -0.000       2.450
 Approx polarizability:       4.941      -0.000       2.432      -0.000      -0.000       2.432

 ******    3 imaginary frequencies (negative Signs) ******

                      1                      2                      3
                      A                      A                      A
 Frequencies --  -2702.7001             -2702.7001               -43.5244
 Red. masses --      1.0403                 1.0403                 1.0532
 Frc consts  --      4.4770                 4.4770                 0.0012
 IR Inten    --    202.9571               202.9571                 0.0519

                      4
                      A
 Frequencies --   7586.6677
 Red. masses --      1.0583
 Frc consts  --     35.8895
 IR Inten    --    108.6471

 - Thermochemistry -
 -------------------
 Temperature   298.150 Kelvin.  Pressure   1.00000 Atm.
 Atom     1 has atomic number  1 and mass   1.00783

 Molecular mass:    21.01405 amu.
 Principal axes and moments of inertia in atomic units:
                           1         2         3
     Eigenvalues --     0.00000  57.08032  57.08032
           X            1.00000  -0.00000   0.00000
           Y            0.00000   1.00000   0.00000
           Z            0.00000   0.00000   1.00000
 This molecule is a prolate symmetric top.
 Rotational symmetry number  1.
 Rotational temperature (Kelvin)      1.51740
 Rotational constant (GHZ):          31.617575
    3 imaginary frequencies ignored.
 Zero-point vibrational energy      45378.4 (Joules/Mol)
                                   10.84569 (Kcal/Mol)
 Vibrational temperatures:  10915.52
          (Kelvin)

 Zero-point correction=                           0.017284 (Hartree/Particle)
 Thermal correction to Energy=                    0.019644
 Thermal correction to Enthalpy=                  0.020588
 Thermal correction to Gibbs Free Energy=        -0.002658
 Sum of electronic and zero-point Energies=           -100.904695
 Sum of electronic and thermal Energies=              -100.902335
 Sum of electronic and thermal Enthalpies=            -100.901391
 Sum of electronic and thermal Free Energies=         -100.924637

                     E (Thermal)             CV                S
                      KCal/Mol        Cal/Mol-Kelvin    Cal/Mol-Kelvin
 Total                   12.327              4.968             48.926
 Electronic               0.000              0.000              1.377
 Translational            0.889              2.981             35.068
 Rotational               0.592              1.987             12.481
 Vibrational             10.846              0.000              0.000

 Normal termination of Gaussian 16 at Fri Aug 22 15:49:35 2025.
