 Gaussian 16, Revision C.01,
 Gaussian 16:  ES64L-G16RevC.01  3-Jul-2019

 -----------------------------------------
 # sp b3lyp/6-311g** Force nosymm scf=(qc)
 -----------------------------------------

 -------------------
 Title Card Required
 -------------------
 Symbolic Z-matrix:
 Charge =  0 Multiplicity = 2

                          Input orientation:
 ---------------------------------------------------------------------
 Center     Atomic      Atomic             Coordinates (Angstroms)
 Number     Number       Type             X           Y           Z
 ---------------------------------------------------------------------
      1          1           0        0.000000    0.000000    0.000000
      2          1           0       -4.000000    0.000000    0.000000
      3          9           0        3.200000    0.000000    0.000000
 ---------------------------------------------------------------------

 SCF Done:  E(UB3LYP) =  -100.759737438     a.u. after   21 cycles

 Alpha  occ. eigenvalues --  -24.74710  -1.20724  -0.53831  -0.45198  -0.45198
 Alpha  occ. eigenvalues --   -0.32372
 Alpha virt. eigenvalues --   -0.07009   0.24002   0.36600   0.88628   0.91898
 Alpha virt. eigenvalues --    0.91898   1.02856   1.25123   1.25123   1.25141
 Alpha virt. eigenvalues --    1.45527   1.45527   1.45892   2.14426   2.41669

  Beta  occ. eigenvalues --  -24.71640  -1.11914  -0.42123  -0.42123  -0.33279
  Beta virt. eigenvalues --   -0.25122  -0.05850   0.23756   0.38159   0.93373
  Beta virt. eigenvalues --    0.93373   0.97534   1.06714   1.24082   1.24082
  Beta virt. eigenvalues --    1.24156   1.46700   1.46796   1.46796   2.14637

 Mulliken charges and spin densities:
               1          2
     1  H    0.024421  -0.972576
     2  H    0.000086   0.999388
     3  F   -0.024508   0.973189
 Sum of Mulliken charges =  -0.00000   1.00000

 Dipole moment (field-independent basis, Debye):
    X=             -0.4045    Y=             -0.0000    Z=              0.0000  Tot=              0.4045
 Quadrupole moment (field-independent basis, Debye-Ang):
   XX=             -7.9501   YY=             -7.6115   ZZ=             -7.6115
   XY=             -0.0000   XZ=              0.0000   YZ=              0.0000

  Exact polarizability:      28.884      -0.000       2.031       0.000       0.000       2.031
 Approx polarizability:      26.704      -0.000       1.930       0.000      -0.000       1.930

 ******    2 imaginary frequencies (negative Signs) ******

                      1                      2                      3
                      A                      A                      A
 Frequencies --   -292.3697               -68.9044                95.5517
 Red. masses --      1.0522                 1.0594                 1.0209
 Frc consts  --      0.0530                 0.0030                 0.0055
 IR Inten    --     26.4966                 0.1045                 0.5671

                      4
                      A
 Frequencies --     95.5517
 Red. masses --      1.0209
 Frc consts  --      0.0055
 IR Inten    --      0.5671

 - Thermochemistry -
 -------------------
 Temperature   298.150 Kelvin.  Pressure   1.00000 Atm.
 Atom     1 has atomic number  1 and mass   1.00783

 Molecular mass:    21.01405 amu.
 Principal axes and moments of inertia in atomic units:
                           1         2         3
     Eigenvalues --     0.00000 204.75729 204.75729
           X            1.00000  -0.00000   0.00000
           Y            0.00000   1.00000   0.00000
           Z            0.00000   0.00000   1.00000
 This molecule is a prolate symmetric top.
 Rotational symmetry number  1.
 Rotational temperature (Kelvin)      0.42301
 Rotational constant (GHZ):           8.814051
    2 imaginary frequencies ignored.
 Zero-point vibrational energy       1143.1 (Joules/Mol)
                                    0.27320 (Kcal/Mol)
 Warning -- explicit consideration of   2 degrees of freedom as
           vibrations may cause significant error
 Vibrational temperatures:    137.48   137.48
          (Kelvin)

 Zero-point correction=                           0.000435 (Hartree/Particle)
 Thermal correction to Energy=                    0.004282
 Thermal correction to Enthalpy=                  0.005226
 Thermal correction to Gibbs Free Energy=        -0.022593
 Sum of electronic and zero-point Energies=           -100.759302
 Sum of electronic and thermal Energies=              -100.755455
 Sum of electronic and thermal Enthalpies=            -100.754511
 Sum of electronic and thermal Free Energies=         -100.782330

                     E (Thermal)             CV                S
                      KCal/Mol        Cal/Mol-Kelvin    Cal/Mol-Kelvin
 Total                    2.687              8.873             58.551
 Electronic               0.000              0.000              1.377
 Translational            0.889              2.981             35.068
 Rotational               0.592              1.987             15.019
 Vibrational              1.206              3.905              7.086
 Vibration     1          0.603              1.952              3.543
 Vibration     2          0.603              1.952              3.543

 Normal termination of Gaussian 16 at Fri Aug 22 20:25:26 2025.
