 Gaussian 16, Revision C.01,
 Gaussian 16:  ES64L-G16RevC.01  3-Jul-2019

 -----------------------------------------
 # sp b3lyp/6-311g** Force nosymm scf=(qc)
 -----------------------------------------

 -------------------
 Title Card Required
 -------------------
 Symbolic Z-matrix:
 Charge =  0 Multiplicity = 2

                          Input orientation:
 ---------------------------------------------------------------------
 Center     Atomic      Atomic             Coordinates (Angstroms)
 Number     Number       Type             X           Y           Z
 ---------------------------------------------------------------------
      1          1           0        0.000000    0.000000    0.000000
      2          1           0       -1.200000    0.000000    0.000000
      3          9           0        2.100000    0.000000    0.000000
 ---------------------------------------------------------------------

 SCF Done:  E(UB3LYP) =  -100.876592437     a.u. after   13 cycles

 Alpha  occ. eigenvalues --  -24.72958  -1.19156  -0.52501  -0.43798  -0.43798
 Alpha  occ. eigenvalues --   -0.38879
 Alpha virt. eigenvalues --   -0.04658   0.21976   0.34327   0.88305   0.92163
 Alpha virt. eigenvalues --    0.92163   1.06798   1.10492   1.10492   1.34482
 Alpha virt. eigenvalues --    1.52022   1.52022   2.06486   2.28983   2.53762

  Beta  occ. eigenvalues --  -24.70084  -1.10992  -0.40937  -0.40937  -0.38524
  Beta virt. eigenvalues --   -0.25063  -0.03312   0.22792   0.34790   0.93470
  Beta virt. eigenvalues --    0.93470   0.95198   1.09776   1.11509   1.11509
  Beta virt. eigenvalues --    1.37427   1.52761   1.52761   2.07734   2.30084

 Mulliken charges and spin densities:
               1          2
     1  H    0.029253  -0.101260
     2  H    0.046077   0.197949
     3  F   -0.075329   0.903311
 Sum of Mulliken charges =  -0.00000   1.00000

 Dipole moment (field-independent basis, Debye):
    X=             -1.0411    Y=              0.0000    Z=             -0.0000  Tot=              1.0411
 Quadrupole moment (field-independent basis, Debye-Ang):
   XX=             -6.7320   YY=             -7.4029   ZZ=             -7.4029
   XY=              0.0000   XZ=             -0.0000   YZ=              0.0000

  Exact polarizability:      41.319       0.000       2.153      -0.000       0.000       2.153
 Approx polarizability:      57.920      -0.000       2.152       0.000      -0.000       2.152

 ******    2 imaginary frequencies (negative Signs) ******

                      1                      2                      3
                      A                      A                      A
 Frequencies --  -1266.4523              -124.4970              1393.2014
 Red. masses --      1.0178                 1.0966                 1.0126
 Frc consts  --      0.9619                 0.0100                 1.1580
 IR Inten    --    852.0775                 0.7454                 0.0073

                      4
                      A
 Frequencies --   1393.2014
 Red. masses --      1.0126
 Frc consts  --      1.1580
 IR Inten    --      0.0073

 - Thermochemistry -
 -------------------
 Temperature   298.150 Kelvin.  Pressure   1.00000 Atm.
 Atom     1 has atomic number  1 and mass   1.00783

 Molecular mass:    21.01405 amu.
 Principal axes and moments of inertia in atomic units:
                           1         2         3
     Eigenvalues --     0.00000  50.03161  50.03161
           X            1.00000  -0.00000   0.00000
           Y            0.00000   1.00000   0.00000
           Z            0.00000   0.00000   1.00000
 This molecule is a prolate symmetric top.
 Rotational symmetry number  1.
 Rotational temperature (Kelvin)      1.73118
 Rotational constant (GHZ):          36.072017
    2 imaginary frequencies ignored.
 Zero-point vibrational energy      16666.4 (Joules/Mol)
                                    3.98336 (Kcal/Mol)
 Vibrational temperatures:   2004.51  2004.51
          (Kelvin)

 Zero-point correction=                           0.006348 (Hartree/Particle)
 Thermal correction to Energy=                    0.008724
 Thermal correction to Enthalpy=                  0.009668
 Thermal correction to Gibbs Free Energy=        -0.013472
 Sum of electronic and zero-point Energies=           -100.870245
 Sum of electronic and thermal Energies=              -100.867869
 Sum of electronic and thermal Enthalpies=            -100.866925
 Sum of electronic and thermal Free Energies=         -100.890064

                     E (Thermal)             CV                S
                      KCal/Mol        Cal/Mol-Kelvin    Cal/Mol-Kelvin
 Total                    5.474              5.185             48.701
 Electronic               0.000              0.000              1.377
 Translational            0.889              2.981             35.068
 Rotational               0.592              1.987             12.219
 Vibrational              3.993              0.217              0.037

 Normal termination of Gaussian 16 at Fri Aug 22 17:03:05 2025.
