 Gaussian 16, Revision C.01,
 Gaussian 16:  ES64L-G16RevC.01  3-Jul-2019

 -----------------------------------------
 # sp b3lyp/6-311g** Force nosymm scf=(qc)
 -----------------------------------------

 -------------------
 Title Card Required
 -------------------
 Symbolic Z-matrix:
 Charge =  0 Multiplicity = 2

                          Input orientation:
 ---------------------------------------------------------------------
 Center     Atomic      Atomic             Coordinates (Angstroms)
 Number     Number       Type             X           Y           Z
 ---------------------------------------------------------------------
      1          1           0        0.000000    0.000000    0.000000
      2          1           0       -2.700000    0.000000    0.000000
      3          9           0        2.700000    0.000000    0.000000
 ---------------------------------------------------------------------

 SCF Done:  E(UB3LYP) =  -100.766136550     a.u. after   21 cycles

 Alpha  occ. eigenvalues --  -24.72843  -1.18986  -0.51953  -0.43630  -0.43630
 Alpha  occ. eigenvalues --   -0.33227
 Alpha virt. eigenvalues --   -0.10733   0.24829   0.33889   0.90195   0.93011
 Alpha virt. eigenvalues --    0.93011   1.05771   1.24363   1.24363   1.26194
 Alpha virt. eigenvalues --    1.39915   1.39915   1.41963   2.15371   2.36103

  Beta  occ. eigenvalues --  -24.69908  -1.10604  -0.40699  -0.40699  -0.34620
  Beta virt. eigenvalues --   -0.24053  -0.08695   0.25351   0.35552   0.94435
  Beta virt. eigenvalues --    0.94435   0.98222   1.09194   1.22810   1.22810
  Beta virt. eigenvalues --    1.26286   1.43077   1.43077   1.43809   2.15445

 Mulliken charges and spin densities:
               1          2
     1  H    0.058485  -0.911993
     2  H    0.005285   0.983396
     3  F   -0.063770   0.928597
 Sum of Mulliken charges =  -0.00000   1.00000

 Dipole moment (field-independent basis, Debye):
    X=             -0.9489    Y=             -0.0000    Z=              0.0000  Tot=              0.9489
 Quadrupole moment (field-independent basis, Debye-Ang):
   XX=             -8.6381   YY=             -7.6178   ZZ=             -7.6178
   XY=             -0.0000   XZ=             -0.0000   YZ=             -0.0000

  Exact polarizability:      39.942       0.000       2.016      -0.000       0.000       2.016
 Approx polarizability:      42.215       0.000       1.919      -0.000      -0.000       1.919

 ******    2 imaginary frequencies (negative Signs) ******

                      1                      2                      3
                      A                      A                      A
 Frequencies --   -637.0475              -268.0625               245.0543
 Red. masses --      1.0228                 1.0910                 1.0179
 Frc consts  --      0.2446                 0.0462                 0.0360
 IR Inten    --     48.7583                14.0518                 2.9375

                      4
                      A
 Frequencies --    245.0543
 Red. masses --      1.0179
 Frc consts  --      0.0360
 IR Inten    --      2.9375

 - Thermochemistry -
 -------------------
 Temperature   298.150 Kelvin.  Pressure   1.00000 Atm.
 Atom     1 has atomic number  1 and mass   1.00783

 Molecular mass:    21.01405 amu.
 Principal axes and moments of inertia in atomic units:
                           1         2         3
     Eigenvalues --     0.00000 119.85912 119.85912
           X            1.00000  -0.00000   0.00000
           Y            0.00000   1.00000   0.00000
           Z            0.00000   0.00000   1.00000
 This molecule is a prolate symmetric top.
 Rotational symmetry number  1.
 Rotational temperature (Kelvin)      0.72263
 Rotational constant (GHZ):          15.057187
    2 imaginary frequencies ignored.
 Zero-point vibrational energy       2931.5 (Joules/Mol)
                                    0.70065 (Kcal/Mol)
 Warning -- explicit consideration of   2 degrees of freedom as
           vibrations may cause significant error
 Vibrational temperatures:    352.58   352.58
          (Kelvin)

 Zero-point correction=                           0.001117 (Hartree/Particle)
 Thermal correction to Energy=                    0.004464
 Thermal correction to Enthalpy=                  0.005408
 Thermal correction to Gibbs Free Energy=        -0.020217
 Sum of electronic and zero-point Energies=           -100.765020
 Sum of electronic and thermal Energies=              -100.761673
 Sum of electronic and thermal Enthalpies=            -100.760728
 Sum of electronic and thermal Free Energies=         -100.786353

                     E (Thermal)             CV                S
                      KCal/Mol        Cal/Mol-Kelvin    Cal/Mol-Kelvin
 Total                    2.801              8.510             53.932
 Electronic               0.000              0.000              1.377
 Translational            0.889              2.981             35.068
 Rotational               0.592              1.987             13.955
 Vibrational              1.320              3.542              3.532
 Vibration     1          0.660              1.771              1.766
 Vibration     2          0.660              1.771              1.766

 Normal termination of Gaussian 16 at Fri Aug 22 18:26:07 2025.
