 Gaussian 16, Revision C.01,
 Gaussian 16:  ES64L-G16RevC.01  3-Jul-2019

 -----------------------------------------
 # sp b3lyp/6-311g** Force nosymm scf=(qc)
 -----------------------------------------

 -------------------
 Title Card Required
 -------------------
 Symbolic Z-matrix:
 Charge =  0 Multiplicity = 2

                          Input orientation:
 ---------------------------------------------------------------------
 Center     Atomic      Atomic             Coordinates (Angstroms)
 Number     Number       Type             X           Y           Z
 ---------------------------------------------------------------------
      1          1           0        0.000000    0.000000    0.000000
      2          1           0       -3.000000    0.000000    0.000000
      3          9           0        3.100000    0.000000    0.000000
 ---------------------------------------------------------------------

 SCF Done:  E(UB3LYP) =  -100.761321732     a.u. after   25 cycles

 Alpha  occ. eigenvalues --  -24.74444  -1.20477  -0.53564  -0.44975  -0.44975
 Alpha  occ. eigenvalues --   -0.32647
 Alpha virt. eigenvalues --   -0.08784   0.24741   0.35227   0.89088   0.92059
 Alpha virt. eigenvalues --    0.92059   1.03379   1.24891   1.24891   1.25667
 Alpha virt. eigenvalues --    1.42819   1.42819   1.43110   2.15546   2.39196

  Beta  occ. eigenvalues --  -24.71393  -1.11726  -0.41920  -0.41920  -0.33532
  Beta virt. eigenvalues --   -0.24981  -0.07605   0.24661   0.36708   0.93528
  Beta virt. eigenvalues --    0.93528   0.97928   1.07234   1.23857   1.23857
  Beta virt. eigenvalues --    1.24645   1.44635   1.44671   1.44671   2.16069

 Mulliken charges and spin densities:
               1          2
     1  H    0.028469  -0.959704
     2  H    0.001377   0.992594
     3  F   -0.029845   0.967111
 Sum of Mulliken charges =  -0.00000   1.00000

 Dipole moment (field-independent basis, Debye):
    X=             -0.4950    Y=              0.0000    Z=             -0.0000  Tot=              0.4950
 Quadrupole moment (field-independent basis, Debye-Ang):
   XX=             -7.9999   YY=             -7.6260   ZZ=             -7.6260
   XY=              0.0000   XZ=             -0.0000   YZ=              0.0000

  Exact polarizability:      34.190       0.000       2.023      -0.000       0.000       2.023
 Approx polarizability:      31.786       0.000       1.926      -0.000      -0.000       1.926

 ******    2 imaginary frequencies (negative Signs) ******

                      1                      2                      3
                      A                      A                      A
 Frequencies --   -418.9512              -177.3213               152.8520
 Red. masses --      1.0215                 1.0924                 1.0176
 Frc consts  --      0.1056                 0.0202                 0.0140
 IR Inten    --     27.3442                 6.1395                 0.7137

                      4
                      A
 Frequencies --    152.8520
 Red. masses --      1.0176
 Frc consts  --      0.0140
 IR Inten    --      0.7137

 - Thermochemistry -
 -------------------
 Temperature   298.150 Kelvin.  Pressure   1.00000 Atm.
 Atom     1 has atomic number  1 and mass   1.00783

 Molecular mass:    21.01405 amu.
 Principal axes and moments of inertia in atomic units:
                           1         2         3
     Eigenvalues --     0.00000 153.89613 153.89613
           X            1.00000  -0.00000   0.00000
           Y            0.00000   1.00000   0.00000
           Z            0.00000   0.00000   1.00000
 This molecule is a prolate symmetric top.
 Rotational symmetry number  1.
 Rotational temperature (Kelvin)      0.56281
 Rotational constant (GHZ):          11.727008
    2 imaginary frequencies ignored.
 Zero-point vibrational energy       1828.5 (Joules/Mol)
                                    0.43703 (Kcal/Mol)
 Warning -- explicit consideration of   2 degrees of freedom as
           vibrations may cause significant error
 Vibrational temperatures:    219.92   219.92
          (Kelvin)

 Zero-point correction=                           0.000696 (Hartree/Particle)
 Thermal correction to Energy=                    0.004334
 Thermal correction to Enthalpy=                  0.005278
 Thermal correction to Gibbs Free Energy=        -0.021410
 Sum of electronic and zero-point Energies=           -100.760625
 Sum of electronic and thermal Energies=              -100.756988
 Sum of electronic and thermal Enthalpies=            -100.756044
 Sum of electronic and thermal Free Energies=         -100.782732

                     E (Thermal)             CV                S
                      KCal/Mol        Cal/Mol-Kelvin    Cal/Mol-Kelvin
 Total                    2.719              8.767             56.170
 Electronic               0.000              0.000              1.377
 Translational            0.889              2.981             35.068
 Rotational               0.592              1.987             14.452
 Vibrational              1.238              3.799              5.273
 Vibration     1          0.619              1.900              2.636
 Vibration     2          0.619              1.900              2.636

 Normal termination of Gaussian 16 at Fri Aug 22 19:55:46 2025.
