 Gaussian 16, Revision C.01,
 Gaussian 16:  ES64L-G16RevC.01  3-Jul-2019

 -----------------------------------------
 # sp b3lyp/6-311g** Force nosymm scf=(qc)
 -----------------------------------------

 -------------------
 Title Card Required
 -------------------
 Symbolic Z-matrix:
 Charge =  0 Multiplicity = 2

                          Input orientation:
 ---------------------------------------------------------------------
 Center     Atomic      Atomic             Coordinates (Angstroms)
 Number     Number       Type             X           Y           Z
 ---------------------------------------------------------------------
      1          1           0        0.000000    0.000000    0.000000
      2          1           0       -2.200000    0.000000    0.000000
      3          9           0        3.550000    0.000000    0.000000
 ---------------------------------------------------------------------

 SCF Done:  E(UB3LYP) =  -100.767886798     a.u. after   30 cycles

 Alpha  occ. eigenvalues --  -24.75586  -1.21534  -0.54709  -0.45937  -0.45937
 Alpha  occ. eigenvalues --   -0.32881
 Alpha virt. eigenvalues --   -0.10464   0.25899   0.33296   0.87443   0.91348
 Alpha virt. eigenvalues --    0.91348   1.01626   1.23486   1.24963   1.24963
 Alpha virt. eigenvalues --    1.39275   1.39275   1.45367   2.14064   2.35507

  Beta  occ. eigenvalues --  -24.72462  -1.12557  -0.42806  -0.42806  -0.33036
  Beta virt. eigenvalues --   -0.25614  -0.10136   0.25751   0.33807   0.92840
  Beta virt. eigenvalues --    0.92840   0.96650   1.05688   1.23328   1.24770
  Beta virt. eigenvalues --    1.24770   1.39757   1.39757   1.45769   2.14592

 Mulliken charges and spin densities:
               1          2
     1  H    0.004481  -0.915339
     2  H    0.003931   0.924962
     3  F   -0.008412   0.990377
 Sum of Mulliken charges =   0.00000   1.00000

 Dipole moment (field-independent basis, Debye):
    X=             -0.1942    Y=             -0.0000    Z=              0.0000  Tot=              0.1942
 Quadrupole moment (field-independent basis, Debye-Ang):
   XX=             -6.7969   YY=             -7.6986   ZZ=             -7.6986
   XY=              0.0000   XZ=              0.0000   YZ=             -0.0000

  Exact polarizability:      38.033      -0.000       1.996      -0.000       0.000       1.996
 Approx polarizability:      29.869       0.000       1.930       0.000       0.000       1.930

 ******    2 imaginary frequencies (negative Signs) ******

                      1                      2                      3
                      A                      A                      A
 Frequencies --  -1024.4702              -131.5535               396.2959
 Red. masses --      1.0079                 1.1085                 1.0132
 Frc consts  --      0.6232                 0.0113                 0.0938
 IR Inten    --      5.8052                 5.6157                 0.0103

                      4
                      A
 Frequencies --    396.2959
 Red. masses --      1.0132
 Frc consts  --      0.0938
 IR Inten    --      0.0103

 - Thermochemistry -
 -------------------
 Temperature   298.150 Kelvin.  Pressure   1.00000 Atm.
 Atom     1 has atomic number  1 and mass   1.00783

 Molecular mass:    21.01405 amu.
 Principal axes and moments of inertia in atomic units:
                           1         2         3
     Eigenvalues --     0.00000 149.41995 149.41995
           X            1.00000  -0.00000   0.00000
           Y            0.00000   1.00000   0.00000
           Z            0.00000   0.00000   1.00000
 This molecule is a prolate symmetric top.
 Rotational symmetry number  1.
 Rotational temperature (Kelvin)      0.57967
 Rotational constant (GHZ):          12.078315
    2 imaginary frequencies ignored.
 Zero-point vibrational energy       4740.8 (Joules/Mol)
                                    1.13307 (Kcal/Mol)
 Warning -- explicit consideration of   2 degrees of freedom as
           vibrations may cause significant error
 Vibrational temperatures:    570.18   570.18
          (Kelvin)

 Zero-point correction=                           0.001806 (Hartree/Particle)
 Thermal correction to Energy=                    0.004792
 Thermal correction to Enthalpy=                  0.005736
 Thermal correction to Gibbs Free Energy=        -0.019347
 Sum of electronic and zero-point Energies=           -100.766081
 Sum of electronic and thermal Energies=              -100.763095
 Sum of electronic and thermal Enthalpies=            -100.762151
 Sum of electronic and thermal Free Energies=         -100.787233

                     E (Thermal)             CV                S
                      KCal/Mol        Cal/Mol-Kelvin    Cal/Mol-Kelvin
 Total                    3.007              7.924             52.791
 Electronic               0.000              0.000              1.377
 Translational            0.889              2.981             35.068
 Rotational               0.592              1.987             14.393
 Vibrational              1.526              2.956              1.953
 Vibration     1          0.763              1.478              0.976
 Vibration     2          0.763              1.478              0.976

 Normal termination of Gaussian 16 at Fri Aug 22 22:39:18 2025.
