 Gaussian 16, Revision C.01,
 Gaussian 16:  ES64L-G16RevC.01  3-Jul-2019

 -----------------------------------------
 # sp b3lyp/6-311g** Force nosymm scf=(qc)
 -----------------------------------------

 -------------------
 Title Card Required
 -------------------
 Symbolic Z-matrix:
 Charge =  0 Multiplicity = 2

                          Input orientation:
 ---------------------------------------------------------------------
 Center     Atomic      Atomic             Coordinates (Angstroms)
 Number     Number       Type             X           Y           Z
 ---------------------------------------------------------------------
      1          1           0        0.000000    0.000000    0.000000
      2          1           0       -3.350000    0.000000    0.000000
      3          9           0        2.800000    0.000000    0.000000
 ---------------------------------------------------------------------

 SCF Done:  E(UB3LYP) =  -100.762972813     a.u. after   21 cycles

 Alpha  occ. eigenvalues --  -24.73284  -1.19401  -0.52400  -0.44003  -0.44003
 Alpha  occ. eigenvalues --   -0.32717
 Alpha virt. eigenvalues --   -0.09072   0.23988   0.35642   0.89908   0.92751
 Alpha virt. eigenvalues --    0.92751   1.05090   1.24797   1.24797   1.25084
 Alpha virt. eigenvalues --    1.42748   1.42748   1.43472   2.14901   2.38461

  Beta  occ. eigenvalues --  -24.70315  -1.10909  -0.41035  -0.41035  -0.34292
  Beta virt. eigenvalues --   -0.24307  -0.06910   0.24165   0.37627   0.94191
  Beta virt. eigenvalues --    0.94191   0.98157   1.08515   1.23034   1.23034
  Beta virt. eigenvalues --    1.24685   1.45451   1.45712   1.45712   2.14643

 Mulliken charges and spin densities:
               1          2
     1  H    0.053291  -0.937155
     2  H    0.000888   0.997006
     3  F   -0.054179   0.940150
 Sum of Mulliken charges =  -0.00000   1.00000

 Dipole moment (field-independent basis, Debye):
    X=             -0.7919    Y=             -0.0000    Z=             -0.0000  Tot=              0.7919
 Quadrupole moment (field-independent basis, Debye-Ang):
   XX=             -8.6878   YY=             -7.6010   ZZ=             -7.6010
   XY=             -0.0000   XZ=             -0.0000   YZ=             -0.0000

  Exact polarizability:      32.990       0.000       2.023      -0.000      -0.000       2.023
 Approx polarizability:      36.585       0.000       1.923       0.000       0.000       1.923

 ******    2 imaginary frequencies (negative Signs) ******

                      1                      2                      3
                      A                      A                      A
 Frequencies --   -467.9042              -141.2885               171.8983
 Red. masses --      1.0472                 1.0645                 1.0203
 Frc consts  --      0.1351                 0.0125                 0.0178
 IR Inten    --     54.1397                 0.9375                 2.6583

                      4
                      A
 Frequencies --    171.8984
 Red. masses --      1.0203
 Frc consts  --      0.0178
 IR Inten    --      2.6583

 - Thermochemistry -
 -------------------
 Temperature   298.150 Kelvin.  Pressure   1.00000 Atm.
 Atom     1 has atomic number  1 and mass   1.00783

 Molecular mass:    21.01405 amu.
 Principal axes and moments of inertia in atomic units:
                           1         2         3
     Eigenvalues --     0.00000 150.51348 150.51348
           X            1.00000  -0.00000   0.00000
           Y            0.00000   1.00000   0.00000
           Z            0.00000   0.00000   1.00000
 This molecule is a prolate symmetric top.
 Rotational symmetry number  1.
 Rotational temperature (Kelvin)      0.57546
 Rotational constant (GHZ):          11.990562
    2 imaginary frequencies ignored.
 Zero-point vibrational energy       2056.4 (Joules/Mol)
                                    0.49148 (Kcal/Mol)
 Warning -- explicit consideration of   2 degrees of freedom as
           vibrations may cause significant error
 Vibrational temperatures:    247.32   247.32
          (Kelvin)

 Zero-point correction=                           0.000783 (Hartree/Particle)
 Thermal correction to Energy=                    0.004356
 Thermal correction to Enthalpy=                  0.005300
 Thermal correction to Gibbs Free Energy=        -0.021156
 Sum of electronic and zero-point Energies=           -100.762190
 Sum of electronic and thermal Energies=              -100.758617
 Sum of electronic and thermal Enthalpies=            -100.757673
 Sum of electronic and thermal Free Energies=         -100.784129

                     E (Thermal)             CV                S
                      KCal/Mol        Cal/Mol-Kelvin    Cal/Mol-Kelvin
 Total                    2.733              8.722             55.682
 Electronic               0.000              0.000              1.377
 Translational            0.889              2.981             35.068
 Rotational               0.592              1.987             14.408
 Vibrational              1.252              3.754              4.829
 Vibration     1          0.626              1.877              2.415
 Vibration     2          0.626              1.877              2.415

 Normal termination of Gaussian 16 at Fri Aug 22 18:44:27 2025.
