 Gaussian 16, Revision C.01,
 Gaussian 16:  ES64L-G16RevC.01  3-Jul-2019

 -----------------------------------------
 # sp b3lyp/6-311g** Force nosymm scf=(qc)
 -----------------------------------------

 -------------------
 Title Card Required
 -------------------
 Symbolic Z-matrix:
 Charge =  0 Multiplicity = 2

                          Input orientation:
 ---------------------------------------------------------------------
 Center     Atomic      Atomic             Coordinates (Angstroms)
 Number     Number       Type             X           Y           Z
 ---------------------------------------------------------------------
      1          1           0        0.000000    0.000000    0.000000
      2          1           0       -1.900000    0.000000    0.000000
      3          9           0        3.550000    0.000000    0.000000
 ---------------------------------------------------------------------

 SCF Done:  E(UB3LYP) =  -100.779559861     a.u. after   40 cycles

 Alpha  occ. eigenvalues --  -24.75706  -1.21647  -0.54831  -0.46043  -0.46043
 Alpha  occ. eigenvalues --   -0.33177
 Alpha virt. eigenvalues --   -0.11107   0.25831   0.31664   0.87423   0.91261
 Alpha virt. eigenvalues --    0.91261   1.01571   1.13241   1.24745   1.24745
 Alpha virt. eigenvalues --    1.37438   1.37438   1.55670   2.13535   2.37713

  Beta  occ. eigenvalues --  -24.72578  -1.12656  -0.42907  -0.42907  -0.33211
  Beta virt. eigenvalues --   -0.25710  -0.10932   0.25731   0.32027   0.92754
  Beta virt. eigenvalues --    0.92754   0.96632   1.05637   1.13262   1.24703
  Beta virt. eigenvalues --    1.24703   1.37658   1.37658   1.55840   2.13997

 Mulliken charges and spin densities:
               1          2
     1  H    0.000893  -0.794006
     2  H    0.006053   0.802251
     3  F   -0.006945   0.991755
 Sum of Mulliken charges =   0.00000   1.00000

 Dipole moment (field-independent basis, Debye):
    X=             -0.1803    Y=             -0.0000    Z=              0.0000  Tot=              0.1803
 Quadrupole moment (field-independent basis, Debye-Ang):
   XX=             -6.3920   YY=             -7.7415   ZZ=             -7.7415
   XY=             -0.0000   XZ=              0.0000   YZ=             -0.0000

  Exact polarizability:      41.856       0.000       2.006       0.000       0.000       2.006
 Approx polarizability:      40.430      -0.000       1.946       0.000      -0.000       1.946

 ******    2 imaginary frequencies (negative Signs) ******

                      1                      2                      3
                      A                      A                      A
 Frequencies --  -1541.9603              -124.5139               652.4057
 Red. masses --      1.0078                 1.1085                 1.0121
 Frc consts  --      1.4118                 0.0101                 0.2538
 IR Inten    --      9.8142                 5.0639                 0.0018

                      4
                      A
 Frequencies --    652.4057
 Red. masses --      1.0121
 Frc consts  --      0.2538
 IR Inten    --      0.0018

 - Thermochemistry -
 -------------------
 Temperature   298.150 Kelvin.  Pressure   1.00000 Atm.
 Atom     1 has atomic number  1 and mass   1.00783

 Molecular mass:    21.01405 amu.
 Principal axes and moments of inertia in atomic units:
                           1         2         3
     Eigenvalues --     0.00000 138.27490 138.27490
           X            1.00000  -0.00000   0.00000
           Y            0.00000   1.00000   0.00000
           Z            0.00000   0.00000   1.00000
 This molecule is a prolate symmetric top.
 Rotational symmetry number  1.
 Rotational temperature (Kelvin)      0.62639
 Rotational constant (GHZ):          13.051836
    2 imaginary frequencies ignored.
 Zero-point vibrational energy       7804.5 (Joules/Mol)
                                    1.86532 (Kcal/Mol)
 Vibrational temperatures:    938.67   938.67
          (Kelvin)

 Zero-point correction=                           0.002973 (Hartree/Particle)
 Thermal correction to Energy=                    0.005600
 Thermal correction to Enthalpy=                  0.006544
 Thermal correction to Gibbs Free Energy=        -0.017887
 Sum of electronic and zero-point Energies=           -100.776587
 Sum of electronic and thermal Energies=              -100.773960
 Sum of electronic and thermal Enthalpies=            -100.773016
 Sum of electronic and thermal Free Energies=         -100.797447

                     E (Thermal)             CV                S
                      KCal/Mol        Cal/Mol-Kelvin    Cal/Mol-Kelvin
 Total                    3.514              6.814             51.420
 Electronic               0.000              0.000              1.377
 Translational            0.889              2.981             35.068
 Rotational               0.592              1.987             14.239
 Vibrational              2.033              1.846              0.736

 Normal termination of Gaussian 16 at Fri Aug 22 22:38:48 2025.
