 Gaussian 16, Revision C.01,
 Gaussian 16:  ES64L-G16RevC.01  3-Jul-2019

 -----------------------------------------
 # sp b3lyp/6-311g** Force nosymm scf=(qc)
 -----------------------------------------

 -------------------
 Title Card Required
 -------------------
 Symbolic Z-matrix:
 Charge =  0 Multiplicity = 2

                          Input orientation:
 ---------------------------------------------------------------------
 Center     Atomic      Atomic             Coordinates (Angstroms)
 Number     Number       Type             X           Y           Z
 ---------------------------------------------------------------------
      1          1           0        0.000000    0.000000    0.000000
      2          1           0       -2.600000    0.000000    0.000000
      3          9           0        0.500000    0.000000    0.000000
 ---------------------------------------------------------------------

 SCF Done:  E(UB3LYP) =  -100.269044548     a.u. after    6 cycles

 Alpha  occ. eigenvalues --  -24.63011  -1.42324  -0.63500  -0.44308  -0.44308
 Alpha  occ. eigenvalues --   -0.34046
 Alpha virt. eigenvalues --    0.09234   0.25746   0.62220   0.89084   0.90184
 Alpha virt. eigenvalues --    0.90184   1.19520   1.23498   1.23498   1.46793
 Alpha virt. eigenvalues --    1.58533   1.58533   1.99634   2.15453   3.76658

  Beta  occ. eigenvalues --  -24.63006  -1.42309  -0.63492  -0.44306  -0.44306
  Beta virt. eigenvalues --   -0.07213   0.10468   0.38837   0.61666   0.89170
  Beta virt. eigenvalues --    0.90169   0.90169   1.33162   1.47056   1.47056
  Beta virt. eigenvalues --    1.57505   1.58532   1.58532   1.99961   2.45545

 Mulliken charges and spin densities:
               1          2
     1  H    0.119095   0.002785
     2  H    0.003937   0.995319
     3  F   -0.123032   0.001897
 Sum of Mulliken charges =   0.00000   1.00000

 Dipole moment (field-independent basis, Debye):
    X=             -1.3356    Y=              0.0000    Z=              0.0000  Tot=              1.3356
 Quadrupole moment (field-independent basis, Debye-Ang):
   XX=             -6.5199   YY=             -6.4344   ZZ=             -6.4344
   XY=              0.0000   XZ=              0.0000   YZ=             -0.0000

  Exact polarizability:       4.171      -0.000       2.430      -0.000      -0.000       2.430
 Approx polarizability:       4.165       0.000       2.411      -0.000       0.000       2.411

 ******    2 imaginary frequencies (negative Signs) ******

                      1                      2                      3
                      A                      A                      A
 Frequencies --  -9549.8254             -9549.8254               111.2471
 Red. masses --      1.0425                 1.0425                 1.0532
 Frc consts  --     56.0149                56.0149                 0.0077
 IR Inten    --    268.9795               268.9795                 0.1115

                      4
                      A
 Frequencies --  19158.9539
 Red. masses --      1.0583
 Frc consts  --    228.8792
 IR Inten    --     83.0408

 - Thermochemistry -
 -------------------
 Temperature   298.150 Kelvin.  Pressure   1.00000 Atm.
 Atom     1 has atomic number  1 and mass   1.00783

 Molecular mass:    21.01405 amu.
 Principal axes and moments of inertia in atomic units:
                           1         2         3
     Eigenvalues --     0.00000  33.24924  33.24924
           X            1.00000  -0.00000   0.00000
           Y            0.00000   1.00000   0.00000
           Z            0.00000   0.00000   1.00000
 This molecule is a prolate symmetric top.
 Rotational symmetry number  1.
 Rotational temperature (Kelvin)      2.60499
 Rotational constant (GHZ):          54.279174
    2 imaginary frequencies ignored.
 Zero-point vibrational energy     115261.4 (Joules/Mol)
                                   27.54814 (Kcal/Mol)
 Warning -- explicit consideration of   1 degrees of freedom as
           vibrations may cause significant error
 Vibrational temperatures:    160.06 27565.46
          (Kelvin)

 Zero-point correction=                           0.043901 (Hartree/Particle)
 Thermal correction to Energy=                    0.046975
 Thermal correction to Enthalpy=                  0.047919
 Thermal correction to Gibbs Free Energy=         0.023640
 Sum of electronic and zero-point Energies=           -100.225144
 Sum of electronic and thermal Energies=              -100.222070
 Sum of electronic and thermal Enthalpies=            -100.221126
 Sum of electronic and thermal Free Energies=         -100.245405

                     E (Thermal)             CV                S
                      KCal/Mol        Cal/Mol-Kelvin    Cal/Mol-Kelvin
 Total                   29.477              6.908             51.099
 Electronic               0.000              0.000              1.377
 Translational            0.889              2.981             35.068
 Rotational               0.592              1.987             11.407
 Vibrational             27.996              1.940              3.247
 Vibration     1          0.607              1.940              3.247

 Normal termination of Gaussian 16 at Fri Aug 22 15:37:19 2025.
