 Gaussian 16, Revision C.01,
 Gaussian 16:  ES64L-G16RevC.01  3-Jul-2019

 -----------------------------------------
 # sp b3lyp/6-311g** Force nosymm scf=(qc)
 -----------------------------------------

 -------------------
 Title Card Required
 -------------------
 Symbolic Z-matrix:
 Charge =  0 Multiplicity = 2

                          Input orientation:
 ---------------------------------------------------------------------
 Center     Atomic      Atomic             Coordinates (Angstroms)
 Number     Number       Type             X           Y           Z
 ---------------------------------------------------------------------
      1          1           0        0.000000    0.000000    0.000000
      2          1           0       -0.700000    0.000000    0.000000
      3          9           0        1.750000    0.000000    0.000000
 ---------------------------------------------------------------------

 SCF Done:  E(UB3LYP) =  -100.933694985     a.u. after    6 cycles

 Alpha  occ. eigenvalues --  -24.73643  -1.20023  -0.55288  -0.45061  -0.44501
 Alpha  occ. eigenvalues --   -0.44501
 Alpha virt. eigenvalues --    0.08942   0.20140   0.44980   0.89769   0.89769
 Alpha virt. eigenvalues --    0.95430   1.08154   1.08154   1.19910   1.69171
 Alpha virt. eigenvalues --    1.84644   1.84644   1.89396   2.43429   3.47190

  Beta  occ. eigenvalues --  -24.70716  -1.11779  -0.46869  -0.41605  -0.41605
  Beta virt. eigenvalues --   -0.24806   0.09859   0.20854   0.46140   0.91025
  Beta virt. eigenvalues --    0.91025   1.02685   1.09362   1.09362   1.23360
  Beta virt. eigenvalues --    1.71144   1.85254   1.85254   1.90164   2.44744

 Mulliken charges and spin densities:
               1          2
     1  H    0.046520  -0.034051
     2  H    0.025034   0.126745
     3  F   -0.071554   0.907306
 Sum of Mulliken charges =   0.00000   1.00000

 Dipole moment (field-independent basis, Debye):
    X=             -0.6732    Y=              0.0000    Z=              0.0000  Tot=              0.6732
 Quadrupole moment (field-independent basis, Debye-Ang):
   XX=             -6.3515   YY=             -6.8034   ZZ=             -6.8034
   XY=              0.0000   XZ=              0.0000   YZ=              0.0000

  Exact polarizability:      17.998      -0.000       2.161       0.000       0.000       2.161
 Approx polarizability:      20.945       0.000       2.217       0.000      -0.000       2.217

 ******    3 imaginary frequencies (negative Signs) ******

                      1                      2                      3
                      A                      A                      A
 Frequencies --  -1374.7010             -1374.7010               -69.9949
 Red. masses --      1.0106                 1.0106                 1.1085
 Frc consts  --      1.1252                 1.1252                 0.0032
 IR Inten    --      0.0346                 0.0346                51.6809

                      4
                      A
 Frequencies --   4960.0555
 Red. masses --      1.0079
 Frc consts  --     14.6091
 IR Inten    --    433.4279

 - Thermochemistry -
 -------------------
 Temperature   298.150 Kelvin.  Pressure   1.00000 Atm.
 Atom     1 has atomic number  1 and mass   1.00783

 Molecular mass:    21.01405 amu.
 Principal axes and moments of inertia in atomic units:
                           1         2         3
     Eigenvalues --     0.00000  29.58023  29.58023
           X            1.00000  -0.00000   0.00000
           Y            0.00000   1.00000   0.00000
           Z            0.00000   0.00000   1.00000
 This molecule is a prolate symmetric top.
 Rotational symmetry number  1.
 Rotational temperature (Kelvin)      2.92810
 Rotational constant (GHZ):          61.011744
    3 imaginary frequencies ignored.
 Zero-point vibrational energy      29667.7 (Joules/Mol)
                                    7.09076 (Kcal/Mol)
 Vibrational temperatures:   7136.41
          (Kelvin)

 Zero-point correction=                           0.011300 (Hartree/Particle)
 Thermal correction to Energy=                    0.013660
 Thermal correction to Enthalpy=                  0.014604
 Thermal correction to Gibbs Free Energy=        -0.008021
 Sum of electronic and zero-point Energies=           -100.922395
 Sum of electronic and thermal Energies=              -100.920035
 Sum of electronic and thermal Enthalpies=            -100.919090
 Sum of electronic and thermal Free Energies=         -100.941716

                     E (Thermal)             CV                S
                      KCal/Mol        Cal/Mol-Kelvin    Cal/Mol-Kelvin
 Total                    8.572              4.968             47.620
 Electronic               0.000              0.000              1.377
 Translational            0.889              2.981             35.068
 Rotational               0.592              1.987             11.175
 Vibrational              7.091              0.000              0.000

 Normal termination of Gaussian 16 at Fri Aug 22 16:39:18 2025.
