 Gaussian 16, Revision C.01,
 Gaussian 16:  ES64L-G16RevC.01  3-Jul-2019

 -----------------------------------------
 # sp b3lyp/6-311g** Force nosymm scf=(qc)
 -----------------------------------------

 -------------------
 Title Card Required
 -------------------
 Symbolic Z-matrix:
 Charge =  0 Multiplicity = 2

                          Input orientation:
 ---------------------------------------------------------------------
 Center     Atomic      Atomic             Coordinates (Angstroms)
 Number     Number       Type             X           Y           Z
 ---------------------------------------------------------------------
      1          1           0        0.000000    0.000000    0.000000
      2          1           0       -2.900000    0.000000    0.000000
      3          9           0        0.900000    0.000000    0.000000
 ---------------------------------------------------------------------

 SCF Done:  E(UB3LYP) =  -100.971606559     a.u. after    5 cycles

 Alpha  occ. eigenvalues --  -24.63963  -1.19016  -0.53842  -0.39624  -0.39624
 Alpha  occ. eigenvalues --   -0.34218
 Alpha virt. eigenvalues --    0.03582   0.25223   0.39343   0.94364   0.94364
 Alpha virt. eigenvalues --    0.97763   1.22113   1.23316   1.23316   1.33266
 Alpha virt. eigenvalues --    1.37299   1.37299   2.01139   2.14609   2.37395

  Beta  occ. eigenvalues --  -24.63957  -1.19001  -0.53822  -0.39619  -0.39619
  Beta virt. eigenvalues --   -0.07416   0.04825   0.38265   0.39733   0.94365
  Beta virt. eigenvalues --    0.94365   0.97757   1.30224   1.37295   1.37295
  Beta virt. eigenvalues --    1.48530   1.48530   1.50332   2.01330   2.37228

 Mulliken charges and spin densities:
               1          2
     1  H    0.293795   0.001735
     2  H    0.002850   0.996142
     3  F   -0.296645   0.002122
 Sum of Mulliken charges =   0.00000   1.00000

 Dipole moment (field-independent basis, Debye):
    X=             -1.9232    Y=              0.0000    Z=             -0.0000  Tot=              1.9232
 Quadrupole moment (field-independent basis, Debye-Ang):
   XX=             -7.7999   YY=             -6.8672   ZZ=             -6.8672
   XY=              0.0000   XZ=             -0.0000   YZ=             -0.0000

  Exact polarizability:       6.500      -0.000       2.439       0.000      -0.000       2.439
 Approx polarizability:       7.296      -0.000       2.419      -0.000      -0.000       2.419

 ******    3 imaginary frequencies (negative Signs) ******

                      1                      2                      3
                      A                      A                      A
 Frequencies --   -623.9423              -623.9423               -60.6455
 Red. masses --      1.0357                 1.0357                 1.0532
 Frc consts  --      0.2376                 0.2376                 0.0023
 IR Inten    --    175.2053               175.2053                 0.2337

                      4
                      A
 Frequencies --   4429.7895
 Red. masses --      1.0584
 Frc consts  --     12.2363
 IR Inten    --    111.1410

 - Thermochemistry -
 -------------------
 Temperature   298.150 Kelvin.  Pressure   1.00000 Atm.
 Atom     1 has atomic number  1 and mass   1.00783

 Molecular mass:    21.01405 amu.
 Principal axes and moments of inertia in atomic units:
                           1         2         3
     Eigenvalues --     0.00000  51.07199  51.07199
           X            1.00000  -0.00000   0.00000
           Y            0.00000   1.00000   0.00000
           Z            0.00000   0.00000   1.00000
 This molecule is a prolate symmetric top.
 Rotational symmetry number  1.
 Rotational temperature (Kelvin)      1.69592
 Rotational constant (GHZ):          35.337199
    3 imaginary frequencies ignored.
 Zero-point vibrational energy      26496.0 (Joules/Mol)
                                    6.33270 (Kcal/Mol)
 Vibrational temperatures:   6373.48
          (Kelvin)

 Zero-point correction=                           0.010092 (Hartree/Particle)
 Thermal correction to Energy=                    0.012452
 Thermal correction to Enthalpy=                  0.013396
 Thermal correction to Gibbs Free Energy=        -0.009745
 Sum of electronic and zero-point Energies=           -100.961515
 Sum of electronic and thermal Energies=              -100.959154
 Sum of electronic and thermal Enthalpies=            -100.958210
 Sum of electronic and thermal Free Energies=         -100.981352

                     E (Thermal)             CV                S
                      KCal/Mol        Cal/Mol-Kelvin    Cal/Mol-Kelvin
 Total                    7.814              4.968             48.705
 Electronic               0.000              0.000              1.377
 Translational            0.889              2.981             35.068
 Rotational               0.592              1.987             12.260
 Vibrational              6.333              0.000              0.000

 Normal termination of Gaussian 16 at Fri Aug 22 15:56:24 2025.
