 Gaussian 16, Revision C.01,
 Gaussian 16:  ES64L-G16RevC.01  3-Jul-2019

 -----------------------------------------
 # sp b3lyp/6-311g** Force nosymm scf=(qc)
 -----------------------------------------

 -------------------
 Title Card Required
 -------------------
 Symbolic Z-matrix:
 Charge =  0 Multiplicity = 2

                          Input orientation:
 ---------------------------------------------------------------------
 Center     Atomic      Atomic             Coordinates (Angstroms)
 Number     Number       Type             X           Y           Z
 ---------------------------------------------------------------------
      1          1           0        0.000000    0.000000    0.000000
      2          1           0       -1.700000    0.000000    0.000000
      3          9           0        1.150000    0.000000    0.000000
 ---------------------------------------------------------------------

 SCF Done:  E(UB3LYP) =  -100.940844553     a.u. after    6 cycles

 Alpha  occ. eigenvalues --  -24.63488  -1.12531  -0.49333  -0.37241  -0.37153
 Alpha  occ. eigenvalues --   -0.37153
 Alpha virt. eigenvalues --    0.00817   0.22116   0.29788   0.93896   0.93896
 Alpha virt. eigenvalues --    1.00565   1.08896   1.18349   1.18349   1.37558
 Alpha virt. eigenvalues --    1.37558   1.52016   1.80540   2.22094   2.35422

  Beta  occ. eigenvalues --  -24.63207  -1.11826  -0.47654  -0.36899  -0.36899
  Beta virt. eigenvalues --   -0.16296   0.04008   0.27491   0.33044   0.93947
  Beta virt. eigenvalues --    0.93947   1.01298   1.17486   1.30567   1.30567
  Beta virt. eigenvalues --    1.41869   1.41869   1.55880   1.87299   2.31291

 Mulliken charges and spin densities:
               1          2
     1  H    0.316815  -0.014545
     2  H    0.038666   0.933247
     3  F   -0.355481   0.081298
 Sum of Mulliken charges =   0.00000   1.00000

 Dipole moment (field-independent basis, Debye):
    X=             -2.5910    Y=              0.0000    Z=             -0.0000  Tot=              2.5910
 Quadrupole moment (field-independent basis, Debye-Ang):
   XX=             -7.9710   YY=             -6.9986   ZZ=             -6.9986
   XY=              0.0000   XZ=             -0.0000   YZ=             -0.0000

  Exact polarizability:      16.212      -0.000       2.434      -0.000       0.000       2.434
 Approx polarizability:      19.267       0.000       2.408      -0.000       0.000       2.408

 ******    1 imaginary frequencies (negative Signs) ******

                      1                      2                      3
                      A                      A                      A
 Frequencies --   -590.9201              1101.2740              1134.7523
 Red. masses --      1.0201                 1.0940                 1.0233
 Frc consts  --      0.2099                 0.7817                 0.7763
 IR Inten    --     50.6074               171.1394                94.0948

                      4
                      A
 Frequencies --   1134.7523
 Red. masses --      1.0233
 Frc consts  --      0.7763
 IR Inten    --     94.0948

 - Thermochemistry -
 -------------------
 Temperature   298.150 Kelvin.  Pressure   1.00000 Atm.
 Atom     1 has atomic number  1 and mass   1.00783

 Molecular mass:    21.01405 amu.
 Principal axes and moments of inertia in atomic units:
                           1         2         3
     Eigenvalues --     0.00000  31.23093  31.23093
           X            1.00000  -0.00000   0.00000
           Y            0.00000   1.00000   0.00000
           Z            0.00000   0.00000   1.00000
 This molecule is a prolate symmetric top.
 Rotational symmetry number  1.
 Rotational temperature (Kelvin)      2.77334
 Rotational constant (GHZ):          57.786992
    1 imaginary frequencies ignored.
 Zero-point vibrational energy      20161.7 (Joules/Mol)
                                    4.81877 (Kcal/Mol)
 Vibrational temperatures:   1584.49  1632.66  1632.66
          (Kelvin)

 Zero-point correction=                           0.007679 (Hartree/Particle)
 Thermal correction to Energy=                    0.010108
 Thermal correction to Enthalpy=                  0.011052
 Thermal correction to Gibbs Free Energy=        -0.011706
 Sum of electronic and zero-point Energies=           -100.933165
 Sum of electronic and thermal Energies=              -100.930737
 Sum of electronic and thermal Enthalpies=            -100.929792
 Sum of electronic and thermal Free Energies=         -100.952550

                     E (Thermal)             CV                S
                      KCal/Mol        Cal/Mol-Kelvin    Cal/Mol-Kelvin
 Total                    6.343              5.750             47.898
 Electronic               0.000              0.000              1.377
 Translational            0.889              2.981             35.068
 Rotational               0.592              1.987             11.282
 Vibrational              4.862              0.782              0.170

 Normal termination of Gaussian 16 at Fri Aug 22 16:07:31 2025.
