 Gaussian 16, Revision C.01,
 Gaussian 16:  ES64L-G16RevC.01  3-Jul-2019

 -----------------------------------------
 # sp b3lyp/6-311g** Force nosymm scf=(qc)
 -----------------------------------------

 -------------------
 Title Card Required
 -------------------
 Symbolic Z-matrix:
 Charge =  0 Multiplicity = 2

                          Input orientation:
 ---------------------------------------------------------------------
 Center     Atomic      Atomic             Coordinates (Angstroms)
 Number     Number       Type             X           Y           Z
 ---------------------------------------------------------------------
      1          1           0        0.000000    0.000000    0.000000
      2          1           0       -3.200000    0.000000    0.000000
      3          9           0        2.900000    0.000000    0.000000
 ---------------------------------------------------------------------

 SCF Done:  E(UB3LYP) =  -100.762227263     a.u. after   24 cycles

 Alpha  occ. eigenvalues --  -24.73714  -1.19800  -0.52831  -0.44363  -0.44363
 Alpha  occ. eigenvalues --   -0.32702
 Alpha virt. eigenvalues --   -0.08942   0.24274   0.35483   0.89724   0.92498
 Alpha virt. eigenvalues --    0.92498   1.04518   1.24820   1.24820   1.25280
 Alpha virt. eigenvalues --    1.42820   1.42820   1.43320   2.15173   2.38872

  Beta  occ. eigenvalues --  -24.70713  -1.11209  -0.41361  -0.41361  -0.34007
  Beta virt. eigenvalues --   -0.24562  -0.07189   0.24362   0.37286   0.93950
  Beta virt. eigenvalues --    0.93950   0.98255   1.08169   1.23331   1.23331
  Beta virt. eigenvalues --    1.24377   1.45115   1.45325   1.45325   2.15301

 Mulliken charges and spin densities:
               1          2
     1  H    0.043766  -0.946121
     2  H    0.001130   0.995614
     3  F   -0.044896   0.950507
 Sum of Mulliken charges =  -0.00000   1.00000

 Dipole moment (field-independent basis, Debye):
    X=             -0.6855    Y=             -0.0000    Z=              0.0000  Tot=              0.6855
 Quadrupole moment (field-independent basis, Debye-Ang):
   XX=             -8.4524   YY=             -7.6106   ZZ=             -7.6106
   XY=             -0.0000   XZ=              0.0000   YZ=              0.0000

  Exact polarizability:      33.807      -0.000       2.023       0.000       0.000       2.023
 Approx polarizability:      35.389      -0.000       1.924       0.000      -0.000       1.924

 ******    2 imaginary frequencies (negative Signs) ******

                      1                      2                      3
                      A                      A                      A
 Frequencies --   -439.8601              -162.0539               160.8726
 Red. masses --      1.0393                 1.0728                 1.0192
 Frc consts  --      0.1185                 0.0166                 0.0155
 IR Inten    --     45.1341                 2.2152                 1.7583

                      4
                      A
 Frequencies --    160.8726
 Red. masses --      1.0192
 Frc consts  --      0.0155
 IR Inten    --      1.7583

 - Thermochemistry -
 -------------------
 Temperature   298.150 Kelvin.  Pressure   1.00000 Atm.
 Atom     1 has atomic number  1 and mass   1.00783

 Molecular mass:    21.01405 amu.
 Principal axes and moments of inertia in atomic units:
                           1         2         3
     Eigenvalues --     0.00000 150.20561 150.20561
           X            1.00000  -0.00000   0.00000
           Y            0.00000   1.00000   0.00000
           Z            0.00000   0.00000   1.00000
 This molecule is a prolate symmetric top.
 Rotational symmetry number  1.
 Rotational temperature (Kelvin)      0.57664
 Rotational constant (GHZ):          12.015139
    2 imaginary frequencies ignored.
 Zero-point vibrational energy       1924.5 (Joules/Mol)
                                    0.45996 (Kcal/Mol)
 Warning -- explicit consideration of   2 degrees of freedom as
           vibrations may cause significant error
 Vibrational temperatures:    231.46   231.46
          (Kelvin)

 Zero-point correction=                           0.000733 (Hartree/Particle)
 Thermal correction to Energy=                    0.004343
 Thermal correction to Enthalpy=                  0.005287
 Thermal correction to Gibbs Free Energy=        -0.021286
 Sum of electronic and zero-point Energies=           -100.761494
 Sum of electronic and thermal Energies=              -100.757885
 Sum of electronic and thermal Enthalpies=            -100.756940
 Sum of electronic and thermal Free Energies=         -100.783514

                     E (Thermal)             CV                S
                      KCal/Mol        Cal/Mol-Kelvin    Cal/Mol-Kelvin
 Total                    2.725              8.749             55.928
 Electronic               0.000              0.000              1.377
 Translational            0.889              2.981             35.068
 Rotational               0.592              1.987             14.404
 Vibrational              1.244              3.781              5.079
 Vibration     1          0.622              1.890              2.540
 Vibration     2          0.622              1.890              2.540

 Normal termination of Gaussian 16 at Fri Aug 22 19:04:28 2025.
