 Gaussian 16, Revision C.01,
 Gaussian 16:  ES64L-G16RevC.01  3-Jul-2019

 -----------------------------------------
 # sp b3lyp/6-311g** Force nosymm scf=(qc)
 -----------------------------------------

 -------------------
 Title Card Required
 -------------------
 Symbolic Z-matrix:
 Charge =  0 Multiplicity = 2

                          Input orientation:
 ---------------------------------------------------------------------
 Center     Atomic      Atomic             Coordinates (Angstroms)
 Number     Number       Type             X           Y           Z
 ---------------------------------------------------------------------
      1          1           0        0.000000    0.000000    0.000000
      2          1           0       -3.800000    0.000000    0.000000
      3          9           0        0.800000    0.000000    0.000000
 ---------------------------------------------------------------------

 SCF Done:  E(UB3LYP) =  -100.950285215     a.u. after    6 cycles

 Alpha  occ. eigenvalues --  -24.63680  -1.23046  -0.56193  -0.40655  -0.40655
 Alpha  occ. eigenvalues --   -0.33324
 Alpha virt. eigenvalues --    0.05068   0.24307   0.45960   0.94199   0.94199
 Alpha virt. eigenvalues --    0.96996   1.24069   1.24182   1.24182   1.29375
 Alpha virt. eigenvalues --    1.39810   1.39810   2.02183   2.14409   2.53059

  Beta  occ. eigenvalues --  -24.63680  -1.23045  -0.56192  -0.40655  -0.40655
  Beta virt. eigenvalues --   -0.05013   0.05318   0.39070   0.46001   0.94199
  Beta virt. eigenvalues --    0.94199   0.96992   1.29218   1.39810   1.39810
  Beta virt. eigenvalues --    1.50691   1.50882   1.50882   2.02336   2.44691

 Mulliken charges and spin densities:
               1          2
     1  H    0.274993   0.000371
     2  H    0.000448   0.999484
     3  F   -0.275441   0.000146
 Sum of Mulliken charges =   0.00000   1.00000

 Dipole moment (field-independent basis, Debye):
    X=             -1.7370    Y=              0.0000    Z=             -0.0000  Tot=              1.7370
 Quadrupole moment (field-independent basis, Debye-Ang):
   XX=             -7.6274   YY=             -6.7693   ZZ=             -6.7693
   XY=              0.0000   XZ=             -0.0000   YZ=             -0.0000

  Exact polarizability:       4.477      -0.000       2.440       0.000       0.000       2.440
 Approx polarizability:       5.067       0.000       2.420      -0.000       0.000       2.420

 ******    3 imaginary frequencies (negative Signs) ******

                      1                      2                      3
                      A                      A                      A
 Frequencies --  -1984.3028             -1984.3028               -34.1995
 Red. masses --      1.0413                 1.0413                 1.0532
 Frc consts  --      2.4157                 2.4157                 0.0007
 IR Inten    --    197.7098               197.7098                 0.0142

                      4
                      A
 Frequencies --   6349.9221
 Red. masses --      1.0583
 Frc consts  --     25.1420
 IR Inten    --    103.9858

 - Thermochemistry -
 -------------------
 Temperature   298.150 Kelvin.  Pressure   1.00000 Atm.
 Atom     1 has atomic number  1 and mass   1.00783

 Molecular mass:    21.01405 amu.
 Principal axes and moments of inertia in atomic units:
                           1         2         3
     Eigenvalues --     0.00000  73.42517  73.42517
           X            1.00000  -0.00000   0.00000
           Y            0.00000   1.00000   0.00000
           Z            0.00000   0.00000   1.00000
 This molecule is a prolate symmetric top.
 Rotational symmetry number  1.
 Rotational temperature (Kelvin)      1.17962
 Rotational constant (GHZ):          24.579327
    3 imaginary frequencies ignored.
 Zero-point vibrational energy      37981.0 (Joules/Mol)
                                    9.07767 (Kcal/Mol)
 Vibrational temperatures:   9136.12
          (Kelvin)

 Zero-point correction=                           0.014466 (Hartree/Particle)
 Thermal correction to Energy=                    0.016827
 Thermal correction to Enthalpy=                  0.017771
 Thermal correction to Gibbs Free Energy=        -0.005713
 Sum of electronic and zero-point Energies=           -100.935819
 Sum of electronic and thermal Energies=              -100.933459
 Sum of electronic and thermal Enthalpies=            -100.932514
 Sum of electronic and thermal Free Energies=         -100.955999

                     E (Thermal)             CV                S
                      KCal/Mol        Cal/Mol-Kelvin    Cal/Mol-Kelvin
 Total                   10.559              4.968             49.427
 Electronic               0.000              0.000              1.377
 Translational            0.889              2.981             35.068
 Rotational               0.592              1.987             12.981
 Vibrational              9.078              0.000              0.000

 Normal termination of Gaussian 16 at Fri Aug 22 15:52:15 2025.
