 Gaussian 16, Revision C.01,
 Gaussian 16:  ES64L-G16RevC.01  3-Jul-2019

 -----------------------------------------
 # sp b3lyp/6-311g** Force nosymm scf=(qc)
 -----------------------------------------

 -------------------
 Title Card Required
 -------------------
 Symbolic Z-matrix:
 Charge =  0 Multiplicity = 2

                          Input orientation:
 ---------------------------------------------------------------------
 Center     Atomic      Atomic             Coordinates (Angstroms)
 Number     Number       Type             X           Y           Z
 ---------------------------------------------------------------------
      1          1           0        0.000000    0.000000    0.000000
      2          1           0       -1.450000    0.000000    0.000000
      3          9           0        3.400000    0.000000    0.000000
 ---------------------------------------------------------------------

 SCF Done:  E(UB3LYP) =  -100.828403614     a.u. after   23 cycles

 Alpha  occ. eigenvalues --  -24.76442  -1.22309  -0.55507  -0.46709  -0.46661
 Alpha  occ. eigenvalues --   -0.33910
 Alpha virt. eigenvalues --   -0.08982   0.24633   0.30826   0.85899   0.90775
 Alpha virt. eigenvalues --    0.92245   1.01486   1.08939   1.19201   1.19205
 Alpha virt. eigenvalues --    1.43213   1.43217   1.86122   2.24056   2.48397

  Beta  occ. eigenvalues --  -24.73285  -1.13231  -0.43545  -0.43495  -0.33908
  Beta virt. eigenvalues --   -0.26147  -0.08978   0.24644   0.30861   0.92275
  Beta virt. eigenvalues --    0.93758   0.95362   1.05563   1.08958   1.19201
  Beta virt. eigenvalues --    1.19204   1.43213   1.43216   1.86128   2.24058

 Mulliken charges and spin densities:
               1          2
     1  H    0.000347   0.001213
     2  H   -0.003777  -0.001633
     3  F    0.003429   1.000420
 Sum of Mulliken charges =   0.00000   1.00000

 Dipole moment (field-independent basis, Debye):
    X=              0.0596    Y=              0.0000    Z=             -0.0000  Tot=              0.0596
 Quadrupole moment (field-independent basis, Debye-Ang):
   XX=             -6.2288   YY=             -7.2938   ZZ=             -7.2953
   XY=              0.0000   XZ=             -0.0000   YZ=             -0.4321

  Exact polarizability:      21.752       0.000       2.282      -0.000      -0.232       2.281
 Approx polarizability:      39.900       0.000       2.342      -0.000      -0.291       2.341

 ******    2 imaginary frequencies (negative Signs) ******

                      1                      2                      3
                      A                      A                      A
 Frequencies --  -1222.0350               -32.5551              1267.7684
 Red. masses --      1.0078                 1.1085                 1.0109
 Frc consts  --      0.8868                 0.0007                 0.9572
 IR Inten    --      0.3064                 0.2342                 0.0027

                      4
                      A
 Frequencies --   1267.8022
 Red. masses --      1.0109
 Frc consts  --      0.9573
 IR Inten    --      0.0024

 - Thermochemistry -
 -------------------
 Temperature   298.150 Kelvin.  Pressure   1.00000 Atm.
 Atom     1 has atomic number  1 and mass   1.00783

 Molecular mass:    21.01405 amu.
 Principal axes and moments of inertia in atomic units:
                           1         2         3
     Eigenvalues --     0.00000 114.51416 114.51416
           X            1.00000  -0.00000   0.00000
           Y            0.00000   1.00000   0.00000
           Z            0.00000   0.00000   1.00000
 This molecule is a prolate symmetric top.
 Rotational symmetry number  1.
 Rotational temperature (Kelvin)      0.75636
 Rotational constant (GHZ):          15.759983
    2 imaginary frequencies ignored.
 Zero-point vibrational energy      15166.1 (Joules/Mol)
                                    3.62478 (Kcal/Mol)
 Vibrational temperatures:   1824.04  1824.08
          (Kelvin)

 Zero-point correction=                           0.005776 (Hartree/Particle)
 Thermal correction to Energy=                    0.008162
 Thermal correction to Enthalpy=                  0.009107
 Thermal correction to Gibbs Free Energy=        -0.014827
 Sum of electronic and zero-point Energies=           -100.822627
 Sum of electronic and thermal Energies=              -100.820241
 Sum of electronic and thermal Enthalpies=            -100.819297
 Sum of electronic and thermal Free Energies=         -100.843230

                     E (Thermal)             CV                S
                      KCal/Mol        Cal/Mol-Kelvin    Cal/Mol-Kelvin
 Total                    5.122              5.297             50.372
 Electronic               0.000              0.000              1.377
 Translational            0.889              2.981             35.068
 Rotational               0.592              1.987             13.864
 Vibrational              3.641              0.329              0.062

 Normal termination of Gaussian 16 at Fri Aug 22 21:13:49 2025.
