 Gaussian 16, Revision C.01,
 Gaussian 16:  ES64L-G16RevC.01  3-Jul-2019

 -----------------------------------------
 # sp b3lyp/6-311g** Force nosymm scf=(qc)
 -----------------------------------------

 -------------------
 Title Card Required
 -------------------
 Symbolic Z-matrix:
 Charge =  0 Multiplicity = 2

                          Input orientation:
 ---------------------------------------------------------------------
 Center     Atomic      Atomic             Coordinates (Angstroms)
 Number     Number       Type             X           Y           Z
 ---------------------------------------------------------------------
      1          1           0        0.000000    0.000000    0.000000
      2          1           0       -2.950000    0.000000    0.000000
      3          9           0        1.800000    0.000000    0.000000
 ---------------------------------------------------------------------

 SCF Done:  E(UB3LYP) =  -100.805502742     a.u. after   20 cycles

 Alpha  occ. eigenvalues --  -24.66534  -1.12723  -0.45344  -0.38288  -0.38288
 Alpha  occ. eigenvalues --   -0.34388
 Alpha virt. eigenvalues --   -0.14794   0.22440   0.29835   0.93134   0.94819
 Alpha virt. eigenvalues --    0.94819   1.06094   1.23160   1.23160   1.23960
 Alpha virt. eigenvalues --    1.33715   1.33715   1.69873   2.13918   2.26202

  Beta  occ. eigenvalues --  -24.64629  -1.07476  -0.39272  -0.36429  -0.36429
  Beta virt. eigenvalues --   -0.19306  -0.08376   0.22986   0.36573   0.94006
  Beta virt. eigenvalues --    0.94839   0.94839   1.08145   1.23871   1.23871
  Beta virt. eigenvalues --    1.43709   1.43984   1.43984   1.65310   2.12979

 Mulliken charges and spin densities:
               1          2
     1  H    0.249477  -0.589493
     2  H    0.007540   0.990067
     3  F   -0.257017   0.599426
 Sum of Mulliken charges =   0.00000   1.00000

 Dipole moment (field-independent basis, Debye):
    X=             -2.3658    Y=              0.0000    Z=             -0.0000  Tot=              2.3658
 Quadrupole moment (field-independent basis, Debye-Ang):
   XX=             -9.9013   YY=             -7.4493   ZZ=             -7.4493
   XY=              0.0000   XZ=             -0.0000   YZ=             -0.0000

  Exact polarizability:      27.431       0.000       2.097      -0.000      -0.000       2.097
 Approx polarizability:      39.073       0.000       1.989      -0.000       0.000       1.989

 ******    2 imaginary frequencies (negative Signs) ******

                      1                      2                      3
                      A                      A                      A
 Frequencies --  -1525.0923              -224.1381               652.7733
 Red. masses --      1.0554                 1.0561                 1.0249
 Frc consts  --      1.4463                 0.0313                 0.2573
 IR Inten    --    117.1466                 2.8816                55.3719

                      4
                      A
 Frequencies --    652.7733
 Red. masses --      1.0249
 Frc consts  --      0.2573
 IR Inten    --     55.3719

 - Thermochemistry -
 -------------------
 Temperature   298.150 Kelvin.  Pressure   1.00000 Atm.
 Atom     1 has atomic number  1 and mass   1.00783

 Molecular mass:    21.01405 amu.
 Principal axes and moments of inertia in atomic units:
                           1         2         3
     Eigenvalues --     0.00000  85.45815  85.45815
           X            1.00000  -0.00000   0.00000
           Y            0.00000   1.00000   0.00000
           Z            0.00000   0.00000   1.00000
 This molecule is a prolate symmetric top.
 Rotational symmetry number  1.
 Rotational temperature (Kelvin)      1.01352
 Rotational constant (GHZ):          21.118421
    2 imaginary frequencies ignored.
 Zero-point vibrational energy       7808.9 (Joules/Mol)
                                    1.86637 (Kcal/Mol)
 Vibrational temperatures:    939.20   939.20
          (Kelvin)

 Zero-point correction=                           0.002974 (Hartree/Particle)
 Thermal correction to Energy=                    0.005601
 Thermal correction to Enthalpy=                  0.006545
 Thermal correction to Gibbs Free Energy=        -0.017431
 Sum of electronic and zero-point Energies=           -100.802528
 Sum of electronic and thermal Energies=              -100.799902
 Sum of electronic and thermal Enthalpies=            -100.798958
 Sum of electronic and thermal Free Energies=         -100.822934

                     E (Thermal)             CV                S
                      KCal/Mol        Cal/Mol-Kelvin    Cal/Mol-Kelvin
 Total                    3.515              6.813             50.463
 Electronic               0.000              0.000              1.377
 Translational            0.889              2.981             35.068
 Rotational               0.592              1.987             13.283
 Vibrational              2.033              1.845              0.735

 Normal termination of Gaussian 16 at Fri Aug 22 16:44:25 2025.
