 Gaussian 16, Revision C.01,
 Gaussian 16:  ES64L-G16RevC.01  3-Jul-2019

 -----------------------------------------
 # sp b3lyp/6-311g** Force nosymm scf=(qc)
 -----------------------------------------

 -------------------
 Title Card Required
 -------------------
 Symbolic Z-matrix:
 Charge =  0 Multiplicity = 2

                          Input orientation:
 ---------------------------------------------------------------------
 Center     Atomic      Atomic             Coordinates (Angstroms)
 Number     Number       Type             X           Y           Z
 ---------------------------------------------------------------------
      1          1           0        0.000000    0.000000    0.000000
      2          1           0       -1.050000    0.000000    0.000000
      3          9           0        1.050000    0.000000    0.000000
 ---------------------------------------------------------------------

 SCF Done:  E(UB3LYP) =  -100.959016036     a.u. after    7 cycles

 Alpha  occ. eigenvalues --  -24.64765  -1.16278  -0.56600  -0.39097  -0.39097
 Alpha  occ. eigenvalues --   -0.36922
 Alpha virt. eigenvalues --    0.11026   0.18932   0.40329   0.90501   0.90501
 Alpha virt. eigenvalues --    0.98024   1.08297   1.08297   1.38072   1.58970
 Alpha virt. eigenvalues --    1.58970   1.61320   2.21121   2.29540   2.78314

  Beta  occ. eigenvalues --  -24.63792  -1.13824  -0.50979  -0.38218  -0.38218
  Beta virt. eigenvalues --   -0.19185   0.13215   0.21730   0.45385   0.91866
  Beta virt. eigenvalues --    0.91866   1.00078   1.14161   1.14161   1.42069
  Beta virt. eigenvalues --    1.63509   1.63509   1.67466   2.23620   2.40213

 Mulliken charges and spin densities:
               1          2
     1  H    0.281026  -0.029860
     2  H    0.027329   0.768813
     3  F   -0.308355   0.261048
 Sum of Mulliken charges =   0.00000   1.00000

 Dipole moment (field-independent basis, Debye):
    X=             -2.0958    Y=             -0.0000    Z=             -0.0000  Tot=              2.0958
 Quadrupole moment (field-independent basis, Debye-Ang):
   XX=             -7.6724   YY=             -6.7408   ZZ=             -6.7408
   XY=              0.0000   XZ=             -0.0000   YZ=             -0.0000

  Exact polarizability:      16.322      -0.000       2.562       0.000       0.000       2.562
 Approx polarizability:      19.795      -0.000       2.578      -0.000       0.000       2.578

                      1                      2                      3
                      A                      A                      A
 Frequencies --    190.2925               612.3395               612.3395
 Red. masses --      1.0078                 1.0179                 1.0179
 Frc consts  --      0.0215                 0.2249                 0.2249
 IR Inten    --     46.6378                52.2076                52.2076

                      4
                      A
 Frequencies --   1636.2448
 Red. masses --      1.1085
 Frc consts  --      1.7486
 IR Inten    --     38.1335

 - Thermochemistry -
 -------------------
 Temperature   298.150 Kelvin.  Pressure   1.00000 Atm.
 Atom     1 has atomic number  1 and mass   1.00783

 Molecular mass:    21.01405 amu.
 Principal axes and moments of inertia in atomic units:
                           1         2         3
     Eigenvalues --     0.00000  18.12684  18.12684
           X            1.00000  -0.00000   0.00000
           Y            0.00000   1.00000   0.00000
           Z            0.00000   0.00000   1.00000
 This molecule is a prolate symmetric top.
 Rotational symmetry number  1.
 Rotational temperature (Kelvin)      4.77821
 Rotational constant (GHZ):          99.561808
 Zero-point vibrational energy      18250.3 (Joules/Mol)
                                    4.36193 (Kcal/Mol)
 Warning -- explicit consideration of   3 degrees of freedom as
           vibrations may cause significant error
 Vibrational temperatures:    273.79   881.02   881.02  2354.19
          (Kelvin)

 Zero-point correction=                           0.006951 (Hartree/Particle)
 Thermal correction to Energy=                    0.010197
 Thermal correction to Enthalpy=                  0.011141
 Thermal correction to Gibbs Free Energy=        -0.012490
 Sum of electronic and zero-point Energies=           -100.952065
 Sum of electronic and thermal Energies=              -100.948819
 Sum of electronic and thermal Enthalpies=            -100.947875
 Sum of electronic and thermal Free Energies=         -100.971506

                     E (Thermal)             CV                S
                      KCal/Mol        Cal/Mol-Kelvin    Cal/Mol-Kelvin
 Total                    6.399              8.879             49.736
 Electronic               0.000              0.000              1.377
 Translational            0.889              2.981             35.068
 Rotational               0.592              1.987             10.201
 Vibrational              4.918              3.911              3.089
 Vibration     1          0.634              1.853              2.225
 Vibration     2          0.972              1.006              0.429
 Vibration     3          0.972              1.006              0.429

 Normal termination of Gaussian 16 at Fri Aug 22 16:02:16 2025.
