 Gaussian 16, Revision C.01,
 Gaussian 16:  ES64L-G16RevC.01  3-Jul-2019

 -----------------------------------------
 # sp b3lyp/6-311g** Force nosymm scf=(qc)
 -----------------------------------------

 -------------------
 Title Card Required
 -------------------
 Symbolic Z-matrix:
 Charge =  0 Multiplicity = 2

                          Input orientation:
 ---------------------------------------------------------------------
 Center     Atomic      Atomic             Coordinates (Angstroms)
 Number     Number       Type             X           Y           Z
 ---------------------------------------------------------------------
      1          1           0        0.000000    0.000000    0.000000
      2          1           0       -2.050000    0.000000    0.000000
      3          9           0        0.850000    0.000000    0.000000
 ---------------------------------------------------------------------

 SCF Done:  E(UB3LYP) =  -100.965752165     a.u. after    6 cycles

 Alpha  occ. eigenvalues --  -24.63637  -1.20736  -0.55037  -0.39949  -0.39949
 Alpha  occ. eigenvalues --   -0.35617
 Alpha virt. eigenvalues --    0.07499   0.24439   0.41445   0.94500   0.94500
 Alpha virt. eigenvalues --    0.97275   1.15184   1.21800   1.21800   1.38640
 Alpha virt. eigenvalues --    1.38640   1.50604   1.98783   2.19291   2.43445

  Beta  occ. eigenvalues --  -24.63592  -1.20620  -0.54803  -0.39912  -0.39912
  Beta virt. eigenvalues --   -0.11204   0.09337   0.35340   0.41515   0.94507
  Beta virt. eigenvalues --    0.94507   0.97644   1.24729   1.37938   1.37938
  Beta virt. eigenvalues --    1.42503   1.42503   1.59694   2.02709   2.38325

 Mulliken charges and spin densities:
               1          2
     1  H    0.272181   0.007380
     2  H    0.011763   0.981344
     3  F   -0.283943   0.011277
 Sum of Mulliken charges =   0.00000   1.00000

 Dipole moment (field-independent basis, Debye):
    X=             -1.9361    Y=             -0.0000    Z=              0.0000  Tot=              1.9361
 Quadrupole moment (field-independent basis, Debye-Ang):
   XX=             -7.4232   YY=             -6.7874   ZZ=             -6.7874
   XY=             -0.0000   XZ=              0.0000   YZ=              0.0000

  Exact polarizability:       8.066       0.000       2.490      -0.000      -0.000       2.490
 Approx polarizability:       8.357       0.000       2.479       0.000      -0.000       2.479

 ******    2 imaginary frequencies (negative Signs) ******

                      1                      2                      3
                      A                      A                      A
 Frequencies --  -1309.8630             -1309.8630               232.5341
 Red. masses --      1.0311                 1.0311                 1.0531
 Frc consts  --      1.0423                 1.0423                 0.0336
 IR Inten    --    157.4962               157.4962                 0.8558

                      4
                      A
 Frequencies --   5295.3256
 Red. masses --      1.0584
 Frc consts  --     17.4864
 IR Inten    --    162.1229

 - Thermochemistry -
 -------------------
 Temperature   298.150 Kelvin.  Pressure   1.00000 Atm.
 Atom     1 has atomic number  1 and mass   1.00783

 Molecular mass:    21.01405 amu.
 Principal axes and moments of inertia in atomic units:
                           1         2         3
     Eigenvalues --     0.00000  30.44066  30.44066
           X            1.00000  -0.00000   0.00000
           Y            0.00000   1.00000   0.00000
           Z            0.00000   0.00000   1.00000
 This molecule is a prolate symmetric top.
 Rotational symmetry number  1.
 Rotational temperature (Kelvin)      2.84534
 Rotational constant (GHZ):          59.287189
    2 imaginary frequencies ignored.
 Zero-point vibrational energy      33063.9 (Joules/Mol)
                                    7.90247 (Kcal/Mol)
 Warning -- explicit consideration of   1 degrees of freedom as
           vibrations may cause significant error
 Vibrational temperatures:    334.56  7618.79
          (Kelvin)

 Zero-point correction=                           0.012593 (Hartree/Particle)
 Thermal correction to Energy=                    0.015465
 Thermal correction to Enthalpy=                  0.016410
 Thermal correction to Gibbs Free Energy=        -0.007127
 Sum of electronic and zero-point Energies=           -100.953159
 Sum of electronic and thermal Energies=              -100.950287
 Sum of electronic and thermal Enthalpies=            -100.949343
 Sum of electronic and thermal Free Energies=         -100.972879

                     E (Thermal)             CV                S
                      KCal/Mol        Cal/Mol-Kelvin    Cal/Mol-Kelvin
 Total                    9.705              6.759             49.536
 Electronic               0.000              0.000              1.377
 Translational            0.889              2.981             35.068
 Rotational               0.592              1.987             11.232
 Vibrational              8.223              1.791              1.859
 Vibration     1          0.653              1.791              1.859

 Normal termination of Gaussian 16 at Fri Aug 22 15:53:29 2025.
