 Gaussian 16, Revision C.01,
 Gaussian 16:  ES64L-G16RevC.01  3-Jul-2019

 -----------------------------------------
 # sp b3lyp/6-311g** Force nosymm scf=(qc)
 -----------------------------------------

 -------------------
 Title Card Required
 -------------------
 Symbolic Z-matrix:
 Charge =  0 Multiplicity = 2

                          Input orientation:
 ---------------------------------------------------------------------
 Center     Atomic      Atomic             Coordinates (Angstroms)
 Number     Number       Type             X           Y           Z
 ---------------------------------------------------------------------
      1          1           0        0.000000    0.000000    0.000000
      2          1           0       -3.150000    0.000000    0.000000
      3          9           0        1.400000    0.000000    0.000000
 ---------------------------------------------------------------------

 SCF Done:  E(UB3LYP) =  -100.877481409     a.u. after    7 cycles

 Alpha  occ. eigenvalues --  -24.64322  -1.10251  -0.44544  -0.36669  -0.36669
 Alpha  occ. eigenvalues --   -0.34356
 Alpha virt. eigenvalues --   -0.11755   0.21327   0.27901   0.93158   0.93158
 Alpha virt. eigenvalues --    1.03175   1.15609   1.23163   1.23163   1.23465
 Alpha virt. eigenvalues --    1.32689   1.32689   1.71924   2.13815   2.21397

  Beta  occ. eigenvalues --  -24.64296  -1.10182  -0.44468  -0.36644  -0.36644
  Beta virt. eigenvalues --   -0.12606  -0.06650   0.24491   0.37777   0.93151
  Beta virt. eigenvalues --    0.93151   1.03248   1.15720   1.32594   1.32594
  Beta virt. eigenvalues --    1.45180   1.45625   1.45625   1.71972   2.21261

 Mulliken charges and spin densities:
               1          2
     1  H    0.354231  -0.004255
     2  H    0.003774   0.995875
     3  F   -0.358005   0.008380
 Sum of Mulliken charges =  -0.00000   1.00000

 Dipole moment (field-independent basis, Debye):
    X=             -2.5508    Y=             -0.0000    Z=             -0.0000  Tot=              2.5508
 Quadrupole moment (field-independent basis, Debye-Ang):
   XX=             -9.4330   YY=             -7.2649   ZZ=             -7.2649
   XY=             -0.0000   XZ=             -0.0000   YZ=             -0.0000

  Exact polarizability:      14.433      -0.000       2.236       0.000      -0.000       2.236
 Approx polarizability:      23.549      -0.000       2.171      -0.000       0.000       2.171

 ******    2 imaginary frequencies (negative Signs) ******

                      1                      2                      3
                      A                      A                      A
 Frequencies --  -1028.7357              -108.8207              1085.3665
 Red. masses --      1.0562                 1.0554                 1.0300
 Frc consts  --      0.6586                 0.0074                 0.7149
 IR Inten    --     63.6455                 0.4373               122.8609

                      4
                      A
 Frequencies --   1085.3665
 Red. masses --      1.0300
 Frc consts  --      0.7149
 IR Inten    --    122.8609

 - Thermochemistry -
 -------------------
 Temperature   298.150 Kelvin.  Pressure   1.00000 Atm.
 Atom     1 has atomic number  1 and mass   1.00783

 Molecular mass:    21.01405 amu.
 Principal axes and moments of inertia in atomic units:
                           1         2         3
     Eigenvalues --     0.00000  75.45181  75.45181
           X            1.00000  -0.00000   0.00000
           Y            0.00000   1.00000   0.00000
           Z            0.00000   0.00000   1.00000
 This molecule is a prolate symmetric top.
 Rotational symmetry number  1.
 Rotational temperature (Kelvin)      1.14794
 Rotational constant (GHZ):          23.919123
    2 imaginary frequencies ignored.
 Zero-point vibrational energy      12983.9 (Joules/Mol)
                                    3.10322 (Kcal/Mol)
 Vibrational temperatures:   1561.60  1561.60
          (Kelvin)

 Zero-point correction=                           0.004945 (Hartree/Particle)
 Thermal correction to Energy=                    0.007359
 Thermal correction to Enthalpy=                  0.008303
 Thermal correction to Gibbs Free Energy=        -0.015270
 Sum of electronic and zero-point Energies=           -100.872536
 Sum of electronic and thermal Energies=              -100.870123
 Sum of electronic and thermal Enthalpies=            -100.869179
 Sum of electronic and thermal Free Energies=         -100.892751

                     E (Thermal)             CV                S
                      KCal/Mol        Cal/Mol-Kelvin    Cal/Mol-Kelvin
 Total                    4.618              5.553             49.613
 Electronic               0.000              0.000              1.377
 Translational            0.889              2.981             35.068
 Rotational               0.592              1.987             13.035
 Vibrational              3.136              0.585              0.132

 Normal termination of Gaussian 16 at Fri Aug 22 16:20:58 2025.
