 Gaussian 16, Revision C.01,
 Gaussian 16:  ES64L-G16RevC.01  3-Jul-2019

 -----------------------------------------
 # sp b3lyp/6-311g** Force nosymm scf=(qc)
 -----------------------------------------

 -------------------
 Title Card Required
 -------------------
 Symbolic Z-matrix:
 Charge =  0 Multiplicity = 2

                          Input orientation:
 ---------------------------------------------------------------------
 Center     Atomic      Atomic             Coordinates (Angstroms)
 Number     Number       Type             X           Y           Z
 ---------------------------------------------------------------------
      1          1           0        0.000000    0.000000    0.000000
      2          1           0       -2.400000    0.000000    0.000000
      3          9           0        2.050000    0.000000    0.000000
 ---------------------------------------------------------------------

 SCF Done:  E(UB3LYP) =  -100.788638163     a.u. after   16 cycles

 Alpha  occ. eigenvalues --  -24.68509  -1.14830  -0.47526  -0.39980  -0.39980
 Alpha  occ. eigenvalues --   -0.35003
 Alpha virt. eigenvalues --   -0.13704   0.24158   0.31188   0.89262   0.94909
 Alpha virt. eigenvalues --    0.94909   1.06220   1.22689   1.22689   1.26447
 Alpha virt. eigenvalues --    1.35053   1.35053   1.57474   2.13257   2.29105

  Beta  occ. eigenvalues --  -24.66063  -1.07973  -0.37565  -0.37565  -0.37376
  Beta virt. eigenvalues --   -0.21178  -0.10293   0.25295   0.34150   0.91901
  Beta virt. eigenvalues --    0.95707   0.95707   1.08804   1.22240   1.22240
  Beta virt. eigenvalues --    1.40354   1.40354   1.42606   1.50811   2.12953

 Mulliken charges and spin densities:
               1          2
     1  H    0.157363  -0.730236
     2  H    0.021294   0.960820
     3  F   -0.178657   0.769416
 Sum of Mulliken charges =   0.00000   1.00000

 Dipole moment (field-independent basis, Debye):
    X=             -2.0634    Y=             -0.0000    Z=             -0.0000  Tot=              2.0634
 Quadrupole moment (field-independent basis, Debye-Ang):
   XX=             -9.2595   YY=             -7.5401   ZZ=             -7.5401
   XY=             -0.0000   XZ=             -0.0000   YZ=              0.0000

  Exact polarizability:      40.700      -0.000       2.050      -0.000       0.000       2.050
 Approx polarizability:      47.967      -0.000       1.945      -0.000       0.000       1.945

 ******    2 imaginary frequencies (negative Signs) ******

                      1                      2                      3
                      A                      A                      A
 Frequencies --  -1187.9257              -434.5370               496.7096
 Red. masses --      1.0365                 1.0758                 1.0200
 Frc consts  --      0.8618                 0.1197                 0.1483
 IR Inten    --     85.5861                21.9036                19.7095

                      4
                      A
 Frequencies --    496.7096
 Red. masses --      1.0200
 Frc consts  --      0.1483
 IR Inten    --     19.7095

 - Thermochemistry -
 -------------------
 Temperature   298.150 Kelvin.  Pressure   1.00000 Atm.
 Atom     1 has atomic number  1 and mass   1.00783

 Molecular mass:    21.01405 amu.
 Principal axes and moments of inertia in atomic units:
                           1         2         3
     Eigenvalues --     0.00000  79.10156  79.10156
           X            1.00000  -0.00000   0.00000
           Y            0.00000   1.00000   0.00000
           Z            0.00000   0.00000   1.00000
 This molecule is a prolate symmetric top.
 Rotational symmetry number  1.
 Rotational temperature (Kelvin)      1.09497
 Rotational constant (GHZ):          22.815495
    2 imaginary frequencies ignored.
 Zero-point vibrational energy       5942.0 (Joules/Mol)
                                    1.42016 (Kcal/Mol)
 Warning -- explicit consideration of   2 degrees of freedom as
           vibrations may cause significant error
 Vibrational temperatures:    714.65   714.65
          (Kelvin)

 Zero-point correction=                           0.002263 (Hartree/Particle)
 Thermal correction to Energy=                    0.005077
 Thermal correction to Enthalpy=                  0.006021
 Thermal correction to Gibbs Free Energy=        -0.018167
 Sum of electronic and zero-point Energies=           -100.786375
 Sum of electronic and thermal Energies=              -100.783561
 Sum of electronic and thermal Enthalpies=            -100.782617
 Sum of electronic and thermal Free Energies=         -100.806805

                     E (Thermal)             CV                S
                      KCal/Mol        Cal/Mol-Kelvin    Cal/Mol-Kelvin
 Total                    3.186              7.483             50.907
 Electronic               0.000              0.000              1.377
 Translational            0.889              2.981             35.068
 Rotational               0.592              1.987             13.129
 Vibrational              1.704              2.515              1.333
 Vibration     1          0.852              1.257              0.666
 Vibration     2          0.852              1.257              0.666

 Normal termination of Gaussian 16 at Fri Aug 22 17:00:29 2025.
