 Gaussian 16, Revision C.01,
 Gaussian 16:  ES64L-G16RevC.01  3-Jul-2019

 -----------------------------------------
 # sp b3lyp/6-311g** Force nosymm scf=(qc)
 -----------------------------------------

 -------------------
 Title Card Required
 -------------------
 Symbolic Z-matrix:
 Charge =  0 Multiplicity = 2

                          Input orientation:
 ---------------------------------------------------------------------
 Center     Atomic      Atomic             Coordinates (Angstroms)
 Number     Number       Type             X           Y           Z
 ---------------------------------------------------------------------
      1          1           0        0.000000    0.000000    0.000000
      2          1           0       -3.200000    0.000000    0.000000
      3          9           0        1.950000    0.000000    0.000000
 ---------------------------------------------------------------------

 SCF Done:  E(UB3LYP) =  -100.791181178     a.u. after   13 cycles

 Alpha  occ. eigenvalues --  -24.67826  -1.14130  -0.46774  -0.39415  -0.39415
 Alpha  occ. eigenvalues --   -0.33784
 Alpha virt. eigenvalues --   -0.14044   0.22466   0.31434   0.89678   0.94886
 Alpha virt. eigenvalues --    0.94886   1.05807   1.23745   1.23745   1.24116
 Alpha virt. eigenvalues --    1.34918   1.34918   1.62878   2.14156   2.28768

  Beta  occ. eigenvalues --  -24.65544  -1.07769  -0.38241  -0.37170  -0.37170
  Beta virt. eigenvalues --   -0.20418  -0.07673   0.22873   0.37332   0.90901
  Beta virt. eigenvalues --    0.95375   0.95375   1.08210   1.22301   1.22301
  Beta virt. eigenvalues --    1.44496   1.45018   1.45018   1.56617   2.12422

 Mulliken charges and spin densities:
               1          2
     1  H    0.204370  -0.712643
     2  H    0.003626   0.994867
     3  F   -0.207996   0.717776
 Sum of Mulliken charges =   0.00000   1.00000

 Dipole moment (field-independent basis, Debye):
    X=             -2.0532    Y=             -0.0000    Z=              0.0000  Tot=              2.0532
 Quadrupole moment (field-independent basis, Debye-Ang):
   XX=             -9.9611   YY=             -7.4833   ZZ=             -7.4833
   XY=             -0.0000   XZ=              0.0000   YZ=             -0.0000

  Exact polarizability:      27.128      -0.000       2.068      -0.000      -0.000       2.068
 Approx polarizability:      38.270       0.000       1.955      -0.000       0.000       1.955

 ******    2 imaginary frequencies (negative Signs) ******

                      1                      2                      3
                      A                      A                      A
 Frequencies --  -1221.3369              -171.1662               516.8943
 Red. masses --      1.0561                 1.0555                 1.0249
 Frc consts  --      0.9282                 0.0182                 0.1613
 IR Inten    --    121.8825                 1.0177                38.1833

                      4
                      A
 Frequencies --    516.8943
 Red. masses --      1.0249
 Frc consts  --      0.1613
 IR Inten    --     38.1833

 - Thermochemistry -
 -------------------
 Temperature   298.150 Kelvin.  Pressure   1.00000 Atm.
 Atom     1 has atomic number  1 and mass   1.00783

 Molecular mass:    21.01405 amu.
 Principal axes and moments of inertia in atomic units:
                           1         2         3
     Eigenvalues --     0.00000 100.43882 100.43882
           X            1.00000  -0.00000   0.00000
           Y            0.00000   1.00000   0.00000
           Z            0.00000   0.00000   1.00000
 This molecule is a prolate symmetric top.
 Rotational symmetry number  1.
 Rotational temperature (Kelvin)      0.86236
 Rotational constant (GHZ):          17.968562
    2 imaginary frequencies ignored.
 Zero-point vibrational energy       6183.4 (Joules/Mol)
                                    1.47787 (Kcal/Mol)
 Warning -- explicit consideration of   2 degrees of freedom as
           vibrations may cause significant error
 Vibrational temperatures:    743.70   743.70
          (Kelvin)

 Zero-point correction=                           0.002355 (Hartree/Particle)
 Thermal correction to Energy=                    0.005139
 Thermal correction to Enthalpy=                  0.006084
 Thermal correction to Gibbs Free Energy=        -0.018283
 Sum of electronic and zero-point Energies=           -100.788826
 Sum of electronic and thermal Energies=              -100.786042
 Sum of electronic and thermal Enthalpies=            -100.785098
 Sum of electronic and thermal Free Energies=         -100.809464

                     E (Thermal)             CV                S
                      KCal/Mol        Cal/Mol-Kelvin    Cal/Mol-Kelvin
 Total                    3.225              7.393             51.284
 Electronic               0.000              0.000              1.377
 Translational            0.889              2.981             35.068
 Rotational               0.592              1.987             13.604
 Vibrational              1.744              2.425              1.234
 Vibration     1          0.872              1.213              0.617
 Vibration     2          0.872              1.213              0.617

 Normal termination of Gaussian 16 at Fri Aug 22 16:54:18 2025.
