 Gaussian 16, Revision C.01,
 Gaussian 16:  ES64L-G16RevC.01  3-Jul-2019

 -----------------------------------------
 # sp b3lyp/6-311g** Force nosymm scf=(qc)
 -----------------------------------------

 -------------------
 Title Card Required
 -------------------
 Symbolic Z-matrix:
 Charge =  0 Multiplicity = 2

                          Input orientation:
 ---------------------------------------------------------------------
 Center     Atomic      Atomic             Coordinates (Angstroms)
 Number     Number       Type             X           Y           Z
 ---------------------------------------------------------------------
      1          1           0        0.000000    0.000000    0.000000
      2          1           0       -2.800000    0.000000    0.000000
      3          9           0        0.700000    0.000000    0.000000
 ---------------------------------------------------------------------

 SCF Done:  E(UB3LYP) =  -100.874905967     a.u. after    6 cycles

 Alpha  occ. eigenvalues --  -24.63174  -1.28201  -0.58576  -0.41736  -0.41736
 Alpha  occ. eigenvalues --   -0.34067
 Alpha virt. eigenvalues --    0.07124   0.25558   0.52520   0.93509   0.93509
 Alpha virt. eigenvalues --    0.95765   1.20963   1.23469   1.23469   1.37574
 Alpha virt. eigenvalues --    1.44090   1.44090   1.98223   2.14642   2.86580

  Beta  occ. eigenvalues --  -24.63170  -1.28190  -0.58565  -0.41733  -0.41733
  Beta virt. eigenvalues --   -0.07003   0.08327   0.38775   0.52687   0.93507
  Beta virt. eigenvalues --    0.93507   0.95789   1.31030   1.44089   1.44089
  Beta virt. eigenvalues --    1.49401   1.49401   1.52487   1.98064   2.43976

 Mulliken charges and spin densities:
               1          2
     1  H    0.259941   0.001945
     2  H    0.002758   0.996135
     3  F   -0.262699   0.001920
 Sum of Mulliken charges =   0.00000   1.00000

 Dipole moment (field-independent basis, Debye):
    X=             -1.6193    Y=              0.0000    Z=              0.0000  Tot=              1.6193
 Quadrupole moment (field-independent basis, Debye-Ang):
   XX=             -7.1768   YY=             -6.6608   ZZ=             -6.6608
   XY=              0.0000   XZ=              0.0000   YZ=              0.0000

  Exact polarizability:       4.902       0.000       2.463      -0.000      -0.000       2.463
 Approx polarizability:       5.126      -0.000       2.446      -0.000       0.000       2.446

 ******    2 imaginary frequencies (negative Signs) ******

                      1                      2                      3
                      A                      A                      A
 Frequencies --  -3541.2438             -3541.2438                33.7621
 Red. masses --      1.0389                 1.0389                 1.0532
 Frc consts  --      7.6762                 7.6762                 0.0007
 IR Inten    --    206.3051               206.3051                 0.1525

                      4
                      A
 Frequencies --   9072.9379
 Red. masses --      1.0583
 Frc consts  --     51.3288
 IR Inten    --    114.5674

 - Thermochemistry -
 -------------------
 Temperature   298.150 Kelvin.  Pressure   1.00000 Atm.
 Atom     1 has atomic number  1 and mass   1.00783

 Molecular mass:    21.01405 amu.
 Principal axes and moments of inertia in atomic units:
                           1         2         3
     Eigenvalues --     0.00000  42.80658  42.80658
           X            1.00000  -0.00000   0.00000
           Y            0.00000   1.00000   0.00000
           Z            0.00000   0.00000   1.00000
 This molecule is a prolate symmetric top.
 Rotational symmetry number  1.
 Rotational temperature (Kelvin)      2.02338
 Rotational constant (GHZ):          42.160366
    2 imaginary frequencies ignored.
 Zero-point vibrational energy      54470.2 (Joules/Mol)
                                   13.01868 (Kcal/Mol)
 Warning -- explicit consideration of   1 degrees of freedom as
           vibrations may cause significant error
 Vibrational temperatures:     48.58 13053.93
          (Kelvin)

 Zero-point correction=                           0.020747 (Hartree/Particle)
 Thermal correction to Energy=                    0.023976
 Thermal correction to Enthalpy=                  0.024921
 Thermal correction to Gibbs Free Energy=        -0.000713
 Sum of electronic and zero-point Energies=           -100.854159
 Sum of electronic and thermal Energies=              -100.850930
 Sum of electronic and thermal Enthalpies=            -100.849985
 Sum of electronic and thermal Free Energies=         -100.875619

                     E (Thermal)             CV                S
                      KCal/Mol        Cal/Mol-Kelvin    Cal/Mol-Kelvin
 Total                   15.045              6.951             53.950
 Electronic               0.000              0.000              1.377
 Translational            0.889              2.981             35.068
 Rotational               0.592              1.987             11.909
 Vibrational             13.564              1.983              5.595
 Vibration     1          0.594              1.983              5.595

 Normal termination of Gaussian 16 at Fri Aug 22 15:46:57 2025.
