 Gaussian 16, Revision C.01,
 Gaussian 16:  ES64L-G16RevC.01  3-Jul-2019

 -----------------------------------------
 # sp b3lyp/6-311g** Force nosymm scf=(qc)
 -----------------------------------------

 -------------------
 Title Card Required
 -------------------
 Symbolic Z-matrix:
 Charge =  0 Multiplicity = 2

                          Input orientation:
 ---------------------------------------------------------------------
 Center     Atomic      Atomic             Coordinates (Angstroms)
 Number     Number       Type             X           Y           Z
 ---------------------------------------------------------------------
      1          1           0        0.000000    0.000000    0.000000
      2          1           0       -2.650000    0.000000    0.000000
      3          9           0        0.550000    0.000000    0.000000
 ---------------------------------------------------------------------

 SCF Done:  E(UB3LYP) =  -100.519323997     a.u. after    6 cycles

 Alpha  occ. eigenvalues --  -24.62675  -1.38406  -0.62252  -0.43609  -0.43609
 Alpha  occ. eigenvalues --   -0.34045
 Alpha virt. eigenvalues --    0.08783   0.25716   0.60530   0.91243   0.91243
 Alpha virt. eigenvalues --    0.91256   1.19727   1.23497   1.23497   1.44579
 Alpha virt. eigenvalues --    1.54154   1.54154   1.96503   2.14887   3.65601

  Beta  occ. eigenvalues --  -24.62671  -1.38392  -0.62242  -0.43607  -0.43607
  Beta virt. eigenvalues --   -0.07188   0.09995   0.38740   0.60167   0.91233
  Beta virt. eigenvalues --    0.91233   0.91329   1.32655   1.47575   1.47575
  Beta virt. eigenvalues --    1.54153   1.54153   1.56202   1.96350   2.44648

 Mulliken charges and spin densities:
               1          2
     1  H    0.195318   0.002463
     2  H    0.003508   0.995531
     3  F   -0.198827   0.002006
 Sum of Mulliken charges =   0.00000   1.00000

 Dipole moment (field-independent basis, Debye):
    X=             -1.4018    Y=              0.0000    Z=             -0.0000  Tot=              1.4018
 Quadrupole moment (field-independent basis, Debye-Ang):
   XX=             -6.6840   YY=             -6.4919   ZZ=             -6.4919
   XY=              0.0000   XZ=             -0.0000   YZ=             -0.0000

  Exact polarizability:       4.299      -0.000       2.445       0.000       0.000       2.445
 Approx polarizability:       4.332       0.000       2.427       0.000       0.000       2.427

 ******    2 imaginary frequencies (negative Signs) ******

                      1                      2                      3
                      A                      A                      A
 Frequencies --  -7469.8165             -7469.8165                91.5138
 Red. masses --      1.0415                 1.0415                 1.0532
 Frc consts  --     34.2392                34.2392                 0.0052
 IR Inten    --    246.5492               246.5492                 0.1248

                      4
                      A
 Frequencies --  15777.8434
 Red. masses --      1.0583
 Frc consts  --    155.2238
 IR Inten    --     95.6926

 - Thermochemistry -
 -------------------
 Temperature   298.150 Kelvin.  Pressure   1.00000 Atm.
 Atom     1 has atomic number  1 and mass   1.00783

 Molecular mass:    21.01405 amu.
 Principal axes and moments of inertia in atomic units:
                           1         2         3
     Eigenvalues --     0.00000  35.51526  35.51526
           X            1.00000  -0.00000   0.00000
           Y            0.00000   1.00000   0.00000
           Z            0.00000   0.00000   1.00000
 This molecule is a prolate symmetric top.
 Rotational symmetry number  1.
 Rotational temperature (Kelvin)      2.43878
 Rotational constant (GHZ):          50.815933
    2 imaginary frequencies ignored.
 Zero-point vibrational energy      94919.8 (Joules/Mol)
                                   22.68639 (Kcal/Mol)
 Warning -- explicit consideration of   1 degrees of freedom as
           vibrations may cause significant error
 Vibrational temperatures:    131.67 22700.80
          (Kelvin)

 Zero-point correction=                           0.036153 (Hartree/Particle)
 Thermal correction to Energy=                    0.039265
 Thermal correction to Enthalpy=                  0.040209
 Thermal correction to Gibbs Free Energy=         0.015687
 Sum of electronic and zero-point Energies=           -100.483171
 Sum of electronic and thermal Energies=              -100.480059
 Sum of electronic and thermal Enthalpies=            -100.479115
 Sum of electronic and thermal Free Energies=         -100.503637

                     E (Thermal)             CV                S
                      KCal/Mol        Cal/Mol-Kelvin    Cal/Mol-Kelvin
 Total                   24.639              6.923             51.611
 Electronic               0.000              0.000              1.377
 Translational            0.889              2.981             35.068
 Rotational               0.592              1.987             11.538
 Vibrational             23.158              1.955              3.627
 Vibration     1          0.602              1.955              3.627

 Normal termination of Gaussian 16 at Fri Aug 22 15:39:46 2025.
