 Gaussian 16, Revision C.01,
 Gaussian 16:  ES64L-G16RevC.01  3-Jul-2019

 -----------------------------------------
 # sp b3lyp/6-311g** Force nosymm scf=(qc)
 -----------------------------------------

 -------------------
 Title Card Required
 -------------------
 Symbolic Z-matrix:
 Charge =  0 Multiplicity = 2

                          Input orientation:
 ---------------------------------------------------------------------
 Center     Atomic      Atomic             Coordinates (Angstroms)
 Number     Number       Type             X           Y           Z
 ---------------------------------------------------------------------
      1          1           0        0.000000    0.000000    0.000000
      2          1           0       -0.900000    0.000000    0.000000
      3          9           0        3.150000    0.000000    0.000000
 ---------------------------------------------------------------------

 SCF Done:  E(UB3LYP) =  -100.922384460     a.u. after   73 cycles

 Alpha  occ. eigenvalues --  -24.76548  -1.22375  -0.55569  -0.46799  -0.46720
 Alpha  occ. eigenvalues --   -0.40298
 Alpha virt. eigenvalues --    0.02797   0.20855   0.41714   0.85875   0.90749
 Alpha virt. eigenvalues --    0.93506   1.03684   1.08469   1.08474   1.45639
 Alpha virt. eigenvalues --    1.72358   1.72364   2.18898   2.38004   2.74295

  Beta  occ. eigenvalues --  -24.73388  -1.13291  -0.43653  -0.43552  -0.40274
  Beta virt. eigenvalues --   -0.26198   0.02822   0.20875   0.41793   0.92248
  Beta virt. eigenvalues --    0.95179   0.95335   1.07547   1.08468   1.08473
  Beta virt. eigenvalues --    1.45649   1.72358   1.72364   2.18917   2.38009

 Mulliken charges and spin densities:
               1          2
     1  H   -0.002989  -0.000702
     2  H   -0.004059  -0.000185
     3  F    0.007048   1.000887
 Sum of Mulliken charges =   0.00000   1.00000

 Dipole moment (field-independent basis, Debye):
    X=              0.0801    Y=              0.0000    Z=             -0.0000  Tot=              0.0801
 Quadrupole moment (field-independent basis, Debye-Ang):
   XX=             -6.1467   YY=             -6.7248   ZZ=             -6.7245
   XY=              0.0000   XZ=             -0.0000   YZ=             -0.4319

  Exact polarizability:      10.780      -0.000       2.259       0.000      -0.231       2.259
 Approx polarizability:      13.253      -0.000       2.382       0.000      -0.290       2.382

                      1                      2                      3
                      A                      A                      A
 Frequencies --     47.9304              1455.8013              1455.8219
 Red. masses --      1.1085                 1.0094                 1.0094
 Frc consts  --      0.0015                 1.2604                 1.2604
 IR Inten    --      0.2675                 0.0009                 0.0007

                      4
                      A
 Frequencies --   2643.3985
 Red. masses --      1.0078
 Frc consts  --      4.1492
 IR Inten    --      0.3479

 - Thermochemistry -
 -------------------
 Temperature   298.150 Kelvin.  Pressure   1.00000 Atm.
 Atom     1 has atomic number  1 and mass   1.00783

 Molecular mass:    21.01405 amu.
 Principal axes and moments of inertia in atomic units:
                           1         2         3
     Eigenvalues --     0.00000  85.79596  85.79596
           X            1.00000  -0.00000   0.00000
           Y            0.00000   1.00000   0.00000
           Z            0.00000   0.00000   1.00000
 This molecule is a prolate symmetric top.
 Rotational symmetry number  1.
 Rotational temperature (Kelvin)      1.00953
 Rotational constant (GHZ):          21.035271
 Zero-point vibrational energy      33513.1 (Joules/Mol)
                                    8.00982 (Kcal/Mol)
 Warning -- explicit consideration of   1 degrees of freedom as
           vibrations may cause significant error
 Vibrational temperatures:     68.96  2094.57  2094.60  3803.26
          (Kelvin)

 Zero-point correction=                           0.012764 (Hartree/Particle)
 Thermal correction to Energy=                    0.015976
 Thermal correction to Enthalpy=                  0.016920
 Thermal correction to Gibbs Free Energy=        -0.009053
 Sum of electronic and zero-point Energies=           -100.909620
 Sum of electronic and thermal Energies=              -100.906408
 Sum of electronic and thermal Enthalpies=            -100.905464
 Sum of electronic and thermal Free Energies=         -100.931438

                     E (Thermal)             CV                S
                      KCal/Mol        Cal/Mol-Kelvin    Cal/Mol-Kelvin
 Total                   10.025              7.122             54.666
 Electronic               0.000              0.000              1.377
 Translational            0.889              2.981             35.068
 Rotational               0.592              1.987             13.291
 Vibrational              8.544              2.154              4.929
 Vibration     1          0.595              1.978              4.901

 Normal termination of Gaussian 16 at Fri Aug 22 20:01:52 2025.
