 Gaussian 16, Revision C.01,
 Gaussian 16:  ES64L-G16RevC.01  3-Jul-2019

 -----------------------------------------
 # sp b3lyp/6-311g** Force nosymm scf=(qc)
 -----------------------------------------

 -------------------
 Title Card Required
 -------------------
 Symbolic Z-matrix:
 Charge =  0 Multiplicity = 2

                          Input orientation:
 ---------------------------------------------------------------------
 Center     Atomic      Atomic             Coordinates (Angstroms)
 Number     Number       Type             X           Y           Z
 ---------------------------------------------------------------------
      1          1           0        0.000000    0.000000    0.000000
      2          1           0       -3.400000    0.000000    0.000000
      3          9           0        2.800000    0.000000    0.000000
 ---------------------------------------------------------------------

 SCF Done:  E(UB3LYP) =  -100.762914479     a.u. after   21 cycles

 Alpha  occ. eigenvalues --  -24.73282  -1.19400  -0.52399  -0.44002  -0.44002
 Alpha  occ. eigenvalues --   -0.32699
 Alpha virt. eigenvalues --   -0.09008   0.23936   0.35713   0.89898   0.92751
 Alpha virt. eigenvalues --    0.92751   1.05081   1.24812   1.24812   1.25053
 Alpha virt. eigenvalues --    1.42832   1.42832   1.43561   2.14832   2.38577

  Beta  occ. eigenvalues --  -24.70313  -1.10908  -0.41034  -0.41034  -0.34290
  Beta virt. eigenvalues --   -0.24306  -0.06814   0.24104   0.37718   0.94191
  Beta virt. eigenvalues --    0.94191   0.98141   1.08496   1.23033   1.23033
  Beta virt. eigenvalues --    1.24663   1.45562   1.45830   1.45830   2.14546

 Mulliken charges and spin densities:
               1          2
     1  H    0.053436  -0.937489
     2  H    0.000781   0.997360
     3  F   -0.054217   0.940129
 Sum of Mulliken charges =  -0.00000   1.00000

 Dipole moment (field-independent basis, Debye):
    X=             -0.7909    Y=              0.0000    Z=             -0.0000  Tot=              0.7909
 Quadrupole moment (field-independent basis, Debye-Ang):
   XX=             -8.6972   YY=             -7.6000   ZZ=             -7.6000
   XY=              0.0000   XZ=             -0.0000   YZ=             -0.0000

  Exact polarizability:      32.748       0.000       2.023      -0.000       0.000       2.023
 Approx polarizability:      36.438       0.000       1.923      -0.000       0.000       1.923

 ******    2 imaginary frequencies (negative Signs) ******

                      1                      2                      3
                      A                      A                      A
 Frequencies --   -464.7744              -133.8678               170.4181
 Red. masses --      1.0484                 1.0633                 1.0205
 Frc consts  --      0.1334                 0.0112                 0.0175
 IR Inten    --     54.3315                 0.7416                 2.6836

                      4
                      A
 Frequencies --    170.4181
 Red. masses --      1.0205
 Frc consts  --      0.0175
 IR Inten    --      2.6836

 - Thermochemistry -
 -------------------
 Temperature   298.150 Kelvin.  Pressure   1.00000 Atm.
 Atom     1 has atomic number  1 and mass   1.00783

 Molecular mass:    21.01405 amu.
 Principal axes and moments of inertia in atomic units:
                           1         2         3
     Eigenvalues --     0.00000 152.58096 152.58096
           X            1.00000  -0.00000   0.00000
           Y            0.00000   1.00000   0.00000
           Z            0.00000   0.00000   1.00000
 This molecule is a prolate symmetric top.
 Rotational symmetry number  1.
 Rotational temperature (Kelvin)      0.56766
 Rotational constant (GHZ):          11.828090
    2 imaginary frequencies ignored.
 Zero-point vibrational energy       2038.7 (Joules/Mol)
                                    0.48725 (Kcal/Mol)
 Warning -- explicit consideration of   2 degrees of freedom as
           vibrations may cause significant error
 Vibrational temperatures:    245.19   245.19
          (Kelvin)

 Zero-point correction=                           0.000776 (Hartree/Particle)
 Thermal correction to Energy=                    0.004354
 Thermal correction to Enthalpy=                  0.005298
 Thermal correction to Gibbs Free Energy=        -0.021187
 Sum of electronic and zero-point Energies=           -100.762138
 Sum of electronic and thermal Energies=              -100.758560
 Sum of electronic and thermal Enthalpies=            -100.757616
 Sum of electronic and thermal Free Energies=         -100.784101

                     E (Thermal)             CV                S
                      KCal/Mol        Cal/Mol-Kelvin    Cal/Mol-Kelvin
 Total                    2.732              8.726             55.742
 Electronic               0.000              0.000              1.377
 Translational            0.889              2.981             35.068
 Rotational               0.592              1.987             14.435
 Vibrational              1.251              3.758              4.862
 Vibration     1          0.626              1.879              2.431
 Vibration     2          0.626              1.879              2.431

 Normal termination of Gaussian 16 at Fri Aug 22 18:44:31 2025.
