 Gaussian 16, Revision C.01,
 Gaussian 16:  ES64L-G16RevC.01  3-Jul-2019

 -----------------------------------------
 # sp b3lyp/6-311g** Force nosymm scf=(qc)
 -----------------------------------------

 -------------------
 Title Card Required
 -------------------
 Symbolic Z-matrix:
 Charge =  0 Multiplicity = 2

                          Input orientation:
 ---------------------------------------------------------------------
 Center     Atomic      Atomic             Coordinates (Angstroms)
 Number     Number       Type             X           Y           Z
 ---------------------------------------------------------------------
      1          1           0        0.000000    0.000000    0.000000
      2          1           0       -0.850000    0.000000    0.000000
      3          9           0        1.350000    0.000000    0.000000
 ---------------------------------------------------------------------

 SCF Done:  E(UB3LYP) =  -100.941200677     a.u. after    7 cycles

 Alpha  occ. eigenvalues --  -24.68699  -1.16575  -0.56098  -0.41017  -0.41017
 Alpha  occ. eigenvalues --   -0.40284
 Alpha virt. eigenvalues --    0.08365   0.19485   0.40356   0.88653   0.88653
 Alpha virt. eigenvalues --    0.97720   1.07957   1.07957   1.33735   1.65271
 Alpha virt. eigenvalues --    1.73088   1.73088   2.13238   2.36045   2.73371

  Beta  occ. eigenvalues --  -24.66483  -1.10650  -0.47739  -0.38902  -0.38902
  Beta virt. eigenvalues --   -0.22384   0.10299   0.20787   0.43586   0.89857
  Beta virt. eigenvalues --    0.89857   1.02732   1.11282   1.11282   1.37667
  Beta virt. eigenvalues --    1.69137   1.75277   1.75277   2.14265   2.41107

 Mulliken charges and spin densities:
               1          2
     1  H    0.196854  -0.059692
     2  H    0.024034   0.405088
     3  F   -0.220888   0.654604
 Sum of Mulliken charges =   0.00000   1.00000

 Dipole moment (field-independent basis, Debye):
    X=             -1.6281    Y=             -0.0000    Z=             -0.0000  Tot=              1.6281
 Quadrupole moment (field-independent basis, Debye-Ang):
   XX=             -7.2872   YY=             -6.8105   ZZ=             -6.8105
   XY=             -0.0000   XZ=             -0.0000   YZ=             -0.0000

  Exact polarizability:      21.603       0.000       2.420      -0.000       0.000       2.420
 Approx polarizability:      29.425      -0.000       2.438      -0.000       0.000       2.438

 ******    1 imaginary frequencies (negative Signs) ******

                      1                      2                      3
                      A                      A                      A
 Frequencies --  -1055.1523               691.4442               691.4442
 Red. masses --      1.0943                 1.0133                 1.0133
 Frc consts  --      0.7178                 0.2854                 0.2854
 IR Inten    --    269.3136                 6.1137                 6.1137

                      4
                      A
 Frequencies --   2354.1241
 Red. masses --      1.0199
 Frc consts  --      3.3302
 IR Inten    --    557.6945

 - Thermochemistry -
 -------------------
 Temperature   298.150 Kelvin.  Pressure   1.00000 Atm.
 Atom     1 has atomic number  1 and mass   1.00783

 Molecular mass:    21.01405 amu.
 Principal axes and moments of inertia in atomic units:
                           1         2         3
     Eigenvalues --     0.00000  21.80312  21.80312
           X            1.00000  -0.00000   0.00000
           Y            0.00000   1.00000   0.00000
           Z            0.00000   0.00000   1.00000
 This molecule is a prolate symmetric top.
 Rotational symmetry number  1.
 Rotational temperature (Kelvin)      3.97255
 Rotational constant (GHZ):          82.774463
    1 imaginary frequencies ignored.
 Zero-point vibrational energy      22352.3 (Joules/Mol)
                                    5.34233 (Kcal/Mol)
 Vibrational temperatures:    994.83   994.83  3387.06
          (Kelvin)

 Zero-point correction=                           0.008514 (Hartree/Particle)
 Thermal correction to Energy=                    0.011106
 Thermal correction to Enthalpy=                  0.012051
 Thermal correction to Gibbs Free Energy=        -0.010588
 Sum of electronic and zero-point Energies=           -100.932687
 Sum of electronic and thermal Energies=              -100.930094
 Sum of electronic and thermal Enthalpies=            -100.929150
 Sum of electronic and thermal Free Energies=         -100.951789

                     E (Thermal)             CV                S
                      KCal/Mol        Cal/Mol-Kelvin    Cal/Mol-Kelvin
 Total                    6.969              6.662             47.647
 Electronic               0.000              0.000              1.377
 Translational            0.889              2.981             35.068
 Rotational               0.592              1.987             10.568
 Vibrational              5.488              1.694              0.633

 Normal termination of Gaussian 16 at Fri Aug 22 16:16:41 2025.
