 Gaussian 16, Revision C.01,
 Gaussian 16:  ES64L-G16RevC.01  3-Jul-2019

 -----------------------------------------
 # sp b3lyp/6-311g** Force nosymm scf=(qc)
 -----------------------------------------

 -------------------
 Title Card Required
 -------------------
 Symbolic Z-matrix:
 Charge =  0 Multiplicity = 2

                          Input orientation:
 ---------------------------------------------------------------------
 Center     Atomic      Atomic             Coordinates (Angstroms)
 Number     Number       Type             X           Y           Z
 ---------------------------------------------------------------------
      1          1           0        0.000000    0.000000    0.000000
      2          1           0       -3.050000    0.000000    0.000000
      3          9           0        2.300000    0.000000    0.000000
 ---------------------------------------------------------------------

 SCF Done:  E(UB3LYP) =  -100.773555201     a.u. after   14 cycles

 Alpha  occ. eigenvalues --  -24.70470  -1.16749  -0.49547  -0.41646  -0.41646
 Alpha  occ. eigenvalues --   -0.33416
 Alpha virt. eigenvalues --   -0.11810   0.23642   0.33820   0.88997   0.94230
 Alpha virt. eigenvalues --    0.94230   1.06406   1.24123   1.24123   1.24878
 Alpha virt. eigenvalues --    1.38451   1.38451   1.48363   2.14755   2.33232

  Beta  occ. eigenvalues --  -24.67758  -1.09070  -0.38951  -0.38951  -0.36245
  Beta virt. eigenvalues --   -0.22485  -0.07856   0.24299   0.36891   0.93377
  Beta virt. eigenvalues --    0.95448   0.95448   1.08535   1.21657   1.21657
  Beta virt. eigenvalues --    1.36936   1.44621   1.44621   1.44811   2.12875

 Mulliken charges and spin densities:
               1          2
     1  H    0.119966  -0.848395
     2  H    0.003555   0.993233
     3  F   -0.123522   0.855162
 Sum of Mulliken charges =   0.00000   1.00000

 Dipole moment (field-independent basis, Debye):
    X=             -1.4840    Y=             -0.0000    Z=              0.0000  Tot=              1.4840
 Quadrupole moment (field-independent basis, Debye-Ang):
   XX=             -9.5012   YY=             -7.5546   ZZ=             -7.5546
   XY=              0.0000   XZ=              0.0000   YZ=             -0.0000

  Exact polarizability:      32.113      -0.000       2.031       0.000       0.000       2.031
 Approx polarizability:      40.890      -0.000       1.923       0.000       0.000       1.923

 ******    2 imaginary frequencies (negative Signs) ******

                      1                      2                      3
                      A                      A                      A
 Frequencies --   -790.2573              -205.4944               322.2590
 Red. masses --      1.0505                 1.0611                 1.0217
 Frc consts  --      0.3865                 0.0264                 0.0625
 IR Inten    --     93.5499                 2.0232                13.1961

                      4
                      A
 Frequencies --    322.2590
 Red. masses --      1.0217
 Frc consts  --      0.0625
 IR Inten    --     13.1961

 - Thermochemistry -
 -------------------
 Temperature   298.150 Kelvin.  Pressure   1.00000 Atm.
 Atom     1 has atomic number  1 and mass   1.00783

 Molecular mass:    21.01405 amu.
 Principal axes and moments of inertia in atomic units:
                           1         2         3
     Eigenvalues --     0.00000 111.94999 111.94999
           X            1.00000  -0.00000   0.00000
           Y            0.00000   1.00000   0.00000
           Z            0.00000   0.00000   1.00000
 This molecule is a prolate symmetric top.
 Rotational symmetry number  1.
 Rotational temperature (Kelvin)      0.77368
 Rotational constant (GHZ):          16.120959
    2 imaginary frequencies ignored.
 Zero-point vibrational energy       3855.1 (Joules/Mol)
                                    0.92138 (Kcal/Mol)
 Warning -- explicit consideration of   2 degrees of freedom as
           vibrations may cause significant error
 Vibrational temperatures:    463.66   463.66
          (Kelvin)

 Zero-point correction=                           0.001468 (Hartree/Particle)
 Thermal correction to Energy=                    0.004615
 Thermal correction to Enthalpy=                  0.005559
 Thermal correction to Gibbs Free Energy=        -0.019557
 Sum of electronic and zero-point Energies=           -100.772087
 Sum of electronic and thermal Energies=              -100.768940
 Sum of electronic and thermal Enthalpies=            -100.767996
 Sum of electronic and thermal Free Energies=         -100.793113

                     E (Thermal)             CV                S
                      KCal/Mol        Cal/Mol-Kelvin    Cal/Mol-Kelvin
 Total                    2.896              8.230             52.862
 Electronic               0.000              0.000              1.377
 Translational            0.889              2.981             35.068
 Rotational               0.592              1.987             13.819
 Vibrational              1.415              3.262              2.597
 Vibration     1          0.707              1.631              1.299
 Vibration     2          0.707              1.631              1.299

 Normal termination of Gaussian 16 at Fri Aug 22 17:22:51 2025.
