 Gaussian 16, Revision C.01,
 Gaussian 16:  ES64L-G16RevC.01  3-Jul-2019

 -----------------------------------------
 # sp b3lyp/6-311g** Force nosymm scf=(qc)
 -----------------------------------------

 -------------------
 Title Card Required
 -------------------
 Symbolic Z-matrix:
 Charge =  0 Multiplicity = 2

                          Input orientation:
 ---------------------------------------------------------------------
 Center     Atomic      Atomic             Coordinates (Angstroms)
 Number     Number       Type             X           Y           Z
 ---------------------------------------------------------------------
      1          1           0        0.000000    0.000000    0.000000
      2          1           0       -2.950000    0.000000    0.000000
      3          9           0        3.750000    0.000000    0.000000
 ---------------------------------------------------------------------

 SCF Done:  E(UB3LYP) =  -100.759819030     a.u. after   31 cycles

 Alpha  occ. eigenvalues --  -24.75724  -1.21662  -0.54848  -0.46052  -0.46052
 Alpha  occ. eigenvalues --   -0.32391
 Alpha virt. eigenvalues --   -0.07934   0.25110   0.36148   0.86954   0.91268
 Alpha virt. eigenvalues --    0.91268   1.01320   1.25151   1.25151   1.25953
 Alpha virt. eigenvalues --    1.44033   1.44033   1.44071   2.15845   2.39353

  Beta  occ. eigenvalues --  -24.72589  -1.12649  -0.42909  -0.42909  -0.32650
  Beta virt. eigenvalues --   -0.25659  -0.07608   0.24917   0.36630   0.92764
  Beta virt. eigenvalues --    0.92764   0.96243   1.05411   1.24859   1.24859
  Beta virt. eigenvalues --    1.25634   1.44536   1.44536   1.44574   2.15981

 Mulliken charges and spin densities:
               1          2
     1  H    0.004897  -0.985340
     2  H    0.000455   0.991308
     3  F   -0.005352   0.994032
 Sum of Mulliken charges =   0.00000   1.00000

 Dipole moment (field-independent basis, Debye):
    X=             -0.1099    Y=             -0.0000    Z=              0.0000  Tot=              0.1099
 Quadrupole moment (field-independent basis, Debye-Ang):
   XX=             -7.0052   YY=             -7.6380   ZZ=             -7.6380
   XY=              0.0000   XZ=             -0.0000   YZ=              0.0000

  Exact polarizability:      19.555       0.000       2.026       0.000       0.000       2.026
 Approx polarizability:      14.458       0.000       1.933      -0.000      -0.000       1.933

 ******    2 imaginary frequencies (negative Signs) ******

                      1                      2                      3
                      A                      A                      A
 Frequencies --   -364.5994              -100.1476               129.0154
 Red. masses --      1.0085                 1.1077                 1.0153
 Frc consts  --      0.0790                 0.0065                 0.0100
 IR Inten    --      2.3272                 1.8835                 0.0212

                      4
                      A
 Frequencies --    129.0154
 Red. masses --      1.0153
 Frc consts  --      0.0100
 IR Inten    --      0.0212

 - Thermochemistry -
 -------------------
 Temperature   298.150 Kelvin.  Pressure   1.00000 Atm.
 Atom     1 has atomic number  1 and mass   1.00783

 Molecular mass:    21.01405 amu.
 Principal axes and moments of inertia in atomic units:
                           1         2         3
     Eigenvalues --     0.00000 193.32144 193.32144
           X            1.00000  -0.00000   0.00000
           Y            0.00000   1.00000   0.00000
           Z            0.00000   0.00000   1.00000
 This molecule is a prolate symmetric top.
 Rotational symmetry number  1.
 Rotational temperature (Kelvin)      0.44803
 Rotational constant (GHZ):           9.335442
    2 imaginary frequencies ignored.
 Zero-point vibrational energy       1543.4 (Joules/Mol)
                                    0.36887 (Kcal/Mol)
 Warning -- explicit consideration of   2 degrees of freedom as
           vibrations may cause significant error
 Vibrational temperatures:    185.62   185.62
          (Kelvin)

 Zero-point correction=                           0.000588 (Hartree/Particle)
 Thermal correction to Energy=                    0.004309
 Thermal correction to Enthalpy=                  0.005254
 Thermal correction to Gibbs Free Energy=        -0.021958
 Sum of electronic and zero-point Energies=           -100.759231
 Sum of electronic and thermal Energies=              -100.755510
 Sum of electronic and thermal Enthalpies=            -100.754565
 Sum of electronic and thermal Free Energies=         -100.781777

                     E (Thermal)             CV                S
                      KCal/Mol        Cal/Mol-Kelvin    Cal/Mol-Kelvin
 Total                    2.704              8.816             57.272
 Electronic               0.000              0.000              1.377
 Translational            0.889              2.981             35.068
 Rotational               0.592              1.987             14.905
 Vibrational              1.223              3.848              5.921
 Vibration     1          0.612              1.924              2.961
 Vibration     2          0.612              1.924              2.961

 Normal termination of Gaussian 16 at Sat Aug 23 00:26:51 2025.
