 Gaussian 16, Revision C.01,
 Gaussian 16:  ES64L-G16RevC.01  3-Jul-2019

 -----------------------------------------
 # sp b3lyp/6-311g** Force nosymm scf=(qc)
 -----------------------------------------

 -------------------
 Title Card Required
 -------------------
 Symbolic Z-matrix:
 Charge =  0 Multiplicity = 2

                          Input orientation:
 ---------------------------------------------------------------------
 Center     Atomic      Atomic             Coordinates (Angstroms)
 Number     Number       Type             X           Y           Z
 ---------------------------------------------------------------------
      1          1           0        0.000000    0.000000    0.000000
      2          1           0       -2.050000    0.000000    0.000000
      3          9           0        0.700000    0.000000    0.000000
 ---------------------------------------------------------------------

 SCF Done:  E(UB3LYP) =  -100.874584328     a.u. after    6 cycles

 Alpha  occ. eigenvalues --  -24.63087  -1.28141  -0.58636  -0.41660  -0.41660
 Alpha  occ. eigenvalues --   -0.35232
 Alpha virt. eigenvalues --    0.09842   0.24525   0.50249   0.93571   0.93571
 Alpha virt. eigenvalues --    0.96037   1.16506   1.22220   1.22220   1.44223
 Alpha virt. eigenvalues --    1.44223   1.53834   1.97419   2.17435   2.87061

  Beta  occ. eigenvalues --  -24.63058  -1.28057  -0.58499  -0.41639  -0.41639
  Beta virt. eigenvalues --   -0.10246   0.11382   0.35702   0.50659   0.93570
  Beta virt. eigenvalues --    0.93570   0.96233   1.26483   1.41778   1.41778
  Beta virt. eigenvalues --    1.44935   1.44935   1.62978   2.00186   2.42357

 Mulliken charges and spin densities:
               1          2
     1  H    0.249328   0.008510
     2  H    0.009353   0.985381
     3  F   -0.258681   0.006110
 Sum of Mulliken charges =   0.00000   1.00000

 Dipole moment (field-independent basis, Debye):
    X=             -1.6727    Y=              0.0000    Z=              0.0000  Tot=              1.6727
 Quadrupole moment (field-independent basis, Debye-Ang):
   XX=             -7.0275   YY=             -6.6342   ZZ=             -6.6342
   XY=              0.0000   XZ=              0.0000   YZ=              0.0000

  Exact polarizability:       6.421       0.000       2.496       0.000       0.000       2.496
 Approx polarizability:       6.381      -0.000       2.487      -0.000       0.000       2.487

 ******    2 imaginary frequencies (negative Signs) ******

                      1                      2                      3
                      A                      A                      A
 Frequencies --  -3504.2502             -3504.2502               305.8416
 Red. masses --      1.0342                 1.0342                 1.0533
 Frc consts  --      7.4825                 7.4825                 0.0580
 IR Inten    --    182.5370               182.5370                 0.1685

                      4
                      A
 Frequencies --   9069.6949
 Red. masses --      1.0583
 Frc consts  --     51.2907
 IR Inten    --    138.2720

 - Thermochemistry -
 -------------------
 Temperature   298.150 Kelvin.  Pressure   1.00000 Atm.
 Atom     1 has atomic number  1 and mass   1.00783

 Molecular mass:    21.01405 amu.
 Principal axes and moments of inertia in atomic units:
                           1         2         3
     Eigenvalues --     0.00000  26.92656  26.92656
           X            1.00000  -0.00000   0.00000
           Y            0.00000   1.00000   0.00000
           Z            0.00000   0.00000   1.00000
 This molecule is a prolate symmetric top.
 Rotational symmetry number  1.
 Rotational temperature (Kelvin)      3.21667
 Rotational constant (GHZ):          67.024568
    2 imaginary frequencies ignored.
 Zero-point vibrational energy      56078.2 (Joules/Mol)
                                   13.40300 (Kcal/Mol)
 Warning -- explicit consideration of   1 degrees of freedom as
           vibrations may cause significant error
 Vibrational temperatures:    440.04 13049.27
          (Kelvin)

 Zero-point correction=                           0.021359 (Hartree/Particle)
 Thermal correction to Energy=                    0.024132
 Thermal correction to Enthalpy=                  0.025077
 Thermal correction to Gibbs Free Energy=         0.001882
 Sum of electronic and zero-point Energies=           -100.853225
 Sum of electronic and thermal Energies=              -100.850452
 Sum of electronic and thermal Enthalpies=            -100.849508
 Sum of electronic and thermal Free Energies=         -100.872703

                     E (Thermal)             CV                S
                      KCal/Mol        Cal/Mol-Kelvin    Cal/Mol-Kelvin
 Total                   15.143              6.631             48.818
 Electronic               0.000              0.000              1.377
 Translational            0.889              2.981             35.068
 Rotational               0.592              1.987             10.988
 Vibrational             13.662              1.663              1.385
 Vibration     1          0.696              1.663              1.385

 Normal termination of Gaussian 16 at Fri Aug 22 15:46:27 2025.
