 Gaussian 16, Revision C.01,
 Gaussian 16:  ES64L-G16RevC.01  3-Jul-2019

 -----------------------------------------
 # sp b3lyp/6-311g** Force nosymm scf=(qc)
 -----------------------------------------

 -------------------
 Title Card Required
 -------------------
 Symbolic Z-matrix:
 Charge =  0 Multiplicity = 2

                          Input orientation:
 ---------------------------------------------------------------------
 Center     Atomic      Atomic             Coordinates (Angstroms)
 Number     Number       Type             X           Y           Z
 ---------------------------------------------------------------------
      1          1           0        0.000000    0.000000    0.000000
      2          1           0       -0.750000    0.000000    0.000000
      3          9           0        3.600000    0.000000    0.000000
 ---------------------------------------------------------------------

 SCF Done:  E(UB3LYP) =  -100.933880589     a.u. after  315 cycles

 Alpha  occ. eigenvalues --  -24.76303  -1.22171  -0.55372  -0.46563  -0.46526
 Alpha  occ. eigenvalues --   -0.43155
 Alpha virt. eigenvalues --    0.05763   0.19799   0.46481   0.86027   0.90903
 Alpha virt. eigenvalues --    0.92534   1.01671   1.08531   1.08534   1.55132
 Alpha virt. eigenvalues --    1.82384   1.82387   1.96825   2.38020   3.28218

  Beta  occ. eigenvalues --  -24.73146  -1.13093  -0.43477  -0.43361  -0.43075
  Beta virt. eigenvalues --   -0.26013   0.05776   0.19807   0.46530   0.92403
  Beta virt. eigenvalues --    0.94045   0.95491   1.05744   1.08530   1.08533
  Beta virt. eigenvalues --    1.55137   1.82384   1.82387   1.96841   2.38022

 Mulliken charges and spin densities:
               1          2
     1  H   -0.001178  -0.000371
     2  H   -0.002076   0.000002
     3  F    0.003254   1.000369
 Sum of Mulliken charges =   0.00000   1.00000

 Dipole moment (field-independent basis, Debye):
    X=              0.0408    Y=             -0.0000    Z=              0.0000  Tot=              0.0408
 Quadrupole moment (field-independent basis, Debye-Ang):
   XX=             -6.2214   YY=             -6.9530   ZZ=             -6.0887
   XY=              0.0000   XZ=             -0.0000   YZ=              0.0032

  Exact polarizability:       8.234      -0.000       1.957      -0.000       0.002       2.422
 Approx polarizability:       9.494      -0.000       2.033      -0.000       0.002       2.615

 ******    1 imaginary frequencies (negative Signs) ******

                      1                      2                      3
                      A                      A                      A
 Frequencies --    -48.6381               409.8892               412.4962
 Red. masses --      1.1085                 1.0087                 1.0087
 Frc consts  --      0.0015                 0.0999                 0.1011
 IR Inten    --      0.1159                 0.0005                 0.0004

                      4
                      A
 Frequencies --   4337.1092
 Red. masses --      1.0078
 Frc consts  --     11.1696
 IR Inten    --      0.0516

 - Thermochemistry -
 -------------------
 Temperature   298.150 Kelvin.  Pressure   1.00000 Atm.
 Atom     1 has atomic number  1 and mass   1.00783

 Molecular mass:    21.01405 amu.
 Principal axes and moments of inertia in atomic units:
                           1         2         3
     Eigenvalues --     0.00000 103.83620 103.83620
           X            1.00000  -0.00000   0.00000
           Y            0.00000   1.00000   0.00000
           Z            0.00000   0.00000   1.00000
 This molecule is a prolate symmetric top.
 Rotational symmetry number  1.
 Rotational temperature (Kelvin)      0.83414
 Rotational constant (GHZ):          17.380655
    1 imaginary frequencies ignored.
 Zero-point vibrational energy      30860.6 (Joules/Mol)
                                    7.37587 (Kcal/Mol)
 Warning -- explicit consideration of   2 degrees of freedom as
           vibrations may cause significant error
 Vibrational temperatures:    589.74   593.49  6240.13
          (Kelvin)

 Zero-point correction=                           0.011754 (Hartree/Particle)
 Thermal correction to Energy=                    0.014712
 Thermal correction to Enthalpy=                  0.015656
 Thermal correction to Gibbs Free Energy=        -0.009032
 Sum of electronic and zero-point Energies=           -100.922126
 Sum of electronic and thermal Energies=              -100.919169
 Sum of electronic and thermal Enthalpies=            -100.918224
 Sum of electronic and thermal Free Energies=         -100.942912

                     E (Thermal)             CV                S
                      KCal/Mol        Cal/Mol-Kelvin    Cal/Mol-Kelvin
 Total                    9.232              7.860             51.960
 Electronic               0.000              0.000              1.377
 Translational            0.889              2.981             35.068
 Rotational               0.592              1.987             13.670
 Vibrational              7.751              2.892              1.845
 Vibration     1          0.774              1.449              0.927
 Vibration     2          0.776              1.443              0.918

 Normal termination of Gaussian 16 at Fri Aug 22 22:47:22 2025.
