 Gaussian 16, Revision C.01,
 Gaussian 16:  ES64L-G16RevC.01  3-Jul-2019

 -----------------------------------------
 # sp b3lyp/6-311g** Force nosymm scf=(qc)
 -----------------------------------------

 -------------------
 Title Card Required
 -------------------
 Symbolic Z-matrix:
 Charge =  0 Multiplicity = 2

                          Input orientation:
 ---------------------------------------------------------------------
 Center     Atomic      Atomic             Coordinates (Angstroms)
 Number     Number       Type             X           Y           Z
 ---------------------------------------------------------------------
      1          1           0        0.000000    0.000000    0.000000
      2          1           0       -1.350000    0.000000    0.000000
      3          9           0        2.400000    0.000000    0.000000
 ---------------------------------------------------------------------

 SCF Done:  E(UB3LYP) =  -100.847814344     a.u. after   19 cycles

 Alpha  occ. eigenvalues --  -24.73866  -1.19961  -0.53117  -0.44524  -0.44524
 Alpha  occ. eigenvalues --   -0.36796
 Alpha virt. eigenvalues --   -0.08133   0.23082   0.32517   0.88614   0.92201
 Alpha virt. eigenvalues --    0.92201   1.05855   1.14639   1.14639   1.18676
 Alpha virt. eigenvalues --    1.45334   1.45334   1.92422   2.25159   2.51087

  Beta  occ. eigenvalues --  -24.70896  -1.11477  -0.41558  -0.41558  -0.36370
  Beta virt. eigenvalues --   -0.25298  -0.07258   0.23734   0.32946   0.93608
  Beta virt. eigenvalues --    0.93608   0.95872   1.08495   1.15251   1.15251
  Beta virt. eigenvalues --    1.21702   1.45835   1.45835   1.93120   2.25999

 Mulliken charges and spin densities:
               1          2
     1  H    0.012759  -0.128482
     2  H    0.036852   0.190723
     3  F   -0.049611   0.937759
 Sum of Mulliken charges =   0.00000   1.00000

 Dipole moment (field-independent basis, Debye):
    X=             -0.8343    Y=             -0.0000    Z=              0.0000  Tot=              0.8343
 Quadrupole moment (field-independent basis, Debye-Ang):
   XX=             -6.5590   YY=             -7.5752   ZZ=             -7.5752
   XY=             -0.0000   XZ=              0.0000   YZ=             -0.0000

  Exact polarizability:      49.489      -0.000       2.096       0.000      -0.000       2.096
 Approx polarizability:      68.649       0.000       2.085      -0.000       0.000       2.085

 ******    2 imaginary frequencies (negative Signs) ******

                      1                      2                      3
                      A                      A                      A
 Frequencies --  -1533.7498              -265.2116              1301.9738
 Red. masses --      1.0097                 1.1063                 1.0125
 Frc consts  --      1.3994                 0.0458                 1.0112
 IR Inten    --    699.8377                15.6115                 0.0061

                      4
                      A
 Frequencies --   1301.9738
 Red. masses --      1.0125
 Frc consts  --      1.0112
 IR Inten    --      0.0061

 - Thermochemistry -
 -------------------
 Temperature   298.150 Kelvin.  Pressure   1.00000 Atm.
 Atom     1 has atomic number  1 and mass   1.00783

 Molecular mass:    21.01405 amu.
 Principal axes and moments of inertia in atomic units:
                           1         2         3
     Eigenvalues --     0.00000  64.81292  64.81292
           X            1.00000  -0.00000   0.00000
           Y            0.00000   1.00000   0.00000
           Z            0.00000   0.00000   1.00000
 This molecule is a prolate symmetric top.
 Rotational symmetry number  1.
 Rotational temperature (Kelvin)      1.33637
 Rotational constant (GHZ):          27.845392
    2 imaginary frequencies ignored.
 Zero-point vibrational energy      15575.1 (Joules/Mol)
                                    3.72253 (Kcal/Mol)
 Vibrational temperatures:   1873.25  1873.25
          (Kelvin)

 Zero-point correction=                           0.005932 (Hartree/Particle)
 Thermal correction to Energy=                    0.008315
 Thermal correction to Enthalpy=                  0.009259
 Thermal correction to Gibbs Free Energy=        -0.014133
 Sum of electronic and zero-point Energies=           -100.841882
 Sum of electronic and thermal Energies=              -100.839499
 Sum of electronic and thermal Enthalpies=            -100.838555
 Sum of electronic and thermal Free Energies=         -100.861947

                     E (Thermal)             CV                S
                      KCal/Mol        Cal/Mol-Kelvin    Cal/Mol-Kelvin
 Total                    5.218              5.262             49.233
 Electronic               0.000              0.000              1.377
 Translational            0.889              2.981             35.068
 Rotational               0.592              1.987             12.733
 Vibrational              3.736              0.294              0.054

 Normal termination of Gaussian 16 at Fri Aug 22 17:31:29 2025.
