 Gaussian 16, Revision C.01,
 Gaussian 16:  ES64L-G16RevC.01  3-Jul-2019

 -----------------------------------------
 # sp b3lyp/6-311g** Force nosymm scf=(qc)
 -----------------------------------------

 -------------------
 Title Card Required
 -------------------
 Symbolic Z-matrix:
 Charge =  0 Multiplicity = 2

                          Input orientation:
 ---------------------------------------------------------------------
 Center     Atomic      Atomic             Coordinates (Angstroms)
 Number     Number       Type             X           Y           Z
 ---------------------------------------------------------------------
      1          1           0        0.000000    0.000000    0.000000
      2          1           0       -2.800000    0.000000    0.000000
      3          9           0        1.000000    0.000000    0.000000
 ---------------------------------------------------------------------

 SCF Done:  E(UB3LYP) =  -100.966357856     a.u. after    6 cycles

 Alpha  occ. eigenvalues --  -24.64125  -1.16008  -0.51625  -0.38751  -0.38751
 Alpha  occ. eigenvalues --   -0.34489
 Alpha virt. eigenvalues --    0.01112   0.25033   0.34176   0.94088   0.94088
 Alpha virt. eigenvalues --    0.98599   1.21935   1.23051   1.23051   1.33464
 Alpha virt. eigenvalues --    1.35983   1.35983   1.90737   2.14346   2.34309

  Beta  occ. eigenvalues --  -24.64114  -1.15981  -0.51585  -0.38741  -0.38741
  Beta virt. eigenvalues --   -0.08464   0.02573   0.34172   0.37965   0.94090
  Beta virt. eigenvalues --    0.94090   0.98610   1.30214   1.35970   1.35970
  Beta virt. eigenvalues --    1.46477   1.46477   1.49164   1.90950   2.34203

 Mulliken charges and spin densities:
               1          2
     1  H    0.317382   0.001828
     2  H    0.004026   0.994683
     3  F   -0.321408   0.003489
 Sum of Mulliken charges =   0.00000   1.00000

 Dipole moment (field-independent basis, Debye):
    X=             -2.0810    Y=             -0.0000    Z=              0.0000  Tot=              2.0810
 Quadrupole moment (field-independent basis, Debye-Ang):
   XX=             -8.0728   YY=             -6.9599   ZZ=             -6.9599
   XY=             -0.0000   XZ=              0.0000   YZ=             -0.0000

  Exact polarizability:       7.986       0.000       2.414      -0.000       0.000       2.414
 Approx polarizability:       9.331      -0.000       2.389      -0.000       0.000       2.389

 ******    1 imaginary frequencies (negative Signs) ******

                      1                      2                      3
                      A                      A                      A
 Frequencies --    -83.8461               972.4444               972.4444
 Red. masses --      1.0530                 1.0335                 1.0335
 Frc consts  --      0.0044                 0.5758                 0.5758
 IR Inten    --      0.4616               160.8097               160.8097

                      4
                      A
 Frequencies --   3020.9647
 Red. masses --      1.0585
 Frc consts  --      5.6916
 IR Inten    --    107.6353

 - Thermochemistry -
 -------------------
 Temperature   298.150 Kelvin.  Pressure   1.00000 Atm.
 Atom     1 has atomic number  1 and mass   1.00783

 Molecular mass:    21.01405 amu.
 Principal axes and moments of inertia in atomic units:
                           1         2         3
     Eigenvalues --     0.00000  51.59183  51.59183
           X            1.00000  -0.00000   0.00000
           Y            0.00000   1.00000   0.00000
           Z            0.00000   0.00000   1.00000
 This molecule is a prolate symmetric top.
 Rotational symmetry number  1.
 Rotational temperature (Kelvin)      1.67883
 Rotational constant (GHZ):          34.981144
    1 imaginary frequencies ignored.
 Zero-point vibrational energy      29702.4 (Joules/Mol)
                                    7.09904 (Kcal/Mol)
 Vibrational temperatures:   1399.13  1399.13  4346.49
          (Kelvin)

 Zero-point correction=                           0.011313 (Hartree/Particle)
 Thermal correction to Energy=                    0.013755
 Thermal correction to Enthalpy=                  0.014700
 Thermal correction to Gibbs Free Energy=        -0.008551
 Sum of electronic and zero-point Energies=           -100.955045
 Sum of electronic and thermal Energies=              -100.952602
 Sum of electronic and thermal Enthalpies=            -100.951658
 Sum of electronic and thermal Free Energies=         -100.974909

                     E (Thermal)             CV                S
                      KCal/Mol        Cal/Mol-Kelvin    Cal/Mol-Kelvin
 Total                    8.632              5.785             48.934
 Electronic               0.000              0.000              1.377
 Translational            0.889              2.981             35.068
 Rotational               0.592              1.987             12.280
 Vibrational              7.150              0.817              0.209

 Normal termination of Gaussian 16 at Fri Aug 22 16:01:05 2025.
