 Gaussian 16, Revision C.01,
 Gaussian 16:  ES64L-G16RevC.01  3-Jul-2019

 -----------------------------------------
 # sp b3lyp/6-311g** Force nosymm scf=(qc)
 -----------------------------------------

 -------------------
 Title Card Required
 -------------------
 Symbolic Z-matrix:
 Charge =  0 Multiplicity = 2

                          Input orientation:
 ---------------------------------------------------------------------
 Center     Atomic      Atomic             Coordinates (Angstroms)
 Number     Number       Type             X           Y           Z
 ---------------------------------------------------------------------
      1          1           0        0.000000    0.000000    0.000000
      2          1           0       -2.950000    0.000000    0.000000
      3          9           0        2.350000    0.000000    0.000000
 ---------------------------------------------------------------------

 SCF Done:  E(UB3LYP) =  -100.772254876     a.u. after   24 cycles

 Alpha  occ. eigenvalues --  -24.70805  -1.17068  -0.49889  -0.41926  -0.41926
 Alpha  occ. eigenvalues --   -0.33444
 Alpha virt. eigenvalues --   -0.11666   0.23909   0.33834   0.89273   0.94083
 Alpha virt. eigenvalues --    0.94083   1.06515   1.24106   1.24106   1.25144
 Alpha virt. eigenvalues --    1.38782   1.38782   1.46876   2.14882   2.33458

  Beta  occ. eigenvalues --  -24.68056  -1.09273  -0.39192  -0.39192  -0.36002
  Beta virt. eigenvalues --   -0.22724  -0.08108   0.24620   0.36534   0.94312
  Beta virt. eigenvalues --    0.95350   0.95350   1.08692   1.21767   1.21767
  Beta virt. eigenvalues --    1.34870   1.44223   1.44223   1.44518   2.13248

 Mulliken charges and spin densities:
               1          2
     1  H    0.109879  -0.858625
     2  H    0.004312   0.991296
     3  F   -0.114191   0.867329
 Sum of Mulliken charges =   0.00000   1.00000

 Dipole moment (field-independent basis, Debye):
    X=             -1.4172    Y=              0.0000    Z=             -0.0000  Tot=              1.4172
 Quadrupole moment (field-independent basis, Debye-Ang):
   XX=             -9.3795   YY=             -7.5656   ZZ=             -7.5656
   XY=              0.0000   XZ=             -0.0000   YZ=             -0.0000

  Exact polarizability:      33.685       0.000       2.027      -0.000      -0.000       2.027
 Approx polarizability:      41.679       0.000       1.921      -0.000       0.000       1.921

 ******    2 imaginary frequencies (negative Signs) ******

                      1                      2                      3
                      A                      A                      A
 Frequencies --   -760.6297              -230.1767               307.2612
 Red. masses --      1.0470                 1.0647                 1.0209
 Frc consts  --      0.3569                 0.0332                 0.0568
 IR Inten    --     87.5137                 3.3888                10.9514

                      4
                      A
 Frequencies --    307.2612
 Red. masses --      1.0209
 Frc consts  --      0.0568
 IR Inten    --     10.9514

 - Thermochemistry -
 -------------------
 Temperature   298.150 Kelvin.  Pressure   1.00000 Atm.
 Atom     1 has atomic number  1 and mass   1.00783

 Molecular mass:    21.01405 amu.
 Principal axes and moments of inertia in atomic units:
                           1         2         3
     Eigenvalues --     0.00000 110.87029 110.87029
           X            1.00000  -0.00000   0.00000
           Y            0.00000   1.00000   0.00000
           Z            0.00000   0.00000   1.00000
 This molecule is a prolate symmetric top.
 Rotational symmetry number  1.
 Rotational temperature (Kelvin)      0.78122
 Rotational constant (GHZ):          16.277952
    2 imaginary frequencies ignored.
 Zero-point vibrational energy       3675.7 (Joules/Mol)
                                    0.87850 (Kcal/Mol)
 Warning -- explicit consideration of   2 degrees of freedom as
           vibrations may cause significant error
 Vibrational temperatures:    442.08   442.08
          (Kelvin)

 Zero-point correction=                           0.001400 (Hartree/Particle)
 Thermal correction to Energy=                    0.004583
 Thermal correction to Enthalpy=                  0.005527
 Thermal correction to Gibbs Free Energy=        -0.019655
 Sum of electronic and zero-point Energies=           -100.770855
 Sum of electronic and thermal Energies=              -100.767672
 Sum of electronic and thermal Enthalpies=            -100.766728
 Sum of electronic and thermal Free Energies=         -100.791910

                     E (Thermal)             CV                S
                      KCal/Mol        Cal/Mol-Kelvin    Cal/Mol-Kelvin
 Total                    2.876              8.288             53.000
 Electronic               0.000              0.000              1.377
 Translational            0.889              2.981             35.068
 Rotational               0.592              1.987             13.800
 Vibrational              1.395              3.320              2.754
 Vibration     1          0.697              1.660              1.377
 Vibration     2          0.697              1.660              1.377

 Normal termination of Gaussian 16 at Fri Aug 22 17:27:14 2025.
