 Gaussian 16, Revision C.01,
 Gaussian 16:  ES64L-G16RevC.01  3-Jul-2019

 -----------------------------------------
 # sp b3lyp/6-311g** Force nosymm scf=(qc)
 -----------------------------------------

 -------------------
 Title Card Required
 -------------------
 Symbolic Z-matrix:
 Charge =  0 Multiplicity = 2

                          Input orientation:
 ---------------------------------------------------------------------
 Center     Atomic      Atomic             Coordinates (Angstroms)
 Number     Number       Type             X           Y           Z
 ---------------------------------------------------------------------
      1          1           0        0.000000    0.000000    0.000000
      2          1           0       -1.250000    0.000000    0.000000
      3          9           0        3.350000    0.000000    0.000000
 ---------------------------------------------------------------------

 SCF Done:  E(UB3LYP) =  -100.862944501     a.u. after  237 cycles

 Alpha  occ. eigenvalues --  -24.76461  -1.22319  -0.55516  -0.46722  -0.46669
 Alpha  occ. eigenvalues --   -0.35736
 Alpha virt. eigenvalues --   -0.05066   0.23234   0.33420   0.85899   0.90774
 Alpha virt. eigenvalues --    0.92555   1.01807   1.14162   1.14165   1.18870
 Alpha virt. eigenvalues --    1.51917   1.51921   2.03380   2.30517   2.54177

  Beta  occ. eigenvalues --  -24.73303  -1.13239  -0.43558  -0.43503  -0.35732
  Beta virt. eigenvalues --   -0.26153  -0.05059   0.23246   0.33464   0.92274
  Beta virt. eigenvalues --    0.94086   0.95361   1.05863   1.14161   1.14165
  Beta virt. eigenvalues --    1.18881   1.51917   1.51921   2.03388   2.30519

 Mulliken charges and spin densities:
               1          2
     1  H   -0.000219  -0.000142
     2  H   -0.003914  -0.000359
     3  F    0.004133   1.000502
 Sum of Mulliken charges =   0.00000   1.00000

 Dipole moment (field-independent basis, Debye):
    X=              0.0625    Y=              0.0000    Z=              0.0000  Tot=              0.0625
 Quadrupole moment (field-independent basis, Debye-Ang):
   XX=             -6.2229   YY=             -7.1151   ZZ=             -7.1167
   XY=             -0.0000   XZ=             -0.0000   YZ=              0.4321

  Exact polarizability:      17.235      -0.000       2.309      -0.000       0.232       2.308
 Approx polarizability:      26.809      -0.000       2.389      -0.000       0.291       2.388

 ******    2 imaginary frequencies (negative Signs) ******

                      1                      2                      3
                      A                      A                      A
 Frequencies --   -789.1369               -32.6390              1434.1961
 Red. masses --      1.0078                 1.1085                 1.0103
 Frc consts  --      0.3698                 0.0007                 1.2243
 IR Inten    --      0.3092                 0.2382                 0.0014

                      4
                      A
 Frequencies --   1434.2136
 Red. masses --      1.0103
 Frc consts  --      1.2244
 IR Inten    --      0.0012

 - Thermochemistry -
 -------------------
 Temperature   298.150 Kelvin.  Pressure   1.00000 Atm.
 Atom     1 has atomic number  1 and mass   1.00783

 Molecular mass:    21.01405 amu.
 Principal axes and moments of inertia in atomic units:
                           1         2         3
     Eigenvalues --     0.00000 105.63571 105.63571
           X            1.00000  -0.00000   0.00000
           Y            0.00000   1.00000   0.00000
           Z            0.00000   0.00000   1.00000
 This molecule is a prolate symmetric top.
 Rotational symmetry number  1.
 Rotational temperature (Kelvin)      0.81993
 Rotational constant (GHZ):          17.084576
    2 imaginary frequencies ignored.
 Zero-point vibrational energy      17156.9 (Joules/Mol)
                                    4.10060 (Kcal/Mol)
 Vibrational temperatures:   2063.49  2063.51
          (Kelvin)

 Zero-point correction=                           0.006535 (Hartree/Particle)
 Thermal correction to Energy=                    0.008908
 Thermal correction to Enthalpy=                  0.009852
 Thermal correction to Gibbs Free Energy=        -0.013990
 Sum of electronic and zero-point Energies=           -100.856410
 Sum of electronic and thermal Energies=              -100.854036
 Sum of electronic and thermal Enthalpies=            -100.853092
 Sum of electronic and thermal Free Energies=         -100.876935

                     E (Thermal)             CV                S
                      KCal/Mol        Cal/Mol-Kelvin    Cal/Mol-Kelvin
 Total                    5.590              5.156             50.181
 Electronic               0.000              0.000              1.377
 Translational            0.889              2.981             35.068
 Rotational               0.592              1.987             13.704
 Vibrational              4.109              0.188              0.031

 Normal termination of Gaussian 16 at Fri Aug 22 20:56:01 2025.
