 Gaussian 16, Revision C.01,
 Gaussian 16:  ES64L-G16RevC.01  3-Jul-2019

 -----------------------------------------
 # sp b3lyp/6-311g** Force nosymm scf=(qc)
 -----------------------------------------

 -------------------
 Title Card Required
 -------------------
 Symbolic Z-matrix:
 Charge =  0 Multiplicity = 2

                          Input orientation:
 ---------------------------------------------------------------------
 Center     Atomic      Atomic             Coordinates (Angstroms)
 Number     Number       Type             X           Y           Z
 ---------------------------------------------------------------------
      1          1           0        0.000000    0.000000    0.000000
      2          1           0       -1.500000    0.000000    0.000000
      3          9           0        2.750000    0.000000    0.000000
 ---------------------------------------------------------------------

 SCF Done:  E(UB3LYP) =  -100.821687257     a.u. after   22 cycles

 Alpha  occ. eigenvalues --  -24.74594  -1.20623  -0.53747  -0.45120  -0.45120
 Alpha  occ. eigenvalues --   -0.35091
 Alpha virt. eigenvalues --   -0.10465   0.24134   0.30577   0.89894   0.91900
 Alpha virt. eigenvalues --    0.91900   1.04749   1.08470   1.18913   1.18913
 Alpha virt. eigenvalues --    1.40405   1.40405   1.80915   2.21011   2.46873

  Beta  occ. eigenvalues --  -24.71557  -1.11917  -0.42080  -0.42080  -0.34774
  Beta virt. eigenvalues --   -0.25415  -0.10010   0.24757   0.30850   0.93353
  Beta virt. eigenvalues --    0.93353   0.97985   1.06505   1.11621   1.19274
  Beta virt. eigenvalues --    1.19274   1.40714   1.40714   1.81397   2.21767

 Mulliken charges and spin densities:
               1          2
     1  H    0.004737  -0.272448
     2  H    0.026612   0.310847
     3  F   -0.031348   0.961601
 Sum of Mulliken charges =   0.00000   1.00000

 Dipole moment (field-independent basis, Debye):
    X=             -0.6277    Y=              0.0000    Z=              0.0000  Tot=              0.6277
 Quadrupole moment (field-independent basis, Debye-Ang):
   XX=             -6.4336   YY=             -7.7056   ZZ=             -7.7056
   XY=              0.0000   XZ=              0.0000   YZ=             -0.0000

  Exact polarizability:      55.482       0.000       2.053       0.000       0.000       2.053
 Approx polarizability:      73.549       0.000       2.030       0.000       0.000       2.030

 ******    2 imaginary frequencies (negative Signs) ******

                      1                      2                      3
                      A                      A                      A
 Frequencies --  -2030.2477              -233.0540              1167.2963
 Red. masses --      1.0081                 1.1082                 1.0123
 Frc consts  --      2.4482                 0.0355                 0.8127
 IR Inten    --    481.2469                22.9346                 0.0185

                      4
                      A
 Frequencies --   1167.2963
 Red. masses --      1.0123
 Frc consts  --      0.8127
 IR Inten    --      0.0185

 - Thermochemistry -
 -------------------
 Temperature   298.150 Kelvin.  Pressure   1.00000 Atm.
 Atom     1 has atomic number  1 and mass   1.00783

 Molecular mass:    21.01405 amu.
 Principal axes and moments of inertia in atomic units:
                           1         2         3
     Eigenvalues --     0.00000  83.76686  83.76686
           X            1.00000  -0.00000   0.00000
           Y            0.00000   1.00000   0.00000
           Z            0.00000   0.00000   1.00000
 This molecule is a prolate symmetric top.
 Rotational symmetry number  1.
 Rotational temperature (Kelvin)      1.03399
 Rotational constant (GHZ):          21.544813
    2 imaginary frequencies ignored.
 Zero-point vibrational energy      13964.0 (Joules/Mol)
                                    3.33747 (Kcal/Mol)
 Vibrational temperatures:   1679.48  1679.48
          (Kelvin)

 Zero-point correction=                           0.005319 (Hartree/Particle)
 Thermal correction to Energy=                    0.007717
 Thermal correction to Enthalpy=                  0.008661
 Thermal correction to Gibbs Free Energy=        -0.014992
 Sum of electronic and zero-point Energies=           -100.816369
 Sum of electronic and thermal Energies=              -100.813970
 Sum of electronic and thermal Enthalpies=            -100.813026
 Sum of electronic and thermal Free Energies=         -100.836679

                     E (Thermal)             CV                S
                      KCal/Mol        Cal/Mol-Kelvin    Cal/Mol-Kelvin
 Total                    4.843              5.422             49.783
 Electronic               0.000              0.000              1.377
 Translational            0.889              2.981             35.068
 Rotational               0.592              1.987             13.243
 Vibrational              3.361              0.454              0.095

 Normal termination of Gaussian 16 at Fri Aug 22 18:32:59 2025.
