 Gaussian 16, Revision C.01,
 Gaussian 16:  ES64L-G16RevC.01  3-Jul-2019

 -----------------------------------------
 # sp b3lyp/6-311g** Force nosymm scf=(qc)
 -----------------------------------------

 -------------------
 Title Card Required
 -------------------
 Symbolic Z-matrix:
 Charge =  0 Multiplicity = 2

                          Input orientation:
 ---------------------------------------------------------------------
 Center     Atomic      Atomic             Coordinates (Angstroms)
 Number     Number       Type             X           Y           Z
 ---------------------------------------------------------------------
      1          1           0        0.000000    0.000000    0.000000
      2          1           0       -0.700000    0.000000    0.000000
      3          9           0        2.000000    0.000000    0.000000
 ---------------------------------------------------------------------

 SCF Done:  E(UB3LYP) =  -100.933048076     a.u. after    6 cycles

 Alpha  occ. eigenvalues --  -24.75011  -1.21092  -0.55051  -0.45520  -0.45520
 Alpha  occ. eigenvalues --   -0.45335
 Alpha virt. eigenvalues --    0.08204   0.20179   0.46366   0.90596   0.90596
 Alpha virt. eigenvalues --    0.92132   1.07874   1.07874   1.15615   1.63755
 Alpha virt. eigenvalues --    1.84672   1.84672   1.88782   2.40975   3.56518

  Beta  occ. eigenvalues --  -24.71964  -1.12406  -0.45810  -0.42482  -0.42482
  Beta virt. eigenvalues --   -0.25632   0.08935   0.20742   0.46893   0.91970
  Beta virt. eigenvalues --    0.91970   0.99985   1.08479   1.08479   1.19246
  Beta virt. eigenvalues --    1.64982   1.84966   1.84966   1.89272   2.41656

 Mulliken charges and spin densities:
               1          2
     1  H    0.003664  -0.023052
     2  H    0.026828   0.067352
     3  F   -0.030492   0.955700
 Sum of Mulliken charges =   0.00000   1.00000

 Dipole moment (field-independent basis, Debye):
    X=             -0.3751    Y=             -0.0000    Z=              0.0000  Tot=              0.3751
 Quadrupole moment (field-independent basis, Debye-Ang):
   XX=             -5.9644   YY=             -6.8466   ZZ=             -6.8466
   XY=             -0.0000   XZ=              0.0000   YZ=             -0.0000

  Exact polarizability:      15.837      -0.000       2.065      -0.000       0.000       2.065
 Approx polarizability:      17.273       0.000       2.132      -0.000       0.000       2.132

 ******    3 imaginary frequencies (negative Signs) ******

                      1                      2                      3
                      A                      A                      A
 Frequencies --  -1292.0924             -1292.0924              -121.4734
 Red. masses --      1.0100                 1.0100                 1.1085
 Frc consts  --      0.9935                 0.9935                 0.0096
 IR Inten    --      0.2959                 0.2959                22.6798

                      4
                      A
 Frequencies --   5026.6172
 Red. masses --      1.0078
 Frc consts  --     15.0034
 IR Inten    --    205.8634

 - Thermochemistry -
 -------------------
 Temperature   298.150 Kelvin.  Pressure   1.00000 Atm.
 Atom     1 has atomic number  1 and mass   1.00783

 Molecular mass:    21.01405 amu.
 Principal axes and moments of inertia in atomic units:
                           1         2         3
     Eigenvalues --     0.00000  36.81992  36.81992
           X            1.00000  -0.00000   0.00000
           Y            0.00000   1.00000   0.00000
           Z            0.00000   0.00000   1.00000
 This molecule is a prolate symmetric top.
 Rotational symmetry number  1.
 Rotational temperature (Kelvin)      2.35237
 Rotational constant (GHZ):          49.015349
    3 imaginary frequencies ignored.
 Zero-point vibrational energy      30065.8 (Joules/Mol)
                                    7.18591 (Kcal/Mol)
 Vibrational temperatures:   7232.18
          (Kelvin)

 Zero-point correction=                           0.011451 (Hartree/Particle)
 Thermal correction to Energy=                    0.013812
 Thermal correction to Enthalpy=                  0.014756
 Thermal correction to Gibbs Free Energy=        -0.008076
 Sum of electronic and zero-point Energies=           -100.921597
 Sum of electronic and thermal Energies=              -100.919236
 Sum of electronic and thermal Enthalpies=            -100.918292
 Sum of electronic and thermal Free Energies=         -100.941124

                     E (Thermal)             CV                S
                      KCal/Mol        Cal/Mol-Kelvin    Cal/Mol-Kelvin
 Total                    8.667              4.968             48.055
 Electronic               0.000              0.000              1.377
 Translational            0.889              2.981             35.068
 Rotational               0.592              1.987             11.610
 Vibrational              7.186              0.000              0.000

 Normal termination of Gaussian 16 at Fri Aug 22 16:55:20 2025.
