 Gaussian 16, Revision C.01,
 Gaussian 16:  ES64L-G16RevC.01  3-Jul-2019

 -----------------------------------------
 # sp b3lyp/6-311g** Force nosymm scf=(qc)
 -----------------------------------------

 -------------------
 Title Card Required
 -------------------
 Symbolic Z-matrix:
 Charge =  0 Multiplicity = 2

                          Input orientation:
 ---------------------------------------------------------------------
 Center     Atomic      Atomic             Coordinates (Angstroms)
 Number     Number       Type             X           Y           Z
 ---------------------------------------------------------------------
      1          1           0        0.000000    0.000000    0.000000
      2          1           0       -1.650000    0.000000    0.000000
      3          9           0        1.250000    0.000000    0.000000
 ---------------------------------------------------------------------

 SCF Done:  E(UB3LYP) =  -100.919636780     a.u. after    8 cycles

 Alpha  occ. eigenvalues --  -24.63437  -1.11263  -0.48075  -0.37556  -0.36596
 Alpha  occ. eigenvalues --   -0.36596
 Alpha virt. eigenvalues --   -0.02196   0.21617   0.28726   0.93694   0.93694
 Alpha virt. eigenvalues --    1.01677   1.05331   1.17408   1.17408   1.37930
 Alpha virt. eigenvalues --    1.37930   1.51878   1.77978   2.19146   2.36373

  Beta  occ. eigenvalues --  -24.62983  -1.10105  -0.45556  -0.36178  -0.36178
  Beta virt. eigenvalues --   -0.18004   0.01377   0.26160   0.31860   0.93740
  Beta virt. eigenvalues --    0.93740   1.02854   1.12823   1.28580   1.28580
  Beta virt. eigenvalues --    1.41689   1.41689   1.55887   1.84078   2.27493

 Mulliken charges and spin densities:
               1          2
     1  H    0.313931  -0.043582
     2  H    0.050188   0.907756
     3  F   -0.364119   0.135825
 Sum of Mulliken charges =  -0.00000   1.00000

 Dipole moment (field-independent basis, Debye):
    X=             -2.7902    Y=             -0.0000    Z=             -0.0000  Tot=              2.7902
 Quadrupole moment (field-independent basis, Debye-Ang):
   XX=             -8.1275   YY=             -7.0654   ZZ=             -7.0654
   XY=             -0.0000   XZ=             -0.0000   YZ=             -0.0000

  Exact polarizability:      20.331      -0.000       2.395      -0.000       0.000       2.395
 Approx polarizability:      25.839      -0.000       2.360      -0.000       0.000       2.360

 ******    1 imaginary frequencies (negative Signs) ******

                      1                      2                      3
                      A                      A                      A
 Frequencies --  -1451.5534               381.4669              1125.1804
 Red. masses --      1.0180                 1.0964                 1.0216
 Frc consts  --      1.2638                 0.0940                 0.7621
 IR Inten    --    126.4072                24.1347                75.6495

                      4
                      A
 Frequencies --   1125.1804
 Red. masses --      1.0216
 Frc consts  --      0.7621
 IR Inten    --     75.6495

 - Thermochemistry -
 -------------------
 Temperature   298.150 Kelvin.  Pressure   1.00000 Atm.
 Atom     1 has atomic number  1 and mass   1.00783

 Molecular mass:    21.01405 amu.
 Principal axes and moments of inertia in atomic units:
                           1         2         3
     Eigenvalues --     0.00000  32.91839  32.91839
           X            1.00000  -0.00000   0.00000
           Y            0.00000   1.00000   0.00000
           Z            0.00000   0.00000   1.00000
 This molecule is a prolate symmetric top.
 Rotational symmetry number  1.
 Rotational temperature (Kelvin)      2.63117
 Rotational constant (GHZ):          54.824710
    1 imaginary frequencies ignored.
 Zero-point vibrational energy      15741.8 (Joules/Mol)
                                    3.76239 (Kcal/Mol)
 Warning -- explicit consideration of   1 degrees of freedom as
           vibrations may cause significant error
 Vibrational temperatures:    548.85  1618.88  1618.88
          (Kelvin)

 Zero-point correction=                           0.005996 (Hartree/Particle)
 Thermal correction to Energy=                    0.008729
 Thermal correction to Enthalpy=                  0.009673
 Thermal correction to Gibbs Free Energy=        -0.013598
 Sum of electronic and zero-point Energies=           -100.913641
 Sum of electronic and thermal Energies=              -100.910908
 Sum of electronic and thermal Enthalpies=            -100.909963
 Sum of electronic and thermal Free Energies=         -100.933235

                     E (Thermal)             CV                S
                      KCal/Mol        Cal/Mol-Kelvin    Cal/Mol-Kelvin
 Total                    5.478              6.996             48.978
 Electronic               0.000              0.000              1.377
 Translational            0.889              2.981             35.068
 Rotational               0.592              1.987             11.387
 Vibrational              3.996              2.028              1.146
 Vibration     1          0.751              1.510              1.033

 Normal termination of Gaussian 16 at Fri Aug 22 16:12:21 2025.
