 Gaussian 16, Revision C.01,
 Gaussian 16:  ES64L-G16RevC.01  3-Jul-2019

 -----------------------------------------
 # sp b3lyp/6-311g** Force nosymm scf=(qc)
 -----------------------------------------

 -------------------
 Title Card Required
 -------------------
 Symbolic Z-matrix:
 Charge =  0 Multiplicity = 2

                          Input orientation:
 ---------------------------------------------------------------------
 Center     Atomic      Atomic             Coordinates (Angstroms)
 Number     Number       Type             X           Y           Z
 ---------------------------------------------------------------------
      1          1           0        0.000000    0.000000    0.000000
      2          1           0       -3.250000    0.000000    0.000000
      3          9           0        0.800000    0.000000    0.000000
 ---------------------------------------------------------------------

 SCF Done:  E(UB3LYP) =  -100.950349780     a.u. after    6 cycles

 Alpha  occ. eigenvalues --  -24.63669  -1.23032  -0.56184  -0.40642  -0.40642
 Alpha  occ. eigenvalues --   -0.33722
 Alpha virt. eigenvalues --    0.05192   0.25060   0.45774   0.94212   0.94212
 Alpha virt. eigenvalues --    0.97013   1.23265   1.23797   1.23797   1.31236
 Alpha virt. eigenvalues --    1.39827   1.39827   2.02762   2.14654   2.53086

  Beta  occ. eigenvalues --  -24.63667  -1.23028  -0.56180  -0.40641  -0.40641
  Beta virt. eigenvalues --   -0.05832   0.05976   0.39338   0.45775   0.94212
  Beta virt. eigenvalues --    0.94212   0.97000   1.30115   1.39827   1.39827
  Beta virt. eigenvalues --    1.50812   1.50892   1.50892   2.02806   2.44418

 Mulliken charges and spin densities:
               1          2
     1  H    0.274104   0.000947
     2  H    0.001310   0.998301
     3  F   -0.275414   0.000752
 Sum of Mulliken charges =   0.00000   1.00000

 Dipole moment (field-independent basis, Debye):
    X=             -1.7519    Y=             -0.0000    Z=             -0.0000  Tot=              1.7519
 Quadrupole moment (field-independent basis, Debye-Ang):
   XX=             -7.5622   YY=             -6.7688   ZZ=             -6.7688
   XY=             -0.0000   XZ=             -0.0000   YZ=              0.0000

  Exact polarizability:       4.970      -0.000       2.447       0.000       0.000       2.447
 Approx polarizability:       5.497      -0.000       2.429      -0.000       0.000       2.429

 ******    3 imaginary frequencies (negative Signs) ******

                      1                      2                      3
                      A                      A                      A
 Frequencies --  -1976.1513             -1976.1513               -45.9824
 Red. masses --      1.0391                 1.0391                 1.0532
 Frc consts  --      2.3909                 2.3909                 0.0013
 IR Inten    --    193.9797               193.9797                 0.0668

                      4
                      A
 Frequencies --   6349.5960
 Red. masses --      1.0583
 Frc consts  --     25.1396
 IR Inten    --    108.7020

 - Thermochemistry -
 -------------------
 Temperature   298.150 Kelvin.  Pressure   1.00000 Atm.
 Atom     1 has atomic number  1 and mass   1.00783

 Molecular mass:    21.01405 amu.
 Principal axes and moments of inertia in atomic units:
                           1         2         3
     Eigenvalues --     0.00000  57.27596  57.27596
           X            1.00000  -0.00000   0.00000
           Y            0.00000   1.00000   0.00000
           Z            0.00000   0.00000   1.00000
 This molecule is a prolate symmetric top.
 Rotational symmetry number  1.
 Rotational temperature (Kelvin)      1.51222
 Rotational constant (GHZ):          31.509578
    3 imaginary frequencies ignored.
 Zero-point vibrational energy      37979.0 (Joules/Mol)
                                    9.07720 (Kcal/Mol)
 Vibrational temperatures:   9135.65
          (Kelvin)

 Zero-point correction=                           0.014465 (Hartree/Particle)
 Thermal correction to Energy=                    0.016826
 Thermal correction to Enthalpy=                  0.017770
 Thermal correction to Gibbs Free Energy=        -0.005480
 Sum of electronic and zero-point Energies=           -100.935884
 Sum of electronic and thermal Energies=              -100.933524
 Sum of electronic and thermal Enthalpies=            -100.932580
 Sum of electronic and thermal Free Energies=         -100.955829

                     E (Thermal)             CV                S
                      KCal/Mol        Cal/Mol-Kelvin    Cal/Mol-Kelvin
 Total                   10.558              4.968             48.933
 Electronic               0.000              0.000              1.377
 Translational            0.889              2.981             35.068
 Rotational               0.592              1.987             12.488
 Vibrational              9.077              0.000              0.000

 Normal termination of Gaussian 16 at Fri Aug 22 15:51:55 2025.
