 Gaussian 16, Revision C.01,
 Gaussian 16:  ES64L-G16RevC.01  3-Jul-2019

 -----------------------------------------
 # sp b3lyp/6-311g** Force nosymm scf=(qc)
 -----------------------------------------

 -------------------
 Title Card Required
 -------------------
 Symbolic Z-matrix:
 Charge =  0 Multiplicity = 2

                          Input orientation:
 ---------------------------------------------------------------------
 Center     Atomic      Atomic             Coordinates (Angstroms)
 Number     Number       Type             X           Y           Z
 ---------------------------------------------------------------------
      1          1           0        0.000000    0.000000    0.000000
      2          1           0       -2.600000    0.000000    0.000000
      3          9           0        2.600000    0.000000    0.000000
 ---------------------------------------------------------------------

 SCF Done:  E(UB3LYP) =  -100.768344418     a.u. after   19 cycles

 Alpha  occ. eigenvalues --  -24.72323  -1.18498  -0.51428  -0.43193  -0.43193
 Alpha  occ. eigenvalues --   -0.33482
 Alpha virt. eigenvalues --   -0.11337   0.24835   0.33517   0.90214   0.93308
 Alpha virt. eigenvalues --    0.93308   1.06265   1.24135   1.24135   1.26458
 Alpha virt. eigenvalues --    1.38927   1.38927   1.42191   2.15128   2.34822

  Beta  occ. eigenvalues --  -24.69431  -1.10250  -0.40306  -0.40306  -0.34953
  Beta virt. eigenvalues --   -0.23738  -0.09125   0.25586   0.35128   0.94709
  Beta virt. eigenvalues --    0.94709   0.97771   1.09408   1.22552   1.22552
  Beta virt. eigenvalues --    1.27894   1.42382   1.42382   1.43564   2.14988

 Mulliken charges and spin densities:
               1          2
     1  H    0.067884  -0.892580
     2  H    0.007669   0.977974
     3  F   -0.075554   0.914606
 Sum of Mulliken charges =  -0.00000   1.00000

 Dipole moment (field-independent basis, Debye):
    X=             -1.0977    Y=             -0.0000    Z=             -0.0000  Tot=              1.0977
 Quadrupole moment (field-independent basis, Debye-Ang):
   XX=             -8.7468   YY=             -7.6150   ZZ=             -7.6150
   XY=             -0.0000   XZ=             -0.0000   YZ=              0.0000

  Exact polarizability:      41.710      -0.000       2.015      -0.000      -0.000       2.015
 Approx polarizability:      44.639      -0.000       1.918      -0.000       0.000       1.918

 ******    2 imaginary frequencies (negative Signs) ******

                      1                      2                      3
                      A                      A                      A
 Frequencies --   -720.1992              -301.9849               281.2975
 Red. masses --      1.0216                 1.0923                 1.0179
 Frc consts  --      0.3122                 0.0587                 0.0475
 IR Inten    --     51.8362                18.8082                 3.8740

                      4
                      A
 Frequencies --    281.2975
 Red. masses --      1.0179
 Frc consts  --      0.0475
 IR Inten    --      3.8740

 - Thermochemistry -
 -------------------
 Temperature   298.150 Kelvin.  Pressure   1.00000 Atm.
 Atom     1 has atomic number  1 and mass   1.00783

 Molecular mass:    21.01405 amu.
 Principal axes and moments of inertia in atomic units:
                           1         2         3
     Eigenvalues --     0.00000 111.14508 111.14508
           X            1.00000  -0.00000   0.00000
           Y            0.00000   1.00000   0.00000
           Z            0.00000   0.00000   1.00000
 This molecule is a prolate symmetric top.
 Rotational symmetry number  1.
 Rotational temperature (Kelvin)      0.77929
 Rotational constant (GHZ):          16.237706
    2 imaginary frequencies ignored.
 Zero-point vibrational energy       3365.1 (Joules/Mol)
                                    0.80427 (Kcal/Mol)
 Warning -- explicit consideration of   2 degrees of freedom as
           vibrations may cause significant error
 Vibrational temperatures:    404.72   404.72
          (Kelvin)

 Zero-point correction=                           0.001282 (Hartree/Particle)
 Thermal correction to Energy=                    0.004530
 Thermal correction to Enthalpy=                  0.005474
 Thermal correction to Gibbs Free Energy=        -0.019851
 Sum of electronic and zero-point Energies=           -100.767063
 Sum of electronic and thermal Energies=              -100.763814
 Sum of electronic and thermal Enthalpies=            -100.762870
 Sum of electronic and thermal Free Energies=         -100.788195

                     E (Thermal)             CV                S
                      KCal/Mol        Cal/Mol-Kelvin    Cal/Mol-Kelvin
 Total                    2.843              8.384             53.302
 Electronic               0.000              0.000              1.377
 Translational            0.889              2.981             35.068
 Rotational               0.592              1.987             13.805
 Vibrational              1.362              3.416              3.052
 Vibration     1          0.681              1.708              1.526
 Vibration     2          0.681              1.708              1.526

 Normal termination of Gaussian 16 at Fri Aug 22 18:04:19 2025.
