 Gaussian 16, Revision C.01,
 Gaussian 16:  ES64L-G16RevC.01  3-Jul-2019

 -----------------------------------------
 # sp b3lyp/6-311g** Force nosymm scf=(qc)
 -----------------------------------------

 -------------------
 Title Card Required
 -------------------
 Symbolic Z-matrix:
 Charge =  0 Multiplicity = 2

                          Input orientation:
 ---------------------------------------------------------------------
 Center     Atomic      Atomic             Coordinates (Angstroms)
 Number     Number       Type             X           Y           Z
 ---------------------------------------------------------------------
      1          1           0        0.000000    0.000000    0.000000
      2          1           0       -3.250000    0.000000    0.000000
      3          9           0        2.400000    0.000000    0.000000
 ---------------------------------------------------------------------

 SCF Done:  E(UB3LYP) =  -100.770180577     a.u. after   17 cycles

 Alpha  occ. eigenvalues --  -24.71130  -1.17379  -0.50222  -0.42200  -0.42200
 Alpha  occ. eigenvalues --   -0.33136
 Alpha virt. eigenvalues --   -0.11041   0.23549   0.34624   0.89351   0.93924
 Alpha virt. eigenvalues --    0.93924   1.06409   1.24387   1.24387   1.24795
 Alpha virt. eigenvalues --    1.39578   1.39578   1.46113   2.14691   2.34778

  Beta  occ. eigenvalues --  -24.68347  -1.09477  -0.39430  -0.39430  -0.35787
  Beta virt. eigenvalues --   -0.22937  -0.07302   0.24112   0.37445   0.94732
  Beta virt. eigenvalues --    0.95230   0.95230   1.08556   1.21836   1.21836
  Beta virt. eigenvalues --    1.32976   1.45162   1.45339   1.45339   2.12851

 Mulliken charges and spin densities:
               1          2
     1  H    0.104003  -0.874490
     2  H    0.001909   0.996031
     3  F   -0.105912   0.878459
 Sum of Mulliken charges =  -0.00000   1.00000

 Dipole moment (field-independent basis, Debye):
    X=             -1.3175    Y=              0.0000    Z=             -0.0000  Tot=              1.3175
 Quadrupole moment (field-independent basis, Debye-Ang):
   XX=             -9.4172   YY=             -7.5634   ZZ=             -7.5634
   XY=             -0.0000   XZ=              0.0000   YZ=             -0.0000

  Exact polarizability:      31.406      -0.000       2.027       0.000       0.000       2.027
 Approx polarizability:      39.957      -0.000       1.921       0.000      -0.000       1.921

 ******    2 imaginary frequencies (negative Signs) ******

                      1                      2                      3
                      A                      A                      A
 Frequencies --   -697.3169              -161.5798               278.7840
 Red. masses --      1.0523                 1.0593                 1.0220
 Frc consts  --      0.3015                 0.0163                 0.0468
 IR Inten    --     87.6610                 0.8630                10.1270

                      4
                      A
 Frequencies --    278.7840
 Red. masses --      1.0220
 Frc consts  --      0.0468
 IR Inten    --     10.1270

 - Thermochemistry -
 -------------------
 Temperature   298.150 Kelvin.  Pressure   1.00000 Atm.
 Atom     1 has atomic number  1 and mass   1.00783

 Molecular mass:    21.01405 amu.
 Principal axes and moments of inertia in atomic units:
                           1         2         3
     Eigenvalues --     0.00000 124.43428 124.43428
           X            1.00000  -0.00000   0.00000
           Y            0.00000   1.00000   0.00000
           Z            0.00000   0.00000   1.00000
 This molecule is a prolate symmetric top.
 Rotational symmetry number  1.
 Rotational temperature (Kelvin)      0.69606
 Rotational constant (GHZ):          14.503569
    2 imaginary frequencies ignored.
 Zero-point vibrational energy       3335.0 (Joules/Mol)
                                    0.79708 (Kcal/Mol)
 Warning -- explicit consideration of   2 degrees of freedom as
           vibrations may cause significant error
 Vibrational temperatures:    401.11   401.11
          (Kelvin)

 Zero-point correction=                           0.001270 (Hartree/Particle)
 Thermal correction to Energy=                    0.004525
 Thermal correction to Enthalpy=                  0.005470
 Thermal correction to Gibbs Free Energy=        -0.019977
 Sum of electronic and zero-point Energies=           -100.768910
 Sum of electronic and thermal Energies=              -100.765655
 Sum of electronic and thermal Enthalpies=            -100.764711
 Sum of electronic and thermal Free Energies=         -100.790158

                     E (Thermal)             CV                S
                      KCal/Mol        Cal/Mol-Kelvin    Cal/Mol-Kelvin
 Total                    2.840              8.394             53.557
 Electronic               0.000              0.000              1.377
 Translational            0.889              2.981             35.068
 Rotational               0.592              1.987             14.029
 Vibrational              1.359              3.426              3.082
 Vibration     1          0.679              1.713              1.541
 Vibration     2          0.679              1.713              1.541

 Normal termination of Gaussian 16 at Fri Aug 22 17:33:19 2025.
