 Gaussian 16, Revision C.01,
 Gaussian 16:  ES64L-G16RevC.01  3-Jul-2019

 -----------------------------------------
 # sp b3lyp/6-311g** Force nosymm scf=(qc)
 -----------------------------------------

 -------------------
 Title Card Required
 -------------------
 Symbolic Z-matrix:
 Charge =  0 Multiplicity = 2

                          Input orientation:
 ---------------------------------------------------------------------
 Center     Atomic      Atomic             Coordinates (Angstroms)
 Number     Number       Type             X           Y           Z
 ---------------------------------------------------------------------
      1          1           0        0.000000    0.000000    0.000000
      2          1           0       -1.700000    0.000000    0.000000
      3          9           0        0.600000    0.000000    0.000000
 ---------------------------------------------------------------------

 SCF Done:  E(UB3LYP) =  -100.684827477     a.u. after    7 cycles

 Alpha  occ. eigenvalues --  -24.62741  -1.34846  -0.61377  -0.43004  -0.43004
 Alpha  occ. eigenvalues --   -0.35518
 Alpha virt. eigenvalues --    0.12787   0.22836   0.55919   0.91995   0.91995
 Alpha virt. eigenvalues --    0.93348   1.20804   1.20804   1.31300   1.51365
 Alpha virt. eigenvalues --    1.51365   1.60933   2.00155   2.18210   3.42709

  Beta  occ. eigenvalues --  -24.62680  -1.34660  -0.61099  -0.42965  -0.42965
  Beta virt. eigenvalues --   -0.10911   0.14061   0.32371   0.59309   0.92037
  Beta virt. eigenvalues --    0.92037   0.93487   1.38051   1.38389   1.38389
  Beta virt. eigenvalues --    1.53151   1.53151   1.69911   2.01402   2.42970

 Mulliken charges and spin densities:
               1          2
     1  H    0.216106   0.014692
     2  H    0.011538   0.980020
     3  F   -0.227644   0.005288
 Sum of Mulliken charges =   0.00000   1.00000

 Dipole moment (field-independent basis, Debye):
    X=             -1.4909    Y=              0.0000    Z=              0.0000  Tot=              1.4909
 Quadrupole moment (field-independent basis, Debye-Ang):
   XX=             -6.7748   YY=             -6.4950   ZZ=             -6.4950
   XY=              0.0000   XZ=              0.0000   YZ=             -0.0000

  Exact polarizability:       6.117       0.000       2.499       0.000      -0.000       2.499
 Approx polarizability:       5.867      -0.000       2.502      -0.000      -0.000       2.502

 ******    2 imaginary frequencies (negative Signs) ******

                      1                      2                      3
                      A                      A                      A
 Frequencies --  -5765.9013             -5765.9013               640.5177
 Red. masses --      1.0337                 1.0337                 1.0534
 Frc consts  --     20.2475                20.2475                 0.2546
 IR Inten    --    186.6091               186.6091                 1.0060

                      4
                      A
 Frequencies --  13069.5670
 Red. masses --      1.0582
 Frc consts  --    106.4984
 IR Inten    --    117.6171

 - Thermochemistry -
 -------------------
 Temperature   298.150 Kelvin.  Pressure   1.00000 Atm.
 Atom     1 has atomic number  1 and mass   1.00783

 Molecular mass:    21.01405 amu.
 Principal axes and moments of inertia in atomic units:
                           1         2         3
     Eigenvalues --     0.00000  18.88277  18.88277
           X            1.00000  -0.00000   0.00000
           Y            0.00000   1.00000   0.00000
           Z            0.00000   0.00000   1.00000
 This molecule is a prolate symmetric top.
 Rotational symmetry number  1.
 Rotational temperature (Kelvin)      4.58693
 Rotational constant (GHZ):          95.576063
    2 imaginary frequencies ignored.
 Zero-point vibrational energy      82004.5 (Joules/Mol)
                                   19.59955 (Kcal/Mol)
 Vibrational temperatures:    921.56 18804.19
          (Kelvin)

 Zero-point correction=                           0.031234 (Hartree/Particle)
 Thermal correction to Energy=                    0.033733
 Thermal correction to Enthalpy=                  0.034678
 Thermal correction to Gibbs Free Energy=         0.012293
 Sum of electronic and zero-point Energies=           -100.653594
 Sum of electronic and thermal Energies=              -100.651094
 Sum of electronic and thermal Enthalpies=            -100.650150
 Sum of electronic and thermal Free Energies=         -100.672535

                     E (Thermal)             CV                S
                      KCal/Mol        Cal/Mol-Kelvin    Cal/Mol-Kelvin
 Total                   21.168              5.915             47.113
 Electronic               0.000              0.000              1.377
 Translational            0.889              2.981             35.068
 Rotational               0.592              1.987             10.283
 Vibrational             19.687              0.947              0.385

 Normal termination of Gaussian 16 at Fri Aug 22 15:41:29 2025.
