 Gaussian 16, Revision C.01,
 Gaussian 16:  ES64L-G16RevC.01  3-Jul-2019

 -----------------------------------------
 # sp b3lyp/6-311g** Force nosymm scf=(qc)
 -----------------------------------------

 -------------------
 Title Card Required
 -------------------
 Symbolic Z-matrix:
 Charge =  0 Multiplicity = 2

                          Input orientation:
 ---------------------------------------------------------------------
 Center     Atomic      Atomic             Coordinates (Angstroms)
 Number     Number       Type             X           Y           Z
 ---------------------------------------------------------------------
      1          1           0        0.000000    0.000000    0.000000
      2          1           0       -0.900000    0.000000    0.000000
      3          9           0        0.500000    0.000000    0.000000
 ---------------------------------------------------------------------

 SCF Done:  E(UB3LYP) =  -100.188000424     a.u. after    7 cycles

 Alpha  occ. eigenvalues --  -24.66711  -1.48755  -0.69388  -0.47954  -0.47954
 Alpha  occ. eigenvalues --   -0.31537
 Alpha virt. eigenvalues --    0.16643   0.20727   0.84795   0.84886   0.84886
 Alpha virt. eigenvalues --    0.90990   1.11517   1.11517   1.51115   1.68835
 Alpha virt. eigenvalues --    1.88542   1.88542   2.33631   2.64329   3.73192

  Beta  occ. eigenvalues --  -24.66304  -1.47276  -0.67829  -0.47646  -0.47646
  Beta virt. eigenvalues --   -0.10105   0.17368   0.28227   0.85383   0.86108
  Beta virt. eigenvalues --    0.86108   0.96709   1.19635   1.19635   1.51718
  Beta virt. eigenvalues --    1.75846   1.94144   1.94144   2.47793   2.74542

 Mulliken charges and spin densities:
               1          2
     1  H    0.184203  -0.025352
     2  H   -0.088068   1.007093
     3  F   -0.096134   0.018259
 Sum of Mulliken charges =   0.00000   1.00000

 Dipole moment (field-independent basis, Debye):
    X=             -0.6047    Y=             -0.0000    Z=             -0.0000  Tot=              0.6047
 Quadrupole moment (field-independent basis, Debye-Ang):
   XX=             -7.2543   YY=             -6.3398   ZZ=             -6.3398
   XY=             -0.0000   XZ=             -0.0000   YZ=              0.0000

  Exact polarizability:       6.135      -0.000       2.443      -0.000      -0.000       2.443
 Approx polarizability:       5.795       0.000       2.522       0.000      -0.000       2.522

 ******    2 imaginary frequencies (negative Signs) ******

                      1                      2                      3
                      A                      A                      A
 Frequencies --  -9285.3367             -9285.3367              2842.1558
 Red. masses --      1.0264                 1.0264                 1.0545
 Frc consts  --     52.1370                52.1370                 5.0188
 IR Inten    --    185.7167               185.7167               186.6059

                      4
                      A
 Frequencies --  19210.3757
 Red. masses --      1.0570
 Frc consts  --    229.8307
 IR Inten    --     14.3338

 - Thermochemistry -
 -------------------
 Temperature   298.150 Kelvin.  Pressure   1.00000 Atm.
 Atom     1 has atomic number  1 and mass   1.00783

 Molecular mass:    21.01405 amu.
 Principal axes and moments of inertia in atomic units:
                           1         2         3
     Eigenvalues --     0.00000   7.33070   7.33070
           X            1.00000  -0.00000   0.00000
           Y            0.00000   1.00000   0.00000
           Z            0.00000   0.00000   1.00000
 This molecule is a prolate symmetric top.
 Rotational symmetry number  1.
 Rotational temperature (Kelvin)     11.81524
 Rotational constant (GHZ):         246.189548
    2 imaginary frequencies ignored.
 Zero-point vibrational energy     131903.4 (Joules/Mol)
                                   31.52568 (Kcal/Mol)
 Vibrational temperatures:   4089.23 27639.45
          (Kelvin)

 Zero-point correction=                           0.050239 (Hartree/Particle)
 Thermal correction to Energy=                    0.052600
 Thermal correction to Enthalpy=                  0.053544
 Thermal correction to Gibbs Free Energy=         0.032235
 Sum of electronic and zero-point Energies=           -100.137761
 Sum of electronic and thermal Energies=              -100.135401
 Sum of electronic and thermal Enthalpies=            -100.134456
 Sum of electronic and thermal Free Energies=         -100.155765

                     E (Thermal)             CV                S
                      KCal/Mol        Cal/Mol-Kelvin    Cal/Mol-Kelvin
 Total                   33.007              4.968             44.848
 Electronic               0.000              0.000              1.377
 Translational            0.889              2.981             35.068
 Rotational               0.592              1.987              8.402
 Vibrational             31.526              0.000              0.000

 Normal termination of Gaussian 16 at Fri Aug 22 15:36:08 2025.
