 Gaussian 16, Revision C.01,
 Gaussian 16:  ES64L-G16RevC.01  3-Jul-2019

 -----------------------------------------
 # sp b3lyp/6-311g** Force nosymm scf=(qc)
 -----------------------------------------

 -------------------
 Title Card Required
 -------------------
 Symbolic Z-matrix:
 Charge =  0 Multiplicity = 2

                          Input orientation:
 ---------------------------------------------------------------------
 Center     Atomic      Atomic             Coordinates (Angstroms)
 Number     Number       Type             X           Y           Z
 ---------------------------------------------------------------------
      1          1           0        0.000000    0.000000    0.000000
      2          1           0       -2.300000    0.000000    0.000000
      3          9           0        3.000000    0.000000    0.000000
 ---------------------------------------------------------------------

 SCF Done:  E(UB3LYP) =  -100.767646061     a.u. after   25 cycles

 Alpha  occ. eigenvalues --  -24.74198  -1.20245  -0.53315  -0.44765  -0.44765
 Alpha  occ. eigenvalues --   -0.33301
 Alpha virt. eigenvalues --   -0.11051   0.25498   0.33017   0.89573   0.92211
 Alpha virt. eigenvalues --    0.92211   1.03960   1.24462   1.24462   1.25174
 Alpha virt. eigenvalues --    1.38680   1.38680   1.42726   2.14259   2.35505

  Beta  occ. eigenvalues --  -24.71165  -1.11553  -0.41730  -0.41730  -0.33816
  Beta virt. eigenvalues --   -0.24867  -0.10046   0.25769   0.34027   0.93674
  Beta virt. eigenvalues --    0.93674   0.98344   1.07888   1.23817   1.23817
  Beta virt. eigenvalues --    1.24450   1.40304   1.40304   1.44224   2.15410

 Mulliken charges and spin densities:
               1          2
     1  H    0.026066  -0.907240
     2  H    0.008792   0.946323
     3  F   -0.034858   0.960917
 Sum of Mulliken charges =  -0.00000   1.00000

 Dipole moment (field-independent basis, Debye):
    X=             -0.6329    Y=              0.0000    Z=             -0.0000  Tot=              0.6329
 Quadrupole moment (field-independent basis, Debye-Ang):
   XX=             -7.7462   YY=             -7.6717   ZZ=             -7.6717
   XY=              0.0000   XZ=             -0.0000   YZ=              0.0000

  Exact polarizability:      49.784       0.000       2.010      -0.000       0.000       2.010
 Approx polarizability:      43.658       0.000       1.923      -0.000      -0.000       1.923

 ******    2 imaginary frequencies (negative Signs) ******

                      1                      2                      3
                      A                      A                      A
 Frequencies --   -911.0323              -241.9879               346.8944
 Red. masses --      1.0086                 1.1076                 1.0150
 Frc consts  --      0.4932                 0.0382                 0.0720
 IR Inten    --     22.6610                23.8492                 0.4525

                      4
                      A
 Frequencies --    346.8944
 Red. masses --      1.0150
 Frc consts  --      0.0720
 IR Inten    --      0.4525

 - Thermochemistry -
 -------------------
 Temperature   298.150 Kelvin.  Pressure   1.00000 Atm.
 Atom     1 has atomic number  1 and mass   1.00783

 Molecular mass:    21.01405 amu.
 Principal axes and moments of inertia in atomic units:
                           1         2         3
     Eigenvalues --     0.00000 121.59634 121.59634
           X            1.00000  -0.00000   0.00000
           Y            0.00000   1.00000   0.00000
           Z            0.00000   0.00000   1.00000
 This molecule is a prolate symmetric top.
 Rotational symmetry number  1.
 Rotational temperature (Kelvin)      0.71231
 Rotational constant (GHZ):          14.842069
    2 imaginary frequencies ignored.
 Zero-point vibrational energy       4149.8 (Joules/Mol)
                                    0.99182 (Kcal/Mol)
 Warning -- explicit consideration of   2 degrees of freedom as
           vibrations may cause significant error
 Vibrational temperatures:    499.10   499.10
          (Kelvin)

 Zero-point correction=                           0.001581 (Hartree/Particle)
 Thermal correction to Energy=                    0.004670
 Thermal correction to Enthalpy=                  0.005615
 Thermal correction to Gibbs Free Energy=        -0.019467
 Sum of electronic and zero-point Energies=           -100.766065
 Sum of electronic and thermal Energies=              -100.762976
 Sum of electronic and thermal Enthalpies=            -100.762031
 Sum of electronic and thermal Free Energies=         -100.787113

                     E (Thermal)             CV                S
                      KCal/Mol        Cal/Mol-Kelvin    Cal/Mol-Kelvin
 Total                    2.931              8.131             52.790
 Electronic               0.000              0.000              1.377
 Translational            0.889              2.981             35.068
 Rotational               0.592              1.987             13.984
 Vibrational              1.450              3.163              2.361
 Vibration     1          0.725              1.582              1.180
 Vibration     2          0.725              1.582              1.180

 Normal termination of Gaussian 16 at Fri Aug 22 19:31:50 2025.
