 Gaussian 16, Revision C.01,
 Gaussian 16:  ES64L-G16RevC.01  3-Jul-2019

 -----------------------------------------
 # sp b3lyp/6-311g** Force nosymm scf=(qc)
 -----------------------------------------

 -------------------
 Title Card Required
 -------------------
 Symbolic Z-matrix:
 Charge =  0 Multiplicity = 2

                          Input orientation:
 ---------------------------------------------------------------------
 Center     Atomic      Atomic             Coordinates (Angstroms)
 Number     Number       Type             X           Y           Z
 ---------------------------------------------------------------------
      1          1           0        0.000000    0.000000    0.000000
      2          1           0       -3.100000    0.000000    0.000000
      3          9           0        2.200000    0.000000    0.000000
 ---------------------------------------------------------------------

 SCF Done:  E(UB3LYP) =  -100.775881853     a.u. after   19 cycles

 Alpha  occ. eigenvalues --  -24.66937  -1.08508  -0.38287  -0.38287  -0.36913
 Alpha  occ. eigenvalues --   -0.33237
 Alpha virt. eigenvalues --   -0.21834   0.21197   0.27854   0.91816   0.95712
 Alpha virt. eigenvalues --    0.95712   1.08449   1.21517   1.21517   1.24057
 Alpha virt. eigenvalues --    1.24057   1.24455   1.42204   2.12442   2.14697

  Beta  occ. eigenvalues --  -24.69547  -1.15869  -0.48600  -0.40875  -0.40875
  Beta virt. eigenvalues --   -0.12838  -0.04727   0.31834   0.39710   0.88834
  Beta virt. eigenvalues --    0.94637   0.94637   1.06442   1.37560   1.37560
  Beta virt. eigenvalues --    1.47510   1.47510   1.47738   1.52235   2.33082

 Mulliken charges and spin densities:
               1          2
     1  H    0.144753   0.825252
     2  H    0.003336   0.996739
     3  F   -0.148089  -0.821990
 Sum of Mulliken charges =   0.00000   1.00000

 Dipole moment (field-independent basis, Debye):
    X=             -1.6819    Y=             -0.0000    Z=             -0.0000  Tot=              1.6819
 Quadrupole moment (field-independent basis, Debye-Ang):
   XX=             -9.8501   YY=             -7.5137   ZZ=             -7.5137
   XY=             -0.0000   XZ=             -0.0000   YZ=             -0.0000

  Exact polarizability:      32.124      -0.000       2.040      -0.000      -0.000       2.040
 Approx polarizability:      43.750      -0.000       1.930      -0.000       0.000       1.930

 ******    1 imaginary frequencies (negative Signs) ******

                      1                      2                      3
                      A                      A                      A
 Frequencies --   -844.1023               123.5688               351.2663
 Red. masses --      1.0614                 1.0502                 1.0226
 Frc consts  --      0.4456                 0.0094                 0.0743
 IR Inten    --     84.2317                 1.3236                19.2206

                      4
                      A
 Frequencies --    351.2663
 Red. masses --      1.0226
 Frc consts  --      0.0743
 IR Inten    --     19.2206

 - Thermochemistry -
 -------------------
 Temperature   298.150 Kelvin.  Pressure   1.00000 Atm.
 Atom     1 has atomic number  1 and mass   1.00783

 Molecular mass:    21.01405 amu.
 Principal axes and moments of inertia in atomic units:
                           1         2         3
     Eigenvalues --     0.00000 108.80621 108.80621
           X            1.00000  -0.00000   0.00000
           Y            0.00000   1.00000   0.00000
           Z            0.00000   0.00000   1.00000
 This molecule is a prolate symmetric top.
 Rotational symmetry number  1.
 Rotational temperature (Kelvin)      0.79604
 Rotational constant (GHZ):          16.586748
    1 imaginary frequencies ignored.
 Zero-point vibrational energy       4941.2 (Joules/Mol)
                                    1.18097 (Kcal/Mol)
 Warning -- explicit consideration of   3 degrees of freedom as
           vibrations may cause significant error
 Vibrational temperatures:    177.79   505.39   505.39
          (Kelvin)

 Zero-point correction=                           0.001882 (Hartree/Particle)
 Thermal correction to Energy=                    0.005653
 Thermal correction to Enthalpy=                  0.006597
 Thermal correction to Gibbs Free Energy=        -0.019808
 Sum of electronic and zero-point Energies=           -100.774000
 Sum of electronic and thermal Energies=              -100.770229
 Sum of electronic and thermal Enthalpies=            -100.769285
 Sum of electronic and thermal Free Energies=         -100.795689

                     E (Thermal)             CV                S
                      KCal/Mol        Cal/Mol-Kelvin    Cal/Mol-Kelvin
 Total                    3.547             10.043             55.573
 Electronic               0.000              0.000              1.377
 Translational            0.889              2.981             35.068
 Rotational               0.592              1.987             13.763
 Vibrational              2.066              5.075              5.365
 Vibration     1          0.610              1.929              3.044
 Vibration     2          0.728              1.573              1.161
 Vibration     3          0.728              1.573              1.161

 Normal termination of Gaussian 16 at Fri Aug 22 17:12:43 2025.
