 Gaussian 16, Revision C.01,
 Gaussian 16:  ES64L-G16RevC.01  3-Jul-2019

 -----------------------------------------
 # sp b3lyp/6-311g** Force nosymm scf=(qc)
 -----------------------------------------

 -------------------
 Title Card Required
 -------------------
 Symbolic Z-matrix:
 Charge =  0 Multiplicity = 2

                          Input orientation:
 ---------------------------------------------------------------------
 Center     Atomic      Atomic             Coordinates (Angstroms)
 Number     Number       Type             X           Y           Z
 ---------------------------------------------------------------------
      1          1           0        0.000000    0.000000    0.000000
      2          1           0       -1.850000    0.000000    0.000000
      3          9           0        3.150000    0.000000    0.000000
 ---------------------------------------------------------------------

 SCF Done:  E(UB3LYP) =  -100.783551330     a.u. after   30 cycles

 Alpha  occ. eigenvalues --  -24.74978  -1.20970  -0.54100  -0.45427  -0.45427
 Alpha  occ. eigenvalues --   -0.33667
 Alpha virt. eigenvalues --   -0.11552   0.25506   0.31079   0.88993   0.91715
 Alpha virt. eigenvalues --    0.91715   1.03072   1.11087   1.24126   1.24126
 Alpha virt. eigenvalues --    1.36752   1.36752   1.57862   2.13560   2.38757

  Beta  occ. eigenvalues --  -24.71899  -1.12132  -0.42343  -0.42343  -0.33663
  Beta virt. eigenvalues --   -0.25363  -0.11224   0.25756   0.31487   0.93192
  Beta virt. eigenvalues --    0.93192   0.97887   1.07010   1.11217   1.24114
  Beta virt. eigenvalues --    1.24114   1.37179   1.37179   1.58241   2.14492

 Mulliken charges and spin densities:
               1          2
     1  H    0.007155  -0.747215
     2  H    0.013622   0.771327
     3  F   -0.020777   0.975888
 Sum of Mulliken charges =  -0.00000   1.00000

 Dipole moment (field-independent basis, Debye):
    X=             -0.4548    Y=              0.0000    Z=             -0.0000  Tot=              0.4548
 Quadrupole moment (field-independent basis, Debye-Ang):
   XX=             -6.8008   YY=             -7.7381   ZZ=             -7.7381
   XY=              0.0000   XZ=             -0.0000   YZ=             -0.0000

  Exact polarizability:      56.610       0.000       2.010      -0.000       0.000       2.010
 Approx polarizability:      55.355       0.000       1.948      -0.000      -0.000       1.948

 ******    2 imaginary frequencies (negative Signs) ******

                      1                      2                      3
                      A                      A                      A
 Frequencies --  -1642.6153              -195.0715               704.9215
 Red. masses --      1.0079                 1.1085                 1.0128
 Frc consts  --      1.6022                 0.0249                 0.2965
 IR Inten    --     45.3508                19.8035                 0.0024

                      4
                      A
 Frequencies --    704.9215
 Red. masses --      1.0128
 Frc consts  --      0.2965
 IR Inten    --      0.0024

 - Thermochemistry -
 -------------------
 Temperature   298.150 Kelvin.  Pressure   1.00000 Atm.
 Atom     1 has atomic number  1 and mass   1.00783

 Molecular mass:    21.01405 amu.
 Principal axes and moments of inertia in atomic units:
                           1         2         3
     Eigenvalues --     0.00000 114.22139 114.22139
           X            1.00000  -0.00000   0.00000
           Y            0.00000   1.00000   0.00000
           Z            0.00000   0.00000   1.00000
 This molecule is a prolate symmetric top.
 Rotational symmetry number  1.
 Rotational temperature (Kelvin)      0.75830
 Rotational constant (GHZ):          15.800378
    2 imaginary frequencies ignored.
 Zero-point vibrational energy       8432.7 (Joules/Mol)
                                    2.01547 (Kcal/Mol)
 Vibrational temperatures:   1014.22  1014.22
          (Kelvin)

 Zero-point correction=                           0.003212 (Hartree/Particle)
 Thermal correction to Energy=                    0.005794
 Thermal correction to Enthalpy=                  0.006738
 Thermal correction to Gibbs Free Energy=        -0.017449
 Sum of electronic and zero-point Energies=           -100.780339
 Sum of electronic and thermal Energies=              -100.777758
 Sum of electronic and thermal Enthalpies=            -100.776813
 Sum of electronic and thermal Free Energies=         -100.801000

                     E (Thermal)             CV                S
                      KCal/Mol        Cal/Mol-Kelvin    Cal/Mol-Kelvin
 Total                    3.636              6.608             50.905
 Electronic               0.000              0.000              1.377
 Translational            0.889              2.981             35.068
 Rotational               0.592              1.987             13.859
 Vibrational              2.154              1.640              0.601

 Normal termination of Gaussian 16 at Fri Aug 22 20:09:40 2025.
