 Gaussian 16, Revision C.01,
 Gaussian 16:  ES64L-G16RevC.01  3-Jul-2019

 -----------------------------------------
 # sp b3lyp/6-311g** Force nosymm scf=(qc)
 -----------------------------------------

 -------------------
 Title Card Required
 -------------------
 Symbolic Z-matrix:
 Charge =  0 Multiplicity = 2

                          Input orientation:
 ---------------------------------------------------------------------
 Center     Atomic      Atomic             Coordinates (Angstroms)
 Number     Number       Type             X           Y           Z
 ---------------------------------------------------------------------
      1          1           0        0.000000    0.000000    0.000000
      2          1           0       -3.900000    0.000000    0.000000
      3          9           0        2.200000    0.000000    0.000000
 ---------------------------------------------------------------------

 SCF Done:  E(UB3LYP) =  -100.776193901     a.u. after   16 cycles

 Alpha  occ. eigenvalues --  -24.67117  -1.08650  -0.38438  -0.38438  -0.36775
 Alpha  occ. eigenvalues --   -0.32965
 Alpha virt. eigenvalues --   -0.21937   0.20711   0.27303   0.91255   0.95594
 Alpha virt. eigenvalues --    0.95594   1.08144   1.21503   1.21503   1.24507
 Alpha virt. eigenvalues --    1.24516   1.24516   1.42033   2.10024   2.15811

  Beta  occ. eigenvalues --  -24.69739  -1.16049  -0.48795  -0.41038  -0.41038
  Beta virt. eigenvalues --   -0.12470  -0.04497   0.30849   0.40014   0.88332
  Beta virt. eigenvalues --    0.94512   0.94512   1.05928   1.37584   1.37584
  Beta virt. eigenvalues --    1.48028   1.48028   1.48126   1.51858   2.31924

 Mulliken charges and spin densities:
               1          2
     1  H    0.144604   0.826323
     2  H    0.000389   0.999619
     3  F   -0.144993  -0.825942
 Sum of Mulliken charges =  -0.00000   1.00000

 Dipole moment (field-independent basis, Debye):
    X=             -1.6048    Y=             -0.0000    Z=              0.0000  Tot=              1.6048
 Quadrupole moment (field-independent basis, Debye-Ang):
   XX=             -9.8809   YY=             -7.5188   ZZ=             -7.5188
   XY=             -0.0000   XZ=              0.0000   YZ=             -0.0000

  Exact polarizability:      27.263      -0.000       2.041       0.000       0.000       2.041
 Approx polarizability:      38.256      -0.000       1.929       0.000      -0.000       1.929

 ******    1 imaginary frequencies (negative Signs) ******

                      1                      2                      3
                      A                      A                      A
 Frequencies --   -856.2995                46.3867               360.0195
 Red. masses --      1.0588                 1.0528                 1.0261
 Frc consts  --      0.4574                 0.0013                 0.0784
 IR Inten    --    103.8232                 0.0266                20.2347

                      4
                      A
 Frequencies --    360.0195
 Red. masses --      1.0261
 Frc consts  --      0.0784
 IR Inten    --     20.2347

 - Thermochemistry -
 -------------------
 Temperature   298.150 Kelvin.  Pressure   1.00000 Atm.
 Atom     1 has atomic number  1 and mass   1.00783

 Molecular mass:    21.01405 amu.
 Principal axes and moments of inertia in atomic units:
                           1         2         3
     Eigenvalues --     0.00000 139.44742 139.44742
           X            1.00000  -0.00000   0.00000
           Y            0.00000   1.00000   0.00000
           Z            0.00000   0.00000   1.00000
 This molecule is a prolate symmetric top.
 Rotational symmetry number  1.
 Rotational temperature (Kelvin)      0.62112
 Rotational constant (GHZ):          12.942091
    1 imaginary frequencies ignored.
 Zero-point vibrational energy       4584.2 (Joules/Mol)
                                    1.09566 (Kcal/Mol)
 Warning -- explicit consideration of   3 degrees of freedom as
           vibrations may cause significant error
 Vibrational temperatures:     66.74   517.99   517.99
          (Kelvin)

 Zero-point correction=                           0.001746 (Hartree/Particle)
 Thermal correction to Energy=                    0.005650
 Thermal correction to Enthalpy=                  0.006594
 Thermal correction to Gibbs Free Energy=        -0.020922
 Sum of electronic and zero-point Energies=           -100.774448
 Sum of electronic and thermal Energies=              -100.770544
 Sum of electronic and thermal Enthalpies=            -100.769600
 Sum of electronic and thermal Free Energies=         -100.797116

                     E (Thermal)             CV                S
                      KCal/Mol        Cal/Mol-Kelvin    Cal/Mol-Kelvin
 Total                    3.545             10.056             57.911
 Electronic               0.000              0.000              1.377
 Translational            0.889              2.981             35.068
 Rotational               0.592              1.987             14.256
 Vibrational              2.064              5.088              7.210
 Vibration     1          0.595              1.979              4.966
 Vibration     2          0.735              1.555              1.122
 Vibration     3          0.735              1.555              1.122

 Normal termination of Gaussian 16 at Fri Aug 22 17:13:26 2025.
