 Gaussian 16, Revision C.01,
 Gaussian 16:  ES64L-G16RevC.01  3-Jul-2019

 -----------------------------------------
 # sp b3lyp/6-311g** Force nosymm scf=(qc)
 -----------------------------------------

 -------------------
 Title Card Required
 -------------------
 Symbolic Z-matrix:
 Charge =  0 Multiplicity = 2

                          Input orientation:
 ---------------------------------------------------------------------
 Center     Atomic      Atomic             Coordinates (Angstroms)
 Number     Number       Type             X           Y           Z
 ---------------------------------------------------------------------
      1          1           0        0.000000    0.000000    0.000000
      2          1           0       -1.600000    0.000000    0.000000
      3          9           0        3.800000    0.000000    0.000000
 ---------------------------------------------------------------------

 SCF Done:  E(UB3LYP) =  -100.805993973     a.u. after  110 cycles

 Alpha  occ. eigenvalues --  -24.76243  -1.22141  -0.55344  -0.46521  -0.46500
 Alpha  occ. eigenvalues --   -0.33281
 Alpha virt. eigenvalues --   -0.10264   0.25407   0.30587   0.86026   0.90904
 Alpha virt. eigenvalues --    0.91442   1.00937   1.06688   1.22392   1.22394
 Alpha virt. eigenvalues --    1.39494   1.39496   1.74498   2.19377   2.43788

  Beta  occ. eigenvalues --  -24.73088  -1.13068  -0.43360  -0.43337  -0.33276
  Beta virt. eigenvalues --   -0.25993  -0.10287   0.25393   0.30622   0.92405
  Beta virt. eigenvalues --    0.92911   0.95494   1.05065   1.06690   1.22387
  Beta virt. eigenvalues --    1.22390   1.39488   1.39489   1.74517   2.19474

 Mulliken charges and spin densities:
               1          2
     1  H    0.000912  -0.452576
     2  H   -0.002060   0.452530
     3  F    0.001148   1.000047
 Sum of Mulliken charges =   0.00000   1.00000

 Dipole moment (field-independent basis, Debye):
    X=              0.0284    Y=             -0.0000    Z=             -0.0000  Tot=              0.0284
 Quadrupole moment (field-independent basis, Debye-Ang):
   XX=             -6.4515   YY=             -7.7694   ZZ=             -6.9051
   XY=              0.0000   XZ=             -0.0001   YZ=             -0.0113

  Exact polarizability:      23.489       0.000       2.028      -0.000      -0.006       2.490
 Approx polarizability:      41.102       0.000       2.004      -0.000      -0.008       2.587

 ******    2 imaginary frequencies (negative Signs) ******

                      1                      2                      3
                      A                      A                      A
 Frequencies --  -2062.5550               -48.5451              1057.6961
 Red. masses --      1.0078                 1.1085                 1.0108
 Frc consts  --      2.5261                 0.0015                 0.6662
 IR Inten    --      0.0167                 0.0632                 0.0018

                      4
                      A
 Frequencies --   1059.1722
 Red. masses --      1.0108
 Frc consts  --      0.6681
 IR Inten    --      0.0005

 - Thermochemistry -
 -------------------
 Temperature   298.150 Kelvin.  Pressure   1.00000 Atm.
 Atom     1 has atomic number  1 and mass   1.00783

 Molecular mass:    21.01405 amu.
 Principal axes and moments of inertia in atomic units:
                           1         2         3
     Eigenvalues --     0.00000 142.30732 142.30732
           X            1.00000  -0.00000   0.00000
           Y            0.00000   1.00000   0.00000
           Z            0.00000   0.00000   1.00000
 This molecule is a prolate symmetric top.
 Rotational symmetry number  1.
 Rotational temperature (Kelvin)      0.60864
 Rotational constant (GHZ):          12.681998
    2 imaginary frequencies ignored.
 Zero-point vibrational energy      12661.7 (Joules/Mol)
                                    3.02622 (Kcal/Mol)
 Vibrational temperatures:   1521.79  1523.91
          (Kelvin)

 Zero-point correction=                           0.004823 (Hartree/Particle)
 Thermal correction to Energy=                    0.007242
 Thermal correction to Enthalpy=                  0.008186
 Thermal correction to Gibbs Free Energy=        -0.015993
 Sum of electronic and zero-point Energies=           -100.801171
 Sum of electronic and thermal Energies=              -100.798752
 Sum of electronic and thermal Enthalpies=            -100.797808
 Sum of electronic and thermal Free Energies=         -100.821987

                     E (Thermal)             CV                S
                      KCal/Mol        Cal/Mol-Kelvin    Cal/Mol-Kelvin
 Total                    4.544              5.603             50.889
 Electronic               0.000              0.000              1.377
 Translational            0.889              2.981             35.068
 Rotational               0.592              1.987             14.296
 Vibrational              3.063              0.635              0.148

 Normal termination of Gaussian 16 at Sat Aug 23 00:42:38 2025.
