 Gaussian 16, Revision C.01,
 Gaussian 16:  ES64L-G16RevC.01  3-Jul-2019

 -----------------------------------------
 # sp b3lyp/6-311g** Force nosymm scf=(qc)
 -----------------------------------------

 -------------------
 Title Card Required
 -------------------
 Symbolic Z-matrix:
 Charge =  0 Multiplicity = 2

                          Input orientation:
 ---------------------------------------------------------------------
 Center     Atomic      Atomic             Coordinates (Angstroms)
 Number     Number       Type             X           Y           Z
 ---------------------------------------------------------------------
      1          1           0        0.000000    0.000000    0.000000
      2          1           0       -3.900000    0.000000    0.000000
      3          9           0        3.600000    0.000000    0.000000
 ---------------------------------------------------------------------

 SCF Done:  E(UB3LYP) =  -100.758735058     a.u. after   32 cycles

 Alpha  occ. eigenvalues --  -24.75531  -1.21483  -0.54654  -0.45888  -0.45888
 Alpha  occ. eigenvalues --   -0.32277
 Alpha virt. eigenvalues --   -0.06170   0.24150   0.37460   0.87300   0.91391
 Alpha virt. eigenvalues --    0.91391   1.01584   1.25219   1.25219   1.25250
 Alpha virt. eigenvalues --    1.46389   1.46389   1.47086   2.14609   2.42470

  Beta  occ. eigenvalues --  -24.72407  -1.12506  -0.42757  -0.42757  -0.32699
  Beta virt. eigenvalues --   -0.25555  -0.05912   0.23890   0.38192   0.92883
  Beta virt. eigenvalues --    0.92883   0.96501   1.05626   1.24741   1.24741
  Beta virt. eigenvalues --    1.24755   1.46593   1.46713   1.46713   2.14715

 Mulliken charges and spin densities:
               1          2
     1  H    0.008744  -0.989534
     2  H    0.000050   0.999204
     3  F   -0.008794   0.990330
 Sum of Mulliken charges =  -0.00000   1.00000

 Dipole moment (field-independent basis, Debye):
    X=             -0.1639    Y=              0.0000    Z=             -0.0000  Tot=              0.1639
 Quadrupole moment (field-independent basis, Debye-Ang):
   XX=             -7.2879   YY=             -7.6183   ZZ=             -7.6183
   XY=              0.0000   XZ=             -0.0000   YZ=              0.0000

  Exact polarizability:      20.194       0.000       2.042      -0.000       0.000       2.042
 Approx polarizability:      15.468       0.000       1.935      -0.000       0.000       1.935

 ******    2 imaginary frequencies (negative Signs) ******

                      1                      2                      3
                      A                      A                      A
 Frequencies --   -197.2767               -72.0506                47.0709
 Red. masses --      1.0403                 1.0717                 1.0189
 Frc consts  --      0.0239                 0.0033                 0.0013
 IR Inten    --      7.7920                 0.2726                 0.0629

                      4
                      A
 Frequencies --     47.0709
 Red. masses --      1.0189
 Frc consts  --      0.0013
 IR Inten    --      0.0629

 - Thermochemistry -
 -------------------
 Temperature   298.150 Kelvin.  Pressure   1.00000 Atm.
 Atom     1 has atomic number  1 and mass   1.00783

 Molecular mass:    21.01405 amu.
 Principal axes and moments of inertia in atomic units:
                           1         2         3
     Eigenvalues --     0.00000 227.82048 227.82048
           X            1.00000  -0.00000   0.00000
           Y            0.00000   1.00000   0.00000
           Z            0.00000   0.00000   1.00000
 This molecule is a prolate symmetric top.
 Rotational symmetry number  1.
 Rotational temperature (Kelvin)      0.38018
 Rotational constant (GHZ):           7.921769
    2 imaginary frequencies ignored.
 Zero-point vibrational energy        563.1 (Joules/Mol)
                                    0.13458 (Kcal/Mol)
 Warning -- explicit consideration of   2 degrees of freedom as
           vibrations may cause significant error
 Vibrational temperatures:     67.72    67.72
          (Kelvin)

 Zero-point correction=                           0.000214 (Hartree/Particle)
 Thermal correction to Energy=                    0.004257
 Thermal correction to Enthalpy=                  0.005201
 Thermal correction to Gibbs Free Energy=        -0.024043
 Sum of electronic and zero-point Energies=           -100.758521
 Sum of electronic and thermal Energies=              -100.754478
 Sum of electronic and thermal Enthalpies=            -100.753534
 Sum of electronic and thermal Free Energies=         -100.782778

                     E (Thermal)             CV                S
                      KCal/Mol        Cal/Mol-Kelvin    Cal/Mol-Kelvin
 Total                    2.671              8.925             61.550
 Electronic               0.000              0.000              1.377
 Translational            0.889              2.981             35.068
 Rotational               0.592              1.987             15.231
 Vibrational              1.190              3.957              9.874
 Vibration     1          0.595              1.979              4.937
 Vibration     2          0.595              1.979              4.937

 Normal termination of Gaussian 16 at Fri Aug 22 23:08:39 2025.
