 Gaussian 16, Revision C.01,
 Gaussian 16:  ES64L-G16RevC.01  3-Jul-2019

 -----------------------------------------
 # sp b3lyp/6-311g** Force nosymm scf=(qc)
 -----------------------------------------

 -------------------
 Title Card Required
 -------------------
 Symbolic Z-matrix:
 Charge =  0 Multiplicity = 2

                          Input orientation:
 ---------------------------------------------------------------------
 Center     Atomic      Atomic             Coordinates (Angstroms)
 Number     Number       Type             X           Y           Z
 ---------------------------------------------------------------------
      1          1           0        0.000000    0.000000    0.000000
      2          1           0       -3.250000    0.000000    0.000000
      3          9           0        1.500000    0.000000    0.000000
 ---------------------------------------------------------------------

 SCF Done:  E(UB3LYP) =  -100.854804249     a.u. after    7 cycles

 Alpha  occ. eigenvalues --  -24.64324  -1.09691  -0.43246  -0.36406  -0.36406
 Alpha  occ. eigenvalues --   -0.34278
 Alpha virt. eigenvalues --   -0.14380   0.20642   0.27771   0.93546   0.93546
 Alpha virt. eigenvalues --    1.03502   1.09674   1.23237   1.23237   1.23432
 Alpha virt. eigenvalues --    1.31266   1.31266   1.73324   2.13675   2.18754

  Beta  occ. eigenvalues --  -24.64265  -1.09535  -0.43102  -0.36351  -0.36351
  Beta virt. eigenvalues --   -0.14887  -0.06995   0.23598   0.37844   0.93523
  Beta virt. eigenvalues --    0.93523   1.03655   1.09706   1.30988   1.30988
  Beta virt. eigenvalues --    1.45191   1.45653   1.45653   1.73254   2.18288

 Mulliken charges and spin densities:
               1          2
     1  H    0.347370  -0.014971
     2  H    0.003515   0.996240
     3  F   -0.350885   0.018731
 Sum of Mulliken charges =  -0.00000   1.00000

 Dipole moment (field-independent basis, Debye):
    X=             -2.6412    Y=              0.0000    Z=              0.0000  Tot=              2.6412
 Quadrupole moment (field-independent basis, Debye-Ang):
   XX=             -9.8054   YY=             -7.3227   ZZ=             -7.3227
   XY=              0.0000   XZ=              0.0000   YZ=             -0.0000

  Exact polarizability:      16.469      -0.000       2.189       0.000       0.000       2.189
 Approx polarizability:      29.857      -0.000       2.114      -0.000      -0.000       2.114

 ******    2 imaginary frequencies (negative Signs) ******

                      1                      2                      3
                      A                      A                      A
 Frequencies --  -1166.2618              -109.3761              1011.2229
 Red. masses --      1.0566                 1.0549                 1.0294
 Frc consts  --      0.8467                 0.0074                 0.6202
 IR Inten    --     52.7717                 0.4982               114.8469

                      4
                      A
 Frequencies --   1011.2229
 Red. masses --      1.0294
 Frc consts  --      0.6202
 IR Inten    --    114.8469

 - Thermochemistry -
 -------------------
 Temperature   298.150 Kelvin.  Pressure   1.00000 Atm.
 Atom     1 has atomic number  1 and mass   1.00783

 Molecular mass:    21.01405 amu.
 Principal axes and moments of inertia in atomic units:
                           1         2         3
     Eigenvalues --     0.00000  82.55794  82.55794
           X            1.00000  -0.00000   0.00000
           Y            0.00000   1.00000   0.00000
           Z            0.00000   0.00000   1.00000
 This molecule is a prolate symmetric top.
 Rotational symmetry number  1.
 Rotational temperature (Kelvin)      1.04913
 Rotational constant (GHZ):          21.860298
    2 imaginary frequencies ignored.
 Zero-point vibrational energy      12096.9 (Joules/Mol)
                                    2.89123 (Kcal/Mol)
 Vibrational temperatures:   1454.92  1454.92
          (Kelvin)

 Zero-point correction=                           0.004607 (Hartree/Particle)
 Thermal correction to Energy=                    0.007038
 Thermal correction to Enthalpy=                  0.007983
 Thermal correction to Gibbs Free Energy=        -0.015697
 Sum of electronic and zero-point Energies=           -100.850197
 Sum of electronic and thermal Energies=              -100.847766
 Sum of electronic and thermal Enthalpies=            -100.846822
 Sum of electronic and thermal Free Energies=         -100.870501

                     E (Thermal)             CV                S
                      KCal/Mol        Cal/Mol-Kelvin    Cal/Mol-Kelvin
 Total                    4.417              5.698             49.838
 Electronic               0.000              0.000              1.377
 Translational            0.889              2.981             35.068
 Rotational               0.592              1.987             13.214
 Vibrational              2.936              0.730              0.179

 Normal termination of Gaussian 16 at Fri Aug 22 16:26:27 2025.
