 Gaussian 16, Revision C.01,
 Gaussian 16:  ES64L-G16RevC.01  3-Jul-2019

 -----------------------------------------
 # sp b3lyp/6-311g** Force nosymm scf=(qc)
 -----------------------------------------

 -------------------
 Title Card Required
 -------------------
 Symbolic Z-matrix:
 Charge =  0 Multiplicity = 2

                          Input orientation:
 ---------------------------------------------------------------------
 Center     Atomic      Atomic             Coordinates (Angstroms)
 Number     Number       Type             X           Y           Z
 ---------------------------------------------------------------------
      1          1           0        0.000000    0.000000    0.000000
      2          1           0       -0.900000    0.000000    0.000000
      3          9           0        1.300000    0.000000    0.000000
 ---------------------------------------------------------------------

 SCF Done:  E(UB3LYP) =  -100.942071080     a.u. after    7 cycles

 Alpha  occ. eigenvalues --  -24.67718  -1.15941  -0.55879  -0.40336  -0.40336
 Alpha  occ. eigenvalues --   -0.39421
 Alpha virt. eigenvalues --    0.08094   0.19359   0.39017   0.88863   0.88863
 Alpha virt. eigenvalues --    0.97985   1.07846   1.07846   1.34040   1.64119
 Alpha virt. eigenvalues --    1.69430   1.69430   2.19416   2.32903   2.65331

  Beta  occ. eigenvalues --  -24.65718  -1.10652  -0.47752  -0.38443  -0.38443
  Beta virt. eigenvalues --   -0.22019   0.10259   0.20880   0.42573   0.90085
  Beta virt. eigenvalues --    0.90085   1.02476   1.11636   1.11636   1.38081
  Beta virt. eigenvalues --    1.68254   1.71997   1.71997   2.20256   2.39416

 Mulliken charges and spin densities:
               1          2
     1  H    0.219556  -0.064834
     2  H    0.028799   0.479264
     3  F   -0.248355   0.585569
 Sum of Mulliken charges =  -0.00000   1.00000

 Dipole moment (field-independent basis, Debye):
    X=             -1.8094    Y=             -0.0000    Z=              0.0000  Tot=              1.8094
 Quadrupole moment (field-independent basis, Debye-Ang):
   XX=             -7.4278   YY=             -6.8218   ZZ=             -6.8218
   XY=             -0.0000   XZ=              0.0000   YZ=              0.0000

  Exact polarizability:      21.843      -0.000       2.457      -0.000       0.000       2.457
 Approx polarizability:      30.053       0.000       2.468       0.000       0.000       2.468

 ******    1 imaginary frequencies (negative Signs) ******

                      1                      2                      3
                      A                      A                      A
 Frequencies --  -1502.8863               861.1539               861.1539
 Red. masses --      1.0691                 1.0141                 1.0141
 Frc consts  --      1.4227                 0.4431                 0.4431
 IR Inten    --    416.4553                10.6632                10.6632

                      4
                      A
 Frequencies --   1756.6296
 Red. masses --      1.0428
 Frc consts  --      1.8958
 IR Inten    --    316.9722

 - Thermochemistry -
 -------------------
 Temperature   298.150 Kelvin.  Pressure   1.00000 Atm.
 Atom     1 has atomic number  1 and mass   1.00783

 Molecular mass:    21.01405 amu.
 Principal axes and moments of inertia in atomic units:
                           1         2         3
     Eigenvalues --     0.00000  21.38709  21.38709
           X            1.00000  -0.00000   0.00000
           Y            0.00000   1.00000   0.00000
           Z            0.00000   0.00000   1.00000
 This molecule is a prolate symmetric top.
 Rotational symmetry number  1.
 Rotational temperature (Kelvin)      4.04982
 Rotational constant (GHZ):          84.384604
    1 imaginary frequencies ignored.
 Zero-point vibrational energy      20808.7 (Joules/Mol)
                                    4.97339 (Kcal/Mol)
 Vibrational temperatures:   1239.01  1239.01  2527.40
          (Kelvin)

 Zero-point correction=                           0.007926 (Hartree/Particle)
 Thermal correction to Energy=                    0.010413
 Thermal correction to Enthalpy=                  0.011357
 Thermal correction to Gibbs Free Energy=        -0.011119
 Sum of electronic and zero-point Energies=           -100.934145
 Sum of electronic and thermal Energies=              -100.931658
 Sum of electronic and thermal Enthalpies=            -100.930714
 Sum of electronic and thermal Free Energies=         -100.953190

                     E (Thermal)             CV                S
                      KCal/Mol        Cal/Mol-Kelvin    Cal/Mol-Kelvin
 Total                    6.534              6.108             47.305
 Electronic               0.000              0.000              1.377
 Translational            0.889              2.981             35.068
 Rotational               0.592              1.987             10.530
 Vibrational              5.053              1.140              0.330

 Normal termination of Gaussian 16 at Fri Aug 22 16:14:14 2025.
