 Gaussian 16, Revision C.01,
 Gaussian 16:  ES64L-G16RevC.01  3-Jul-2019

 -----------------------------------------
 # sp b3lyp/6-311g** Force nosymm scf=(qc)
 -----------------------------------------

 -------------------
 Title Card Required
 -------------------
 Symbolic Z-matrix:
 Charge =  0 Multiplicity = 2

                          Input orientation:
 ---------------------------------------------------------------------
 Center     Atomic      Atomic             Coordinates (Angstroms)
 Number     Number       Type             X           Y           Z
 ---------------------------------------------------------------------
      1          1           0        0.000000    0.000000    0.000000
      2          1           0       -2.850000    0.000000    0.000000
      3          9           0        2.700000    0.000000    0.000000
 ---------------------------------------------------------------------

 SCF Done:  E(UB3LYP) =  -100.765381756     a.u. after   20 cycles

 Alpha  occ. eigenvalues --  -24.72835  -1.18980  -0.51946  -0.43625  -0.43625
 Alpha  occ. eigenvalues --   -0.33089
 Alpha virt. eigenvalues --   -0.10361   0.24605   0.34326   0.90142   0.93014
 Alpha virt. eigenvalues --    0.93014   1.05742   1.24471   1.24471   1.25785
 Alpha virt. eigenvalues --    1.40657   1.40657   1.42384   2.15363   2.36603

  Beta  occ. eigenvalues --  -24.69901  -1.10600  -0.40694  -0.40694  -0.34622
  Beta virt. eigenvalues --   -0.24044  -0.08201   0.25049   0.36137   0.94437
  Beta virt. eigenvalues --    0.94437   0.98119   1.09074   1.22772   1.22772
  Beta virt. eigenvalues --    1.26039   1.43899   1.43899   1.44182   2.15218

 Mulliken charges and spin densities:
               1          2
     1  H    0.060428  -0.917451
     2  H    0.003631   0.988986
     3  F   -0.064059   0.928465
 Sum of Mulliken charges =  -0.00000   1.00000

 Dipole moment (field-independent basis, Debye):
    X=             -0.9343    Y=              0.0000    Z=              0.0000  Tot=              0.9343
 Quadrupole moment (field-independent basis, Debye-Ang):
   XX=             -8.7224   YY=             -7.6096   ZZ=             -7.6096
   XY=             -0.0000   XZ=             -0.0000   YZ=             -0.0000

  Exact polarizability:      37.345      -0.000       2.018      -0.000      -0.000       2.018
 Approx polarizability:      40.664      -0.000       1.920      -0.000      -0.000       1.920

 ******    2 imaginary frequencies (negative Signs) ******

                      1                      2                      3
                      A                      A                      A
 Frequencies --   -583.6538              -238.0095               223.3632
 Red. masses --      1.0306                 1.0822                 1.0186
 Frc consts  --      0.2069                 0.0361                 0.0299
 IR Inten    --     54.8327                 7.9372                 3.2370

                      4
                      A
 Frequencies --    223.3632
 Red. masses --      1.0186
 Frc consts  --      0.0299
 IR Inten    --      3.2370

 - Thermochemistry -
 -------------------
 Temperature   298.150 Kelvin.  Pressure   1.00000 Atm.
 Atom     1 has atomic number  1 and mass   1.00783

 Molecular mass:    21.01405 amu.
 Principal axes and moments of inertia in atomic units:
                           1         2         3
     Eigenvalues --     0.00000 125.34717 125.34717
           X            1.00000  -0.00000   0.00000
           Y            0.00000   1.00000   0.00000
           Z            0.00000   0.00000   1.00000
 This molecule is a prolate symmetric top.
 Rotational symmetry number  1.
 Rotational temperature (Kelvin)      0.69099
 Rotational constant (GHZ):          14.397941
    2 imaginary frequencies ignored.
 Zero-point vibrational energy       2672.0 (Joules/Mol)
                                    0.63863 (Kcal/Mol)
 Warning -- explicit consideration of   2 degrees of freedom as
           vibrations may cause significant error
 Vibrational temperatures:    321.37   321.37
          (Kelvin)

 Zero-point correction=                           0.001018 (Hartree/Particle)
 Thermal correction to Energy=                    0.004428
 Thermal correction to Enthalpy=                  0.005372
 Thermal correction to Gibbs Free Energy=        -0.020452
 Sum of electronic and zero-point Energies=           -100.764364
 Sum of electronic and thermal Energies=              -100.760954
 Sum of electronic and thermal Enthalpies=            -100.760009
 Sum of electronic and thermal Free Energies=         -100.785834

                     E (Thermal)             CV                S
                      KCal/Mol        Cal/Mol-Kelvin    Cal/Mol-Kelvin
 Total                    2.779              8.579             54.353
 Electronic               0.000              0.000              1.377
 Translational            0.889              2.981             35.068
 Rotational               0.592              1.987             14.044
 Vibrational              1.298              3.611              3.863
 Vibration     1          0.649              1.805              1.932
 Vibration     2          0.649              1.805              1.932

 Normal termination of Gaussian 16 at Fri Aug 22 18:26:16 2025.
