 Gaussian 16, Revision C.01,
 Gaussian 16:  ES64L-G16RevC.01  3-Jul-2019

 -----------------------------------------
 # sp b3lyp/6-311g** Force nosymm scf=(qc)
 -----------------------------------------

 -------------------
 Title Card Required
 -------------------
 Symbolic Z-matrix:
 Charge =  0 Multiplicity = 2

                          Input orientation:
 ---------------------------------------------------------------------
 Center     Atomic      Atomic             Coordinates (Angstroms)
 Number     Number       Type             X           Y           Z
 ---------------------------------------------------------------------
      1          1           0        0.000000    0.000000    0.000000
      2          1           0       -2.450000    0.000000    0.000000
      3          9           0        1.250000    0.000000    0.000000
 ---------------------------------------------------------------------

 SCF Done:  E(UB3LYP) =  -100.914372716     a.u. after    6 cycles

 Alpha  occ. eigenvalues --  -24.64100  -1.11463  -0.46827  -0.37067  -0.37067
 Alpha  occ. eigenvalues --   -0.35503
 Alpha virt. eigenvalues --   -0.06378   0.24304   0.27738   0.93274   0.93274
 Alpha virt. eigenvalues --    1.01574   1.19504   1.22016   1.22016   1.31134
 Alpha virt. eigenvalues --    1.34532   1.34532   1.72580   2.12968   2.27731

  Beta  occ. eigenvalues --  -24.64036  -1.11300  -0.46560  -0.37008  -0.37008
  Beta virt. eigenvalues --   -0.12320  -0.03378   0.27550   0.36112   0.93268
  Beta virt. eigenvalues --    0.93268   1.01724   1.24946   1.34369   1.34369
  Beta virt. eigenvalues --    1.42938   1.42938   1.45548   1.72904   2.26945

 Mulliken charges and spin densities:
               1          2
     1  H    0.347492  -0.003662
     2  H    0.012832   0.984009
     3  F   -0.360324   0.019652
 Sum of Mulliken charges =  -0.00000   1.00000

 Dipole moment (field-independent basis, Debye):
    X=             -2.5025    Y=              0.0000    Z=              0.0000  Tot=              2.5025
 Quadrupole moment (field-independent basis, Debye-Ang):
   XX=             -8.6471   YY=             -7.1585   ZZ=             -7.1585
   XY=              0.0000   XZ=              0.0000   YZ=             -0.0000

  Exact polarizability:      14.244       0.000       2.327       0.000       0.000       2.327
 Approx polarizability:      18.855       0.000       2.280       0.000       0.000       2.280

 ******    1 imaginary frequencies (negative Signs) ******

                      1                      2                      3
                      A                      A                      A
 Frequencies --   -318.4204               306.6960              1161.6329
 Red. masses --      1.0101                 1.1057                 1.0277
 Frc consts  --      0.0603                 0.0613                 0.8171
 IR Inten    --     64.6772                70.6658               123.4393

                      4
                      A
 Frequencies --   1161.6329
 Red. masses --      1.0277
 Frc consts  --      0.8171
 IR Inten    --    123.4393

 - Thermochemistry -
 -------------------
 Temperature   298.150 Kelvin.  Pressure   1.00000 Atm.
 Atom     1 has atomic number  1 and mass   1.00783

 Molecular mass:    21.01405 amu.
 Principal axes and moments of inertia in atomic units:
                           1         2         3
     Eigenvalues --     0.00000  50.66458  50.66458
           X            1.00000  -0.00000   0.00000
           Y            0.00000   1.00000   0.00000
           Z            0.00000   0.00000   1.00000
 This molecule is a prolate symmetric top.
 Rotational symmetry number  1.
 Rotational temperature (Kelvin)      1.70956
 Rotational constant (GHZ):          35.621361
    1 imaginary frequencies ignored.
 Zero-point vibrational energy      15730.7 (Joules/Mol)
                                    3.75972 (Kcal/Mol)
 Warning -- explicit consideration of   1 degrees of freedom as
           vibrations may cause significant error
 Vibrational temperatures:    441.27  1671.33  1671.33
          (Kelvin)

 Zero-point correction=                           0.005991 (Hartree/Particle)
 Thermal correction to Energy=                    0.008803
 Thermal correction to Enthalpy=                  0.009747
 Thermal correction to Gibbs Free Energy=        -0.014089
 Sum of electronic and zero-point Energies=           -100.908381
 Sum of electronic and thermal Energies=              -100.905570
 Sum of electronic and thermal Enthalpies=            -100.904626
 Sum of electronic and thermal Free Energies=         -100.928461

                     E (Thermal)             CV                S
                      KCal/Mol        Cal/Mol-Kelvin    Cal/Mol-Kelvin
 Total                    5.524              7.092             50.166
 Electronic               0.000              0.000              1.377
 Translational            0.889              2.981             35.068
 Rotational               0.592              1.987             12.244
 Vibrational              4.043              2.124              1.477
 Vibration     1          0.697              1.661              1.380

 Normal termination of Gaussian 16 at Fri Aug 22 16:12:54 2025.
