 Gaussian 16, Revision C.01,
 Gaussian 16:  ES64L-G16RevC.01  3-Jul-2019

 -----------------------------------------
 # sp b3lyp/6-311g** Force nosymm scf=(qc)
 -----------------------------------------

 -------------------
 Title Card Required
 -------------------
 Symbolic Z-matrix:
 Charge =  0 Multiplicity = 2

                          Input orientation:
 ---------------------------------------------------------------------
 Center     Atomic      Atomic             Coordinates (Angstroms)
 Number     Number       Type             X           Y           Z
 ---------------------------------------------------------------------
      1          1           0        0.000000    0.000000    0.000000
      2          1           0       -2.000000    0.000000    0.000000
      3          9           0        2.100000    0.000000    0.000000
 ---------------------------------------------------------------------

 SCF Done:  E(UB3LYP) =  -100.794838003     a.u. after   15 cycles

 Alpha  occ. eigenvalues --  -24.68982  -1.15304  -0.48070  -0.40374  -0.40374
 Alpha  occ. eigenvalues --   -0.36075
 Alpha virt. eigenvalues --   -0.13428   0.24108   0.31282   0.87914   0.94790
 Alpha virt. eigenvalues --    0.94790   1.04978   1.21832   1.21832   1.27149
 Alpha virt. eigenvalues --    1.34095   1.34095   1.56347   2.10930   2.32141

  Beta  occ. eigenvalues --  -24.66453  -1.08192  -0.37872  -0.37872  -0.36852
  Beta virt. eigenvalues --   -0.21898  -0.11670   0.26290   0.31782   0.91311
  Beta virt. eigenvalues --    0.95751   0.95751   1.08348   1.22668   1.22668
  Beta virt. eigenvalues --    1.36398   1.36398   1.36425   1.53799   2.11681

 Mulliken charges and spin densities:
               1          2
     1  H    0.119445  -0.676254
     2  H    0.041572   0.880488
     3  F   -0.161017   0.795766
 Sum of Mulliken charges =   0.00000   1.00000

 Dipole moment (field-independent basis, Debye):
    X=             -2.0884    Y=              0.0000    Z=             -0.0000  Tot=              2.0884
 Quadrupole moment (field-independent basis, Debye-Ang):
   XX=             -8.6399   YY=             -7.5783   ZZ=             -7.5783
   XY=              0.0000   XZ=             -0.0000   YZ=              0.0000

  Exact polarizability:      51.971      -0.000       2.045      -0.000      -0.000       2.045
 Approx polarizability:      61.177      -0.000       1.954       0.000      -0.000       1.954

 ******    2 imaginary frequencies (negative Signs) ******

                      1                      2                      3
                      A                      A                      A
 Frequencies --  -1501.5867              -539.9516               619.6355
 Red. masses --      1.0158                 1.0990                 1.0174
 Frc consts  --      1.3494                 0.1888                 0.2301
 IR Inten    --    109.8750                42.2722                 8.7093

                      4
                      A
 Frequencies --    619.6355
 Red. masses --      1.0174
 Frc consts  --      0.2301
 IR Inten    --      8.7093

 - Thermochemistry -
 -------------------
 Temperature   298.150 Kelvin.  Pressure   1.00000 Atm.
 Atom     1 has atomic number  1 and mass   1.00783

 Molecular mass:    21.01405 amu.
 Principal axes and moments of inertia in atomic units:
                           1         2         3
     Eigenvalues --     0.00000  69.73595  69.73595
           X            1.00000  -0.00000   0.00000
           Y            0.00000   1.00000   0.00000
           Z            0.00000   0.00000   1.00000
 This molecule is a prolate symmetric top.
 Rotational symmetry number  1.
 Rotational temperature (Kelvin)      1.24203
 Rotational constant (GHZ):          25.879638
    2 imaginary frequencies ignored.
 Zero-point vibrational energy       7412.5 (Joules/Mol)
                                    1.77163 (Kcal/Mol)
 Warning -- explicit consideration of   2 degrees of freedom as
           vibrations may cause significant error
 Vibrational temperatures:    891.52   891.52
          (Kelvin)

 Zero-point correction=                           0.002823 (Hartree/Particle)
 Thermal correction to Energy=                    0.005483
 Thermal correction to Enthalpy=                  0.006427
 Thermal correction to Gibbs Free Energy=        -0.017405
 Sum of electronic and zero-point Energies=           -100.792015
 Sum of electronic and thermal Energies=              -100.789355
 Sum of electronic and thermal Enthalpies=            -100.788411
 Sum of electronic and thermal Free Energies=         -100.812243

                     E (Thermal)             CV                S
                      KCal/Mol        Cal/Mol-Kelvin    Cal/Mol-Kelvin
 Total                    3.440              6.949             50.158
 Electronic               0.000              0.000              1.377
 Translational            0.889              2.981             35.068
 Rotational               0.592              1.987             12.879
 Vibrational              1.959              1.981              0.834
 Vibration     1          0.980              0.990              0.417
 Vibration     2          0.980              0.990              0.417

 Normal termination of Gaussian 16 at Fri Aug 22 17:03:49 2025.
