 Gaussian 16, Revision C.01,
 Gaussian 16:  ES64L-G16RevC.01  3-Jul-2019

 -----------------------------------------
 # sp b3lyp/6-311g** Force nosymm scf=(qc)
 -----------------------------------------

 -------------------
 Title Card Required
 -------------------
 Symbolic Z-matrix:
 Charge =  0 Multiplicity = 2

                          Input orientation:
 ---------------------------------------------------------------------
 Center     Atomic      Atomic             Coordinates (Angstroms)
 Number     Number       Type             X           Y           Z
 ---------------------------------------------------------------------
      1          1           0        0.000000    0.000000    0.000000
      2          1           0       -1.300000    0.000000    0.000000
      3          9           0        1.350000    0.000000    0.000000
 ---------------------------------------------------------------------

 SCF Done:  E(UB3LYP) =  -100.912293198     a.u. after   11 cycles

 Alpha  occ. eigenvalues --  -24.64889  -1.12404  -0.50077  -0.38448  -0.37609
 Alpha  occ. eigenvalues --   -0.37609
 Alpha virt. eigenvalues --   -0.00553   0.19930   0.30240   0.92255   0.92255
 Alpha virt. eigenvalues --    1.01121   1.09753   1.11352   1.11352   1.47535
 Alpha virt. eigenvalues --    1.47535   1.56333   1.98884   2.24633   2.45390

  Beta  occ. eigenvalues --  -24.63580  -1.08961  -0.44070  -0.36374  -0.36374
  Beta virt. eigenvalues --   -0.21698   0.02832   0.22936   0.32473   0.92663
  Beta virt. eigenvalues --    0.92663   1.04299   1.14978   1.17568   1.17568
  Beta virt. eigenvalues --    1.50360   1.50360   1.59725   2.05361   2.28822

 Mulliken charges and spin densities:
               1          2
     1  H    0.258261  -0.123191
     2  H    0.066269   0.727445
     3  F   -0.324529   0.395746
 Sum of Mulliken charges =   0.00000   1.00000

 Dipole moment (field-independent basis, Debye):
    X=             -2.6284    Y=              0.0000    Z=             -0.0000  Tot=              2.6284
 Quadrupole moment (field-independent basis, Debye-Ang):
   XX=             -7.9422   YY=             -7.0603   ZZ=             -7.0603
   XY=              0.0000   XZ=             -0.0000   YZ=             -0.0000

  Exact polarizability:      28.057       0.000       2.413      -0.000      -0.000       2.413
 Approx polarizability:      39.843       0.000       2.379      -0.000       0.000       2.379

 ******    1 imaginary frequencies (negative Signs) ******

                      1                      2                      3
                      A                      A                      A
 Frequencies --  -2651.1453               418.1089              1138.2041
 Red. masses --      1.0230                 1.0907                 1.0175
 Frc consts  --      4.2363                 0.1123                 0.7766
 IR Inten    --    261.7576                28.4847                30.8534

                      4
                      A
 Frequencies --   1138.2041
 Red. masses --      1.0175
 Frc consts  --      0.7766
 IR Inten    --     30.8534

 - Thermochemistry -
 -------------------
 Temperature   298.150 Kelvin.  Pressure   1.00000 Atm.
 Atom     1 has atomic number  1 and mass   1.00783

 Molecular mass:    21.01405 amu.
 Principal axes and moments of inertia in atomic units:
                           1         2         3
     Eigenvalues --     0.00000  29.07152  29.07152
           X            1.00000  -0.00000   0.00000
           Y            0.00000   1.00000   0.00000
           Z            0.00000   0.00000   1.00000
 This molecule is a prolate symmetric top.
 Rotational symmetry number  1.
 Rotational temperature (Kelvin)      2.97934
 Rotational constant (GHZ):          62.079355
    1 imaginary frequencies ignored.
 Zero-point vibrational energy      16116.8 (Joules/Mol)
                                    3.85201 (Kcal/Mol)
 Warning -- explicit consideration of   1 degrees of freedom as
           vibrations may cause significant error
 Vibrational temperatures:    601.57  1637.62  1637.62
          (Kelvin)

 Zero-point correction=                           0.006139 (Hartree/Particle)
 Thermal correction to Energy=                    0.008834
 Thermal correction to Enthalpy=                  0.009778
 Thermal correction to Gibbs Free Energy=        -0.013309
 Sum of electronic and zero-point Energies=           -100.906155
 Sum of electronic and thermal Energies=              -100.903459
 Sum of electronic and thermal Enthalpies=            -100.902515
 Sum of electronic and thermal Free Energies=         -100.925602

                     E (Thermal)             CV                S
                      KCal/Mol        Cal/Mol-Kelvin    Cal/Mol-Kelvin
 Total                    5.543              6.897             48.591
 Electronic               0.000              0.000              1.377
 Translational            0.889              2.981             35.068
 Rotational               0.592              1.987             11.140
 Vibrational              4.062              1.929              1.005
 Vibration     1          0.781              1.431              0.898

 Normal termination of Gaussian 16 at Fri Aug 22 16:17:02 2025.
