 Gaussian 16, Revision C.01,
 Gaussian 16:  ES64L-G16RevC.01  3-Jul-2019

 -----------------------------------------
 # sp b3lyp/6-311g** Force nosymm scf=(qc)
 -----------------------------------------

 -------------------
 Title Card Required
 -------------------
 Symbolic Z-matrix:
 Charge =  0 Multiplicity = 2

                          Input orientation:
 ---------------------------------------------------------------------
 Center     Atomic      Atomic             Coordinates (Angstroms)
 Number     Number       Type             X           Y           Z
 ---------------------------------------------------------------------
      1          1           0        0.000000    0.000000    0.000000
      2          1           0       -3.400000    0.000000    0.000000
      3          9           0        2.850000    0.000000    0.000000
 ---------------------------------------------------------------------

 SCF Done:  E(UB3LYP) =  -100.762401184     a.u. after   21 cycles

 Alpha  occ. eigenvalues --  -24.73500  -1.19602  -0.52617  -0.44184  -0.44184
 Alpha  occ. eigenvalues --   -0.32664
 Alpha virt. eigenvalues --   -0.08818   0.23985   0.35772   0.89807   0.92624
 Alpha virt. eigenvalues --    0.92624   1.04790   1.24847   1.24847   1.25085
 Alpha virt. eigenvalues --    1.43091   1.43091   1.43640   2.14865   2.38923

  Beta  occ. eigenvalues --  -24.70514  -1.11059  -0.41199  -0.41199  -0.34141
  Beta virt. eigenvalues --   -0.24435  -0.06797   0.24096   0.37718   0.94070
  Beta virt. eigenvalues --    0.94070   0.98199   1.08318   1.23182   1.23182
  Beta virt. eigenvalues --    1.24397   1.45573   1.45839   1.45839   2.14739

 Mulliken charges and spin densities:
               1          2
     1  H    0.048755  -0.942819
     2  H    0.000728   0.997359
     3  F   -0.049483   0.945460
 Sum of Mulliken charges =  -0.00000   1.00000

 Dipole moment (field-independent basis, Debye):
    X=             -0.7352    Y=             -0.0000    Z=              0.0000  Tot=              0.7352
 Quadrupole moment (field-independent basis, Debye-Ang):
   XX=             -8.5955   YY=             -7.6033   ZZ=             -7.6033
   XY=             -0.0000   XZ=              0.0000   YZ=              0.0000

  Exact polarizability:      32.759      -0.000       2.024       0.000       0.000       2.024
 Approx polarizability:      35.628      -0.000       1.923       0.000      -0.000       1.923

 ******    2 imaginary frequencies (negative Signs) ******

                      1                      2                      3
                      A                      A                      A
 Frequencies --   -442.7030              -133.2411               160.9469
 Red. masses --      1.0473                 1.0644                 1.0202
 Frc consts  --      0.1209                 0.0111                 0.0156
 IR Inten    --     50.3576                 0.8124                 2.2283

                      4
                      A
 Frequencies --    160.9469
 Red. masses --      1.0202
 Frc consts  --      0.0156
 IR Inten    --      2.2283

 - Thermochemistry -
 -------------------
 Temperature   298.150 Kelvin.  Pressure   1.00000 Atm.
 Atom     1 has atomic number  1 and mass   1.00783

 Molecular mass:    21.01405 amu.
 Principal axes and moments of inertia in atomic units:
                           1         2         3
     Eigenvalues --     0.00000 155.52564 155.52564
           X            1.00000  -0.00000   0.00000
           Y            0.00000   1.00000   0.00000
           Z            0.00000   0.00000   1.00000
 This molecule is a prolate symmetric top.
 Rotational symmetry number  1.
 Rotational temperature (Kelvin)      0.55691
 Rotational constant (GHZ):          11.604139
    2 imaginary frequencies ignored.
 Zero-point vibrational energy       1925.4 (Joules/Mol)
                                    0.46017 (Kcal/Mol)
 Warning -- explicit consideration of   2 degrees of freedom as
           vibrations may cause significant error
 Vibrational temperatures:    231.57   231.57
          (Kelvin)

 Zero-point correction=                           0.000733 (Hartree/Particle)
 Thermal correction to Energy=                    0.004343
 Thermal correction to Enthalpy=                  0.005287
 Thermal correction to Gibbs Free Energy=        -0.021318
 Sum of electronic and zero-point Energies=           -100.761668
 Sum of electronic and thermal Energies=              -100.758058
 Sum of electronic and thermal Enthalpies=            -100.757114
 Sum of electronic and thermal Free Energies=         -100.783719

                     E (Thermal)             CV                S
                      KCal/Mol        Cal/Mol-Kelvin    Cal/Mol-Kelvin
 Total                    2.725              8.749             55.995
 Electronic               0.000              0.000              1.377
 Translational            0.889              2.981             35.068
 Rotational               0.592              1.987             14.473
 Vibrational              1.244              3.781              5.077
 Vibration     1          0.622              1.890              2.539
 Vibration     2          0.622              1.890              2.539

 Normal termination of Gaussian 16 at Fri Aug 22 18:54:49 2025.
