 Gaussian 16, Revision C.01,
 Gaussian 16:  ES64L-G16RevC.01  3-Jul-2019

 -----------------------------------------
 # sp b3lyp/6-311g** Force nosymm scf=(qc)
 -----------------------------------------

 -------------------
 Title Card Required
 -------------------
 Symbolic Z-matrix:
 Charge =  0 Multiplicity = 2

                          Input orientation:
 ---------------------------------------------------------------------
 Center     Atomic      Atomic             Coordinates (Angstroms)
 Number     Number       Type             X           Y           Z
 ---------------------------------------------------------------------
      1          1           0        0.000000    0.000000    0.000000
      2          1           0       -2.350000    0.000000    0.000000
      3          9           0        2.200000    0.000000    0.000000
 ---------------------------------------------------------------------

 SCF Done:  E(UB3LYP) =  -100.781948061     a.u. after   16 cycles

 Alpha  occ. eigenvalues --  -24.69690  -1.15990  -0.48749  -0.40975  -0.40975
 Alpha  occ. eigenvalues --   -0.34751
 Alpha virt. eigenvalues --   -0.13237   0.24457   0.32009   0.89033   0.94579
 Alpha virt. eigenvalues --    0.94579   1.06397   1.22973   1.22973   1.27047
 Alpha virt. eigenvalues --    1.35676   1.35676   1.50571   2.13214   2.30367

  Beta  occ. eigenvalues --  -24.67067  -1.08587  -0.38374  -0.38374  -0.36556
  Beta virt. eigenvalues --   -0.22045  -0.10450   0.25827   0.33908   0.93094
  Beta virt. eigenvalues --    0.95679   0.95679   1.08950   1.22012   1.22012
  Beta virt. eigenvalues --    1.40027   1.40027   1.42098   1.42971   2.12815

 Mulliken charges and spin densities:
               1          2
     1  H    0.121594  -0.781223
     2  H    0.020827   0.954918
     3  F   -0.142421   0.826305
 Sum of Mulliken charges =  -0.00000   1.00000

 Dipole moment (field-independent basis, Debye):
    X=             -1.8060    Y=             -0.0000    Z=              0.0000  Tot=              1.8060
 Quadrupole moment (field-independent basis, Debye-Ang):
   XX=             -9.0604   YY=             -7.5759   ZZ=             -7.5759
   XY=             -0.0000   XZ=              0.0000   YZ=              0.0000

  Exact polarizability:      44.448      -0.000       2.031       0.000       0.000       2.031
 Approx polarizability:      50.192      -0.000       1.930       0.000      -0.000       1.930

 ******    2 imaginary frequencies (negative Signs) ******

                      1                      2                      3
                      A                      A                      A
 Frequencies --  -1075.8891              -434.9981               444.0543
 Red. masses --      1.0261                 1.0872                 1.0188
 Frc consts  --      0.6998                 0.1212                 0.1184
 IR Inten    --     70.6710                30.3075                11.4868

                      4
                      A
 Frequencies --    444.0543
 Red. masses --      1.0188
 Frc consts  --      0.1184
 IR Inten    --     11.4868

 - Thermochemistry -
 -------------------
 Temperature   298.150 Kelvin.  Pressure   1.00000 Atm.
 Atom     1 has atomic number  1 and mass   1.00783

 Molecular mass:    21.01405 amu.
 Principal axes and moments of inertia in atomic units:
                           1         2         3
     Eigenvalues --     0.00000  84.06327  84.06327
           X            1.00000  -0.00000   0.00000
           Y            0.00000   1.00000   0.00000
           Z            0.00000   0.00000   1.00000
 This molecule is a prolate symmetric top.
 Rotational symmetry number  1.
 Rotational temperature (Kelvin)      1.03034
 Rotational constant (GHZ):          21.468843
    2 imaginary frequencies ignored.
 Zero-point vibrational energy       5312.1 (Joules/Mol)
                                    1.26961 (Kcal/Mol)
 Warning -- explicit consideration of   2 degrees of freedom as
           vibrations may cause significant error
 Vibrational temperatures:    638.90   638.90
          (Kelvin)

 Zero-point correction=                           0.002023 (Hartree/Particle)
 Thermal correction to Energy=                    0.004922
 Thermal correction to Enthalpy=                  0.005866
 Thermal correction to Gibbs Free Energy=        -0.018520
 Sum of electronic and zero-point Energies=           -100.779925
 Sum of electronic and thermal Energies=              -100.777027
 Sum of electronic and thermal Enthalpies=            -100.776082
 Sum of electronic and thermal Free Energies=         -100.800468

                     E (Thermal)             CV                S
                      KCal/Mol        Cal/Mol-Kelvin    Cal/Mol-Kelvin
 Total                    3.088              7.716             51.323
 Electronic               0.000              0.000              1.377
 Translational            0.889              2.981             35.068
 Rotational               0.592              1.987             13.250
 Vibrational              1.607              2.748              1.628
 Vibration     1          0.804              1.374              0.814
 Vibration     2          0.804              1.374              0.814

 Normal termination of Gaussian 16 at Fri Aug 22 17:11:58 2025.
