 Gaussian 16, Revision C.01,
 Gaussian 16:  ES64L-G16RevC.01  3-Jul-2019

 -----------------------------------------
 # sp b3lyp/6-311g** Force nosymm scf=(qc)
 -----------------------------------------

 -------------------
 Title Card Required
 -------------------
 Symbolic Z-matrix:
 Charge =  0 Multiplicity = 2

                          Input orientation:
 ---------------------------------------------------------------------
 Center     Atomic      Atomic             Coordinates (Angstroms)
 Number     Number       Type             X           Y           Z
 ---------------------------------------------------------------------
      1          1           0        0.000000    0.000000    0.000000
      2          1           0       -3.850000    0.000000    0.000000
      3          9           0        0.650000    0.000000    0.000000
 ---------------------------------------------------------------------

 SCF Done:  E(UB3LYP) =  -100.800656601     a.u. after    6 cycles

 Alpha  occ. eigenvalues --  -24.62938  -1.31320  -0.59804  -0.42361  -0.42361
 Alpha  occ. eigenvalues --   -0.33176
 Alpha virt. eigenvalues --    0.06969   0.24520   0.55482   0.92876   0.92876
 Alpha virt. eigenvalues --    0.94689   1.24228   1.24328   1.24328   1.31744
 Alpha virt. eigenvalues --    1.46904   1.46904   1.95865   2.14346   3.09613

  Beta  occ. eigenvalues --  -24.62938  -1.31320  -0.59804  -0.42361  -0.42361
  Beta virt. eigenvalues --   -0.04883   0.07165   0.38947   0.55459   0.92876
  Beta virt. eigenvalues --    0.92876   0.94685   1.31538   1.46904   1.46904
  Beta virt. eigenvalues --    1.49597   1.49935   1.49935   1.95884   2.45652

 Mulliken charges and spin densities:
               1          2
     1  H    0.255099   0.000316
     2  H    0.000377   0.999572
     3  F   -0.255476   0.000112
 Sum of Mulliken charges =   0.00000   1.00000

 Dipole moment (field-independent basis, Debye):
    X=             -1.5083    Y=             -0.0000    Z=             -0.0000  Tot=              1.5083
 Quadrupole moment (field-independent basis, Debye-Ang):
   XX=             -7.1579   YY=             -6.6080   ZZ=             -6.6080
   XY=             -0.0000   XZ=             -0.0000   YZ=              0.0000

  Exact polarizability:       3.472       0.000       2.441      -0.000      -0.000       2.441
 Approx polarizability:       3.781       0.000       2.420       0.000      -0.000       2.420

 ******    3 imaginary frequencies (negative Signs) ******

                      1                      2                      3
                      A                      A                      A
 Frequencies --  -4606.6578             -4606.6578               -32.3967
 Red. masses --      1.0441                 1.0441                 1.0532
 Frc consts  --     13.0540                13.0540                 0.0007
 IR Inten    --    228.0394               228.0394                 0.0101

                      4
                      A
 Frequencies --  10873.4386
 Red. masses --      1.0583
 Frc consts  --     73.7220
 IR Inten    --    101.4862

 - Thermochemistry -
 -------------------
 Temperature   298.150 Kelvin.  Pressure   1.00000 Atm.
 Atom     1 has atomic number  1 and mass   1.00783

 Molecular mass:    21.01405 amu.
 Principal axes and moments of inertia in atomic units:
                           1         2         3
     Eigenvalues --     0.00000  69.82254  69.82254
           X            1.00000  -0.00000   0.00000
           Y            0.00000   1.00000   0.00000
           Z            0.00000   0.00000   1.00000
 This molecule is a prolate symmetric top.
 Rotational symmetry number  1.
 Rotational temperature (Kelvin)      1.24049
 Rotational constant (GHZ):          25.847545
    3 imaginary frequencies ignored.
 Zero-point vibrational energy      65037.6 (Joules/Mol)
                                   15.54436 (Kcal/Mol)
 Vibrational temperatures:  15644.45
          (Kelvin)

 Zero-point correction=                           0.024772 (Hartree/Particle)
 Thermal correction to Energy=                    0.027132
 Thermal correction to Enthalpy=                  0.028076
 Thermal correction to Gibbs Free Energy=         0.004639
 Sum of electronic and zero-point Energies=           -100.775885
 Sum of electronic and thermal Energies=              -100.773525
 Sum of electronic and thermal Enthalpies=            -100.772580
 Sum of electronic and thermal Free Energies=         -100.796017

                     E (Thermal)             CV                S
                      KCal/Mol        Cal/Mol-Kelvin    Cal/Mol-Kelvin
 Total                   17.026              4.968             49.327
 Electronic               0.000              0.000              1.377
 Translational            0.889              2.981             35.068
 Rotational               0.592              1.987             12.881
 Vibrational             15.544              0.000              0.000

 Normal termination of Gaussian 16 at Fri Aug 22 15:45:15 2025.
