 Gaussian 16, Revision C.01,
 Gaussian 16:  ES64L-G16RevC.01  3-Jul-2019

 -----------------------------------------
 # sp b3lyp/6-311g** Force nosymm scf=(qc)
 -----------------------------------------

 -------------------
 Title Card Required
 -------------------
 Symbolic Z-matrix:
 Charge =  0 Multiplicity = 2

                          Input orientation:
 ---------------------------------------------------------------------
 Center     Atomic      Atomic             Coordinates (Angstroms)
 Number     Number       Type             X           Y           Z
 ---------------------------------------------------------------------
      1          1           0        0.000000    0.000000    0.000000
      2          1           0       -2.100000    0.000000    0.000000
      3          9           0        0.850000    0.000000    0.000000
 ---------------------------------------------------------------------

 SCF Done:  E(UB3LYP) =  -100.965789668     a.u. after    6 cycles

 Alpha  occ. eigenvalues --  -24.63656  -1.20747  -0.55021  -0.39964  -0.39964
 Alpha  occ. eigenvalues --   -0.35510
 Alpha virt. eigenvalues --    0.07222   0.24613   0.41639   0.94489   0.94489
 Alpha virt. eigenvalues --    0.97208   1.15290   1.21956   1.21956   1.38587
 Alpha virt. eigenvalues --    1.38587   1.49571   1.99230   2.18408   2.43169

  Beta  occ. eigenvalues --  -24.63616  -1.20645  -0.54820  -0.39931  -0.39931
  Beta virt. eigenvalues --   -0.10973   0.09035   0.35744   0.41569   0.94494
  Beta virt. eigenvalues --    0.94494   0.97573   1.24872   1.38128   1.38128
  Beta virt. eigenvalues --    1.42593   1.42593   1.59083   2.02396   2.39379

 Mulliken charges and spin densities:
               1          2
     1  H    0.273248   0.006890
     2  H    0.010862   0.982982
     3  F   -0.284110   0.010128
 Sum of Mulliken charges =   0.00000   1.00000

 Dipole moment (field-independent basis, Debye):
    X=             -1.9292    Y=             -0.0000    Z=              0.0000  Tot=              1.9292
 Quadrupole moment (field-independent basis, Debye-Ang):
   XX=             -7.4371   YY=             -6.7917   ZZ=             -6.7917
   XY=             -0.0000   XZ=             -0.0000   YZ=              0.0000

  Exact polarizability:       7.926       0.000       2.487      -0.000      -0.000       2.487
 Approx polarizability:       8.237       0.000       2.475      -0.000      -0.000       2.475

 ******    2 imaginary frequencies (negative Signs) ******

                      1                      2                      3
                      A                      A                      A
 Frequencies --  -1309.6714             -1309.6714               208.3775
 Red. masses --      1.0315                 1.0315                 1.0531
 Frc consts  --      1.0424                 1.0424                 0.0269
 IR Inten    --    159.8552               159.8552                 0.8484

                      4
                      A
 Frequencies --   5297.4725
 Red. masses --      1.0584
 Frc consts  --     17.5004
 IR Inten    --    157.3950

 - Thermochemistry -
 -------------------
 Temperature   298.150 Kelvin.  Pressure   1.00000 Atm.
 Atom     1 has atomic number  1 and mass   1.00783

 Molecular mass:    21.01405 amu.
 Principal axes and moments of inertia in atomic units:
                           1         2         3
     Eigenvalues --     0.00000  31.42821  31.42821
           X            1.00000  -0.00000   0.00000
           Y            0.00000   1.00000   0.00000
           Z            0.00000   0.00000   1.00000
 This molecule is a prolate symmetric top.
 Rotational symmetry number  1.
 Rotational temperature (Kelvin)      2.75593
 Rotational constant (GHZ):          57.424241
    2 imaginary frequencies ignored.
 Zero-point vibrational energy      32932.3 (Joules/Mol)
                                    7.87101 (Kcal/Mol)
 Warning -- explicit consideration of   1 degrees of freedom as
           vibrations may cause significant error
 Vibrational temperatures:    299.81  7621.88
          (Kelvin)

 Zero-point correction=                           0.012543 (Hartree/Particle)
 Thermal correction to Energy=                    0.015451
 Thermal correction to Enthalpy=                  0.016396
 Thermal correction to Gibbs Free Energy=        -0.007265
 Sum of electronic and zero-point Energies=           -100.953246
 Sum of electronic and thermal Energies=              -100.950338
 Sum of electronic and thermal Enthalpies=            -100.949394
 Sum of electronic and thermal Free Energies=         -100.973055

                     E (Thermal)             CV                S
                      KCal/Mol        Cal/Mol-Kelvin    Cal/Mol-Kelvin
 Total                    9.696              6.796             49.798
 Electronic               0.000              0.000              1.377
 Translational            0.889              2.981             35.068
 Rotational               0.592              1.987             11.295
 Vibrational              8.215              1.828              2.058
 Vibration     1          0.642              1.828              2.058

 Normal termination of Gaussian 16 at Fri Aug 22 15:53:31 2025.
