 Gaussian 16, Revision C.01,
 Gaussian 16:  ES64L-G16RevC.01  3-Jul-2019

 -----------------------------------------
 # sp b3lyp/6-311g** Force nosymm scf=(qc)
 -----------------------------------------

 -------------------
 Title Card Required
 -------------------
 Symbolic Z-matrix:
 Charge =  0 Multiplicity = 2

                          Input orientation:
 ---------------------------------------------------------------------
 Center     Atomic      Atomic             Coordinates (Angstroms)
 Number     Number       Type             X           Y           Z
 ---------------------------------------------------------------------
      1          1           0        0.000000    0.000000    0.000000
      2          1           0       -3.450000    0.000000    0.000000
      3          9           0        3.550000    0.000000    0.000000
 ---------------------------------------------------------------------

 SCF Done:  E(UB3LYP) =  -100.759095902     a.u. after   32 cycles

 Alpha  occ. eigenvalues --  -24.75465  -1.21423  -0.54588  -0.45833  -0.45833
 Alpha  occ. eigenvalues --   -0.32335
 Alpha virt. eigenvalues --   -0.07037   0.24351   0.37023   0.87451   0.91432
 Alpha virt. eigenvalues --    0.91432   1.01694   1.25171   1.25171   1.25352
 Alpha virt. eigenvalues --    1.45112   1.45244   1.45244   2.15101   2.41056

  Beta  occ. eigenvalues --  -24.72346  -1.12459  -0.42707  -0.42707  -0.32773
  Beta virt. eigenvalues --   -0.25524  -0.06554   0.24123   0.37861   0.92922
  Beta virt. eigenvalues --    0.92922   0.96621   1.05721   1.24671   1.24671
  Beta virt. eigenvalues --    1.24831   1.45789   1.46026   1.46026   2.15281

 Mulliken charges and spin densities:
               1          2
     1  H    0.009858  -0.986540
     2  H    0.000187   0.997601
     3  F   -0.010045   0.988939
 Sum of Mulliken charges =  -0.00000   1.00000

 Dipole moment (field-independent basis, Debye):
    X=             -0.1866    Y=             -0.0000    Z=             -0.0000  Tot=              0.1866
 Quadrupole moment (field-independent basis, Debye-Ang):
   XX=             -7.3205   YY=             -7.6230   ZZ=             -7.6230
   XY=             -0.0000   XZ=             -0.0000   YZ=             -0.0000

  Exact polarizability:      22.479      -0.000       2.036       0.000       0.000       2.036
 Approx polarizability:      17.446      -0.000       1.934      -0.000       0.000       1.934

 ******    2 imaginary frequencies (negative Signs) ******

                      1                      2                      3
                      A                      A                      A
 Frequencies --   -245.5724              -104.6095                74.9610
 Red. masses --      1.0233                 1.0904                 1.0176
 Frc consts  --      0.0364                 0.0070                 0.0034
 IR Inten    --      8.3636                 1.4318                 0.0828

                      4
                      A
 Frequencies --     74.9611
 Red. masses --      1.0176
 Frc consts  --      0.0034
 IR Inten    --      0.0828

 - Thermochemistry -
 -------------------
 Temperature   298.150 Kelvin.  Pressure   1.00000 Atm.
 Atom     1 has atomic number  1 and mass   1.00783

 Molecular mass:    21.01405 amu.
 Principal axes and moments of inertia in atomic units:
                           1         2         3
     Eigenvalues --     0.00000 202.49634 202.49634
           X            1.00000  -0.00000   0.00000
           Y            0.00000   1.00000   0.00000
           Z            0.00000   0.00000   1.00000
 This molecule is a prolate symmetric top.
 Rotational symmetry number  1.
 Rotational temperature (Kelvin)      0.42773
 Rotational constant (GHZ):           8.912463
    2 imaginary frequencies ignored.
 Zero-point vibrational energy        896.7 (Joules/Mol)
                                    0.21432 (Kcal/Mol)
 Warning -- explicit consideration of   2 degrees of freedom as
           vibrations may cause significant error
 Vibrational temperatures:    107.85   107.85
          (Kelvin)

 Zero-point correction=                           0.000342 (Hartree/Particle)
 Thermal correction to Energy=                    0.004269
 Thermal correction to Enthalpy=                  0.005214
 Thermal correction to Gibbs Free Energy=        -0.023047
 Sum of electronic and zero-point Energies=           -100.758754
 Sum of electronic and thermal Energies=              -100.754827
 Sum of electronic and thermal Enthalpies=            -100.753882
 Sum of electronic and thermal Free Energies=         -100.782143

                     E (Thermal)             CV                S
                      KCal/Mol        Cal/Mol-Kelvin    Cal/Mol-Kelvin
 Total                    2.679              8.899             59.480
 Electronic               0.000              0.000              1.377
 Translational            0.889              2.981             35.068
 Rotational               0.592              1.987             14.997
 Vibrational              1.198              3.931              8.037
 Vibration     1          0.599              1.966              4.019
 Vibration     2          0.599              1.966              4.019

 Normal termination of Gaussian 16 at Fri Aug 22 22:41:19 2025.
