 Gaussian 16, Revision C.01,
 Gaussian 16:  ES64L-G16RevC.01  3-Jul-2019

 -----------------------------------------
 # sp b3lyp/6-311g** Force nosymm scf=(qc)
 -----------------------------------------

 -------------------
 Title Card Required
 -------------------
 Symbolic Z-matrix:
 Charge =  0 Multiplicity = 2

                          Input orientation:
 ---------------------------------------------------------------------
 Center     Atomic      Atomic             Coordinates (Angstroms)
 Number     Number       Type             X           Y           Z
 ---------------------------------------------------------------------
      1          1           0        0.000000    0.000000    0.000000
      2          1           0       -3.150000    0.000000    0.000000
      3          9           0        1.150000    0.000000    0.000000
 ---------------------------------------------------------------------

 SCF Done:  E(UB3LYP) =  -100.937452434     a.u. after    6 cycles

 Alpha  occ. eigenvalues --  -24.64297  -1.12980  -0.48638  -0.37773  -0.37773
 Alpha  occ. eigenvalues --   -0.34175
 Alpha virt. eigenvalues --   -0.03964   0.23388   0.29983   0.93379   0.93379
 Alpha virt. eigenvalues --    1.00205   1.23249   1.23350   1.23350   1.28618
 Alpha virt. eigenvalues --    1.34964   1.34964   1.75948   2.14138   2.30501

  Beta  occ. eigenvalues --  -24.64290  -1.12960  -0.48613  -0.37766  -0.37766
  Beta virt. eigenvalues --   -0.08192  -0.02511   0.28508   0.38230   0.93379
  Beta virt. eigenvalues --    0.93379   1.00222   1.28247   1.34950   1.34950
  Beta virt. eigenvalues --    1.46874   1.46874   1.47343   1.76044   2.30457

 Mulliken charges and spin densities:
               1          2
     1  H    0.346477   0.000473
     2  H    0.002527   0.997029
     3  F   -0.349005   0.002498
 Sum of Mulliken charges =   0.00000   1.00000

 Dipole moment (field-independent basis, Debye):
    X=             -2.2562    Y=             -0.0000    Z=              0.0000  Tot=              2.2562
 Quadrupole moment (field-independent basis, Debye-Ang):
   XX=             -8.6268   YY=             -7.0890   ZZ=             -7.0890
   XY=             -0.0000   XZ=              0.0000   YZ=             -0.0000

  Exact polarizability:       9.432       0.000       2.349      -0.000      -0.000       2.349
 Approx polarizability:      12.488      -0.000       2.310       0.000       0.000       2.310

 ******    1 imaginary frequencies (negative Signs) ******

                      1                      2                      3
                      A                      A                      A
 Frequencies --    -81.8378              1200.5792              1200.5792
 Red. masses --      1.0527                 1.0331                 1.0331
 Frc consts  --      0.0042                 0.8774                 0.8774
 IR Inten    --      0.3184               148.3875               148.3875

                      4
                      A
 Frequencies --   1461.3621
 Red. masses --      1.0589
 Frc consts  --      1.3323
 IR Inten    --     81.1803

 - Thermochemistry -
 -------------------
 Temperature   298.150 Kelvin.  Pressure   1.00000 Atm.
 Atom     1 has atomic number  1 and mass   1.00783

 Molecular mass:    21.01405 amu.
 Principal axes and moments of inertia in atomic units:
                           1         2         3
     Eigenvalues --     0.00000  66.17850  66.17850
           X            1.00000  -0.00000   0.00000
           Y            0.00000   1.00000   0.00000
           Z            0.00000   0.00000   1.00000
 This molecule is a prolate symmetric top.
 Rotational symmetry number  1.
 Rotational temperature (Kelvin)      1.30879
 Rotational constant (GHZ):          27.270809
    1 imaginary frequencies ignored.
 Zero-point vibrational energy      23103.0 (Joules/Mol)
                                    5.52175 (Kcal/Mol)
 Vibrational temperatures:   1727.37  1727.37  2102.57
          (Kelvin)

 Zero-point correction=                           0.008799 (Hartree/Particle)
 Thermal correction to Energy=                    0.011199
 Thermal correction to Enthalpy=                  0.012143
 Thermal correction to Gibbs Free Energy=        -0.011289
 Sum of electronic and zero-point Energies=           -100.928653
 Sum of electronic and thermal Energies=              -100.926253
 Sum of electronic and thermal Enthalpies=            -100.925309
 Sum of electronic and thermal Free Energies=         -100.948741

                     E (Thermal)             CV                S
                      KCal/Mol        Cal/Mol-Kelvin    Cal/Mol-Kelvin
 Total                    7.028              5.463             49.317
 Electronic               0.000              0.000              1.377
 Translational            0.889              2.981             35.068
 Rotational               0.592              1.987             12.775
 Vibrational              5.546              0.495              0.096

 Normal termination of Gaussian 16 at Fri Aug 22 16:08:30 2025.
