 Gaussian 16, Revision C.01,
 Gaussian 16:  ES64L-G16RevC.01  3-Jul-2019

 -----------------------------------------
 # sp b3lyp/6-311g** Force nosymm scf=(qc)
 -----------------------------------------

 -------------------
 Title Card Required
 -------------------
 Symbolic Z-matrix:
 Charge =  0 Multiplicity = 2

                          Input orientation:
 ---------------------------------------------------------------------
 Center     Atomic      Atomic             Coordinates (Angstroms)
 Number     Number       Type             X           Y           Z
 ---------------------------------------------------------------------
      1          1           0        0.000000    0.000000    0.000000
      2          1           0       -0.600000    0.000000    0.000000
      3          9           0        1.600000    0.000000    0.000000
 ---------------------------------------------------------------------

 SCF Done:  E(UB3LYP) =  -100.913447175     a.u. after    6 cycles

 Alpha  occ. eigenvalues --  -24.73032  -1.19733  -0.57254  -0.45540  -0.44144
 Alpha  occ. eigenvalues --   -0.44144
 Alpha virt. eigenvalues --    0.11150   0.19793   0.49302   0.88907   0.88907
 Alpha virt. eigenvalues --    0.96602   1.10246   1.10246   1.28926   1.68522
 Alpha virt. eigenvalues --    1.83451   1.91901   1.91901   2.48240   3.69097

  Beta  occ. eigenvalues --  -24.70147  -1.11701  -0.49933  -0.41312  -0.41312
  Beta virt. eigenvalues --   -0.23995   0.11939   0.20501   0.51048   0.90137
  Beta virt. eigenvalues --    0.90137   1.03397   1.11747   1.11747   1.32620
  Beta virt. eigenvalues --    1.70749   1.84293   1.92646   1.92646   2.50096

 Mulliken charges and spin densities:
               1          2
     1  H    0.083644  -0.028959
     2  H    0.008749   0.146688
     3  F   -0.092393   0.882271
 Sum of Mulliken charges =   0.00000   1.00000

 Dipole moment (field-independent basis, Debye):
    X=             -0.7299    Y=              0.0000    Z=              0.0000  Tot=              0.7299
 Quadrupole moment (field-independent basis, Debye-Ang):
   XX=             -6.4378   YY=             -6.6389   ZZ=             -6.6389
   XY=              0.0000   XZ=              0.0000   YZ=             -0.0000

  Exact polarizability:      15.222       0.000       2.187      -0.000      -0.000       2.187
 Approx polarizability:      17.592       0.000       2.247       0.000      -0.000       2.247

 ******    2 imaginary frequencies (negative Signs) ******

                      1                      2                      3
                      A                      A                      A
 Frequencies --  -2887.8450             -2887.8450               382.7224
 Red. masses --      1.0103                 1.0103                 1.1085
 Frc consts  --      4.9641                 4.9641                 0.0957
 IR Inten    --      0.0011                 0.0011                51.6801

                      4
                      A
 Frequencies --   6914.9037
 Red. masses --      1.0078
 Frc consts  --     28.3932
 IR Inten    --    431.6082

 - Thermochemistry -
 -------------------
 Temperature   298.150 Kelvin.  Pressure   1.00000 Atm.
 Atom     1 has atomic number  1 and mass   1.00783

 Molecular mass:    21.01405 amu.
 Principal axes and moments of inertia in atomic units:
                           1         2         3
     Eigenvalues --     0.00000  24.14022  24.14022
           X            1.00000  -0.00000   0.00000
           Y            0.00000   1.00000   0.00000
           Z            0.00000   0.00000   1.00000
 This molecule is a prolate symmetric top.
 Rotational symmetry number  1.
 Rotational temperature (Kelvin)      3.58795
 Rotational constant (GHZ):          74.760762
    2 imaginary frequencies ignored.
 Zero-point vibrational energy      43649.5 (Joules/Mol)
                                   10.43248 (Kcal/Mol)
 Warning -- explicit consideration of   1 degrees of freedom as
           vibrations may cause significant error
 Vibrational temperatures:    550.65  9949.00
          (Kelvin)

 Zero-point correction=                           0.016625 (Hartree/Particle)
 Thermal correction to Energy=                    0.019312
 Thermal correction to Enthalpy=                  0.020256
 Thermal correction to Gibbs Free Energy=        -0.002666
 Sum of electronic and zero-point Energies=           -100.896822
 Sum of electronic and thermal Energies=              -100.894135
 Sum of electronic and thermal Enthalpies=            -100.893191
 Sum of electronic and thermal Free Energies=         -100.916113

                     E (Thermal)             CV                S
                      KCal/Mol        Cal/Mol-Kelvin    Cal/Mol-Kelvin
 Total                   12.119              6.475             48.244
 Electronic               0.000              0.000              1.377
 Translational            0.889              2.981             35.068
 Rotational               0.592              1.987             10.771
 Vibrational             10.637              1.507              1.028
 Vibration     1          0.752              1.507              1.028

 Normal termination of Gaussian 16 at Fri Aug 22 16:29:56 2025.
