 Gaussian 16, Revision C.01,
 Gaussian 16:  ES64L-G16RevC.01  3-Jul-2019

 -----------------------------------------
 # sp b3lyp/6-311g** Force nosymm scf=(qc)
 -----------------------------------------

 -------------------
 Title Card Required
 -------------------
 Symbolic Z-matrix:
 Charge =  0 Multiplicity = 2

                          Input orientation:
 ---------------------------------------------------------------------
 Center     Atomic      Atomic             Coordinates (Angstroms)
 Number     Number       Type             X           Y           Z
 ---------------------------------------------------------------------
      1          1           0        0.000000    0.000000    0.000000
      2          1           0       -0.500000    0.000000    0.000000
      3          9           0        1.000000    0.000000    0.000000
 ---------------------------------------------------------------------

 SCF Done:  E(UB3LYP) =  -100.806127545     a.u. after    7 cycles

 Alpha  occ. eigenvalues --  -24.68209  -1.22481  -0.68745  -0.42782  -0.42782
 Alpha  occ. eigenvalues --   -0.34177
 Alpha virt. eigenvalues --    0.13898   0.18357   0.69617   0.86440   0.86440
 Alpha virt. eigenvalues --    0.93358   1.14075   1.14075   1.51222   1.70444
 Alpha virt. eigenvalues --    1.84500   1.91543   1.91543   2.76585   3.78154

  Beta  occ. eigenvalues --  -24.66155  -1.17293  -0.60534  -0.40916  -0.40916
  Beta virt. eigenvalues --   -0.15516   0.16001   0.18887   0.73894   0.88262
  Beta virt. eigenvalues --    0.88262   0.97499   1.17650   1.17650   1.53509
  Beta virt. eigenvalues --    1.76681   1.86880   1.95246   1.95246   2.82332

 Mulliken charges and spin densities:
               1          2
     1  H    0.267537  -0.018100
     2  H   -0.080192   0.510384
     3  F   -0.187346   0.507715
 Sum of Mulliken charges =   0.00000   1.00000

 Dipole moment (field-independent basis, Debye):
    X=             -1.1462    Y=              0.0000    Z=              0.0000  Tot=              1.1462
 Quadrupole moment (field-independent basis, Debye-Ang):
   XX=             -7.2185   YY=             -6.3383   ZZ=             -6.3383
   XY=              0.0000   XZ=              0.0000   YZ=             -0.0000

  Exact polarizability:      10.978       0.000       2.441      -0.000       0.000       2.441
 Approx polarizability:      12.673      -0.000       2.520      -0.000       0.000       2.520

 ******    2 imaginary frequencies (negative Signs) ******

                      1                      2                      3
                      A                      A                      A
 Frequencies --  -5277.1891             -5277.1891              2399.7778
 Red. masses --      1.0117                 1.0117                 1.1085
 Frc consts  --     16.6003                16.6003                 3.7613
 IR Inten    --     15.1164                15.1164                15.5960

                      4
                      A
 Frequencies --   9686.9476
 Red. masses --      1.0078
 Frc consts  --     55.7198
 IR Inten    --     85.5111

 - Thermochemistry -
 -------------------
 Temperature   298.150 Kelvin.  Pressure   1.00000 Atm.
 Atom     1 has atomic number  1 and mass   1.00783

 Molecular mass:    21.01405 amu.
 Principal axes and moments of inertia in atomic units:
                           1         2         3
     Eigenvalues --     0.00000  10.61798  10.61798
           X            1.00000  -0.00000   0.00000
           Y            0.00000   1.00000   0.00000
           Z            0.00000   0.00000   1.00000
 This molecule is a prolate symmetric top.
 Rotational symmetry number  1.
 Rotational temperature (Kelvin)      8.15728
 Rotational constant (GHZ):         169.970223
    2 imaginary frequencies ignored.
 Zero-point vibrational energy      72294.7 (Joules/Mol)
                                   17.27884 (Kcal/Mol)
 Vibrational temperatures:   3452.74 13937.36
          (Kelvin)

 Zero-point correction=                           0.027536 (Hartree/Particle)
 Thermal correction to Energy=                    0.029896
 Thermal correction to Enthalpy=                  0.030840
 Thermal correction to Gibbs Free Energy=         0.009182
 Sum of electronic and zero-point Energies=           -100.778592
 Sum of electronic and thermal Energies=              -100.776231
 Sum of electronic and thermal Enthalpies=            -100.775287
 Sum of electronic and thermal Free Energies=         -100.796946

                     E (Thermal)             CV                S
                      KCal/Mol        Cal/Mol-Kelvin    Cal/Mol-Kelvin
 Total                   18.760              4.971             45.584
 Electronic               0.000              0.000              1.377
 Translational            0.889              2.981             35.068
 Rotational               0.592              1.987              9.139
 Vibrational             17.279              0.002              0.000

 Normal termination of Gaussian 16 at Fri Aug 22 15:59:29 2025.
