 Gaussian 16, Revision C.01,
 Gaussian 16:  ES64L-G16RevC.01  3-Jul-2019

 -----------------------------------------
 # sp b3lyp/6-311g** Force nosymm scf=(qc)
 -----------------------------------------

 -------------------
 Title Card Required
 -------------------
 Symbolic Z-matrix:
 Charge =  0 Multiplicity = 2

                          Input orientation:
 ---------------------------------------------------------------------
 Center     Atomic      Atomic             Coordinates (Angstroms)
 Number     Number       Type             X           Y           Z
 ---------------------------------------------------------------------
      1          1           0        0.000000    0.000000    0.000000
      2          1           0       -3.150000    0.000000    0.000000
      3          9           0        2.900000    0.000000    0.000000
 ---------------------------------------------------------------------

 SCF Done:  E(UB3LYP) =  -100.762321508     a.u. after   21 cycles

 Alpha  occ. eigenvalues --  -24.73716  -1.19802  -0.52834  -0.44365  -0.44365
 Alpha  occ. eigenvalues --   -0.32723
 Alpha virt. eigenvalues --   -0.09032   0.24346   0.35368   0.89733   0.92496
 Alpha virt. eigenvalues --    0.92496   1.04523   1.24803   1.24803   1.25340
 Alpha virt. eigenvalues --    1.42663   1.42663   1.43193   2.15239   2.38770

  Beta  occ. eigenvalues --  -24.70715  -1.11210  -0.41363  -0.41363  -0.34010
  Beta virt. eigenvalues --   -0.24564  -0.07303   0.24442   0.37151   0.93949
  Beta virt. eigenvalues --    0.93949   0.98270   1.08185   1.23333   1.23333
  Beta virt. eigenvalues --    1.24427   1.44989   1.45169   1.45169   2.15403

 Mulliken charges and spin densities:
               1          2
     1  H    0.043561  -0.945551
     2  H    0.001284   0.995013
     3  F   -0.044844   0.950537
 Sum of Mulliken charges =  -0.00000   1.00000

 Dipole moment (field-independent basis, Debye):
    X=             -0.6868    Y=             -0.0000    Z=             -0.0000  Tot=              0.6868
 Quadrupole moment (field-independent basis, Debye-Ang):
   XX=             -8.4397   YY=             -7.6120   ZZ=             -7.6120
   XY=             -0.0000   XZ=             -0.0000   YZ=             -0.0000

  Exact polarizability:      34.171      -0.000       2.022      -0.000      -0.000       2.022
 Approx polarizability:      35.601      -0.000       1.923      -0.000       0.000       1.923

 ******    2 imaginary frequencies (negative Signs) ******

                      1                      2                      3
                      A                      A                      A
 Frequencies --   -446.4490              -170.1348               163.9319
 Red. masses --      1.0372                 1.0751                 1.0190
 Frc consts  --      0.1218                 0.0183                 0.0161
 IR Inten    --     44.5919                 2.7790                 1.7327

                      4
                      A
 Frequencies --    163.9319
 Red. masses --      1.0190
 Frc consts  --      0.0161
 IR Inten    --      1.7327

 - Thermochemistry -
 -------------------
 Temperature   298.150 Kelvin.  Pressure   1.00000 Atm.
 Atom     1 has atomic number  1 and mass   1.00783

 Molecular mass:    21.01405 amu.
 Principal axes and moments of inertia in atomic units:
                           1         2         3
     Eigenvalues --     0.00000 148.17413 148.17413
           X            1.00000  -0.00000   0.00000
           Y            0.00000   1.00000   0.00000
           Z            0.00000   0.00000   1.00000
 This molecule is a prolate symmetric top.
 Rotational symmetry number  1.
 Rotational temperature (Kelvin)      0.58454
 Rotational constant (GHZ):          12.179867
    2 imaginary frequencies ignored.
 Zero-point vibrational energy       1961.1 (Joules/Mol)
                                    0.46870 (Kcal/Mol)
 Warning -- explicit consideration of   2 degrees of freedom as
           vibrations may cause significant error
 Vibrational temperatures:    235.86   235.86
          (Kelvin)

 Zero-point correction=                           0.000747 (Hartree/Particle)
 Thermal correction to Energy=                    0.004346
 Thermal correction to Enthalpy=                  0.005290
 Thermal correction to Gibbs Free Energy=        -0.021236
 Sum of electronic and zero-point Energies=           -100.761575
 Sum of electronic and thermal Energies=              -100.757975
 Sum of electronic and thermal Enthalpies=            -100.757031
 Sum of electronic and thermal Free Energies=         -100.783558

                     E (Thermal)             CV                S
                      KCal/Mol        Cal/Mol-Kelvin    Cal/Mol-Kelvin
 Total                    2.727              8.741             55.830
 Electronic               0.000              0.000              1.377
 Translational            0.889              2.981             35.068
 Rotational               0.592              1.987             14.376
 Vibrational              1.246              3.773              5.008
 Vibration     1          0.623              1.887              2.504
 Vibration     2          0.623              1.887              2.504

 Normal termination of Gaussian 16 at Fri Aug 22 19:04:25 2025.
