 Gaussian 16, Revision C.01,
 Gaussian 16:  ES64L-G16RevC.01  3-Jul-2019

 -----------------------------------------
 # sp b3lyp/6-311g** Force nosymm scf=(qc)
 -----------------------------------------

 -------------------
 Title Card Required
 -------------------
 Symbolic Z-matrix:
 Charge =  0 Multiplicity = 2

                          Input orientation:
 ---------------------------------------------------------------------
 Center     Atomic      Atomic             Coordinates (Angstroms)
 Number     Number       Type             X           Y           Z
 ---------------------------------------------------------------------
      1          1           0        0.000000    0.000000    0.000000
      2          1           0       -2.950000    0.000000    0.000000
      3          9           0        3.800000    0.000000    0.000000
 ---------------------------------------------------------------------

 SCF Done:  E(UB3LYP) =  -100.759777325     a.u. after   32 cycles

 Alpha  occ. eigenvalues --  -24.75767  -1.21702  -0.54891  -0.46088  -0.46088
 Alpha  occ. eigenvalues --   -0.32380
 Alpha virt. eigenvalues --   -0.07898   0.25120   0.36208   0.86855   0.91241
 Alpha virt. eigenvalues --    0.91241   1.01255   1.25161   1.25161   1.25961
 Alpha virt. eigenvalues --    1.44086   1.44086   1.44125   2.15854   2.39359

  Beta  occ. eigenvalues --  -24.72629  -1.12681  -0.42942  -0.42942  -0.32617
  Beta virt. eigenvalues --   -0.25680  -0.07603   0.24936   0.36635   0.92737
  Beta virt. eigenvalues --    0.92737   0.96168   1.05357   1.24897   1.24897
  Beta virt. eigenvalues --    1.25673   1.44538   1.44538   1.44576   2.15959

 Mulliken charges and spin densities:
               1          2
     1  H    0.004146  -0.986203
     2  H    0.000412   0.991294
     3  F   -0.004558   0.994909
 Sum of Mulliken charges =  -0.00000   1.00000

 Dipole moment (field-independent basis, Debye):
    X=             -0.0951    Y=             -0.0000    Z=              0.0000  Tot=              0.0951
 Quadrupole moment (field-independent basis, Debye-Ang):
   XX=             -6.9605   YY=             -7.6382   ZZ=             -7.6382
   XY=             -0.0000   XZ=              0.0000   YZ=             -0.0000

  Exact polarizability:      18.188       0.000       2.027       0.000       0.000       2.027
 Approx polarizability:      13.446      -0.000       1.933       0.000       0.000       1.933

 ******    2 imaginary frequencies (negative Signs) ******

                      1                      2                      3
                      A                      A                      A
 Frequencies --   -362.6101               -94.2494               128.2789
 Red. masses --      1.0084                 1.1079                 1.0152
 Frc consts  --      0.0781                 0.0058                 0.0098
 IR Inten    --      1.8038                 1.5290                 0.0150

                      4
                      A
 Frequencies --    128.2790
 Red. masses --      1.0152
 Frc consts  --      0.0098
 IR Inten    --      0.0150

 - Thermochemistry -
 -------------------
 Temperature   298.150 Kelvin.  Pressure   1.00000 Atm.
 Atom     1 has atomic number  1 and mass   1.00783

 Molecular mass:    21.01405 amu.
 Principal axes and moments of inertia in atomic units:
                           1         2         3
     Eigenvalues --     0.00000 196.73793 196.73793
           X            1.00000  -0.00000   0.00000
           Y            0.00000   1.00000   0.00000
           Z            0.00000   0.00000   1.00000
 This molecule is a prolate symmetric top.
 Rotational symmetry number  1.
 Rotational temperature (Kelvin)      0.44025
 Rotational constant (GHZ):           9.173326
    2 imaginary frequencies ignored.
 Zero-point vibrational energy       1534.6 (Joules/Mol)
                                    0.36677 (Kcal/Mol)
 Warning -- explicit consideration of   2 degrees of freedom as
           vibrations may cause significant error
 Vibrational temperatures:    184.56   184.56
          (Kelvin)

 Zero-point correction=                           0.000584 (Hartree/Particle)
 Thermal correction to Energy=                    0.004309
 Thermal correction to Enthalpy=                  0.005253
 Thermal correction to Gibbs Free Energy=        -0.021986
 Sum of electronic and zero-point Energies=           -100.759193
 Sum of electronic and thermal Energies=              -100.755469
 Sum of electronic and thermal Enthalpies=            -100.754524
 Sum of electronic and thermal Free Energies=         -100.781763

                     E (Thermal)             CV                S
                      KCal/Mol        Cal/Mol-Kelvin    Cal/Mol-Kelvin
 Total                    2.704              8.818             57.329
 Electronic               0.000              0.000              1.377
 Translational            0.889              2.981             35.068
 Rotational               0.592              1.987             14.940
 Vibrational              1.223              3.850              5.943
 Vibration     1          0.611              1.925              2.972
 Vibration     2          0.611              1.925              2.972

 Normal termination of Gaussian 16 at Sat Aug 23 00:51:17 2025.
