 Gaussian 16, Revision C.01,
 Gaussian 16:  ES64L-G16RevC.01  3-Jul-2019

 -----------------------------------------
 # sp b3lyp/6-311g** Force nosymm scf=(qc)
 -----------------------------------------

 -------------------
 Title Card Required
 -------------------
 Symbolic Z-matrix:
 Charge =  0 Multiplicity = 2

                          Input orientation:
 ---------------------------------------------------------------------
 Center     Atomic      Atomic             Coordinates (Angstroms)
 Number     Number       Type             X           Y           Z
 ---------------------------------------------------------------------
      1          1           0        0.000000    0.000000    0.000000
      2          1           0       -2.550000    0.000000    0.000000
      3          9           0        1.900000    0.000000    0.000000
 ---------------------------------------------------------------------

 SCF Done:  E(UB3LYP) =  -100.797733696     a.u. after   14 cycles

 Alpha  occ. eigenvalues --  -24.67286  -1.13572  -0.46220  -0.38940  -0.38940
 Alpha  occ. eigenvalues --   -0.34993
 Alpha virt. eigenvalues --   -0.14239   0.23651   0.30128   0.91099   0.94993
 Alpha virt. eigenvalues --    0.94993   1.06211   1.22633   1.22633   1.25218
 Alpha virt. eigenvalues --    1.34326   1.34326   1.65360   2.13637   2.27736

  Beta  occ. eigenvalues --  -24.65109  -1.07523  -0.38386  -0.36802  -0.36802
  Beta virt. eigenvalues --   -0.20144  -0.09702   0.24380   0.34890   0.92621
  Beta virt. eigenvalues --    0.95349   0.95349   1.08597   1.23025   1.23025
  Beta virt. eigenvalues --    1.41529   1.41529   1.42599   1.60064   2.13283

 Mulliken charges and spin densities:
               1          2
     1  H    0.205482  -0.658151
     2  H    0.017340   0.973429
     3  F   -0.222822   0.684723
 Sum of Mulliken charges =   0.00000   1.00000

 Dipole moment (field-independent basis, Debye):
    X=             -2.2914    Y=              0.0000    Z=              0.0000  Tot=              2.2914
 Quadrupole moment (field-independent basis, Debye-Ang):
   XX=             -9.5220   YY=             -7.4932   ZZ=             -7.4932
   XY=             -0.0000   XZ=             -0.0000   YZ=              0.0000

  Exact polarizability:      34.864      -0.000       2.077      -0.000       0.000       2.077
 Approx polarizability:      44.071      -0.000       1.969      -0.000      -0.000       1.969

 ******    2 imaginary frequencies (negative Signs) ******

                      1                      2                      3
                      A                      A                      A
 Frequencies --  -1362.7022              -369.0332               574.2540
 Red. masses --      1.0481                 1.0636                 1.0219
 Frc consts  --      1.1467                 0.0853                 0.1985
 IR Inten    --    101.4492                11.6327                35.1518

                      4
                      A
 Frequencies --    574.2540
 Red. masses --      1.0219
 Frc consts  --      0.1985
 IR Inten    --     35.1518

 - Thermochemistry -
 -------------------
 Temperature   298.150 Kelvin.  Pressure   1.00000 Atm.
 Atom     1 has atomic number  1 and mass   1.00783

 Molecular mass:    21.01405 amu.
 Principal axes and moments of inertia in atomic units:
                           1         2         3
     Eigenvalues --     0.00000  77.30185  77.30185
           X            1.00000  -0.00000   0.00000
           Y            0.00000   1.00000   0.00000
           Z            0.00000   0.00000   1.00000
 This molecule is a prolate symmetric top.
 Rotational symmetry number  1.
 Rotational temperature (Kelvin)      1.12046
 Rotational constant (GHZ):          23.346677
    2 imaginary frequencies ignored.
 Zero-point vibrational energy       6869.6 (Joules/Mol)
                                    1.64187 (Kcal/Mol)
 Warning -- explicit consideration of   2 degrees of freedom as
           vibrations may cause significant error
 Vibrational temperatures:    826.22   826.22
          (Kelvin)

 Zero-point correction=                           0.002616 (Hartree/Particle)
 Thermal correction to Energy=                    0.005326
 Thermal correction to Enthalpy=                  0.006271
 Thermal correction to Gibbs Free Energy=        -0.017734
 Sum of electronic and zero-point Energies=           -100.795117
 Sum of electronic and thermal Energies=              -100.792407
 Sum of electronic and thermal Enthalpies=            -100.791463
 Sum of electronic and thermal Free Energies=         -100.815467

                     E (Thermal)             CV                S
                      KCal/Mol        Cal/Mol-Kelvin    Cal/Mol-Kelvin
 Total                    3.342              7.142             50.521
 Electronic               0.000              0.000              1.377
 Translational            0.889              2.981             35.068
 Rotational               0.592              1.987             13.083
 Vibrational              1.861              2.174              0.992
 Vibration     1          0.931              1.087              0.496
 Vibration     2          0.931              1.087              0.496

 Normal termination of Gaussian 16 at Fri Aug 22 16:50:30 2025.
