 Gaussian 16, Revision C.01,
 Gaussian 16:  ES64L-G16RevC.01  3-Jul-2019

 -----------------------------------------
 # sp b3lyp/6-311g** Force nosymm scf=(qc)
 -----------------------------------------

 -------------------
 Title Card Required
 -------------------
 Symbolic Z-matrix:
 Charge =  0 Multiplicity = 2

                          Input orientation:
 ---------------------------------------------------------------------
 Center     Atomic      Atomic             Coordinates (Angstroms)
 Number     Number       Type             X           Y           Z
 ---------------------------------------------------------------------
      1          1           0        0.000000    0.000000    0.000000
      2          1           0       -2.200000    0.000000    0.000000
      3          9           0        2.100000    0.000000    0.000000
 ---------------------------------------------------------------------

 SCF Done:  E(UB3LYP) =  -100.789184614     a.u. after   17 cycles

 Alpha  occ. eigenvalues --  -24.68898  -1.15217  -0.47947  -0.40303  -0.40303
 Alpha  occ. eigenvalues --   -0.35445
 Alpha virt. eigenvalues --   -0.13588   0.24303   0.31409   0.88816   0.94837
 Alpha virt. eigenvalues --    0.94837   1.05940   1.22370   1.22370   1.27478
 Alpha virt. eigenvalues --    1.34674   1.34674   1.54649   2.11764   2.30032

  Beta  occ. eigenvalues --  -24.66382  -1.08146  -0.37815  -0.37815  -0.36975
  Beta virt. eigenvalues --   -0.21597  -0.11091   0.25951   0.33058   0.92082
  Beta virt. eigenvalues --    0.95769   0.95769   1.08801   1.22375   1.22375
  Beta virt. eigenvalues --    1.38430   1.38430   1.41265   1.48675   2.12086

 Mulliken charges and spin densities:
               1          2
     1  H    0.134213  -0.723845
     2  H    0.030288   0.932157
     3  F   -0.164501   0.791688
 Sum of Mulliken charges =   0.00000   1.00000

 Dipole moment (field-independent basis, Debye):
    X=             -2.0427    Y=             -0.0000    Z=              0.0000  Tot=              2.0427
 Quadrupole moment (field-independent basis, Debye-Ang):
   XX=             -8.9526   YY=             -7.5652   ZZ=             -7.5652
   XY=             -0.0000   XZ=              0.0000   YZ=              0.0000

  Exact polarizability:      46.873      -0.000       2.042       0.000      -0.000       2.042
 Approx polarizability:      53.642      -0.000       1.943       0.000      -0.000       1.943

 ******    2 imaginary frequencies (negative Signs) ******

                      1                      2                      3
                      A                      A                      A
 Frequencies --  -1270.7483              -499.8908               526.5881
 Red. masses --      1.0236                 1.0901                 1.0185
 Frc consts  --      0.9738                 0.1605                 0.1664
 IR Inten    --     78.5960                35.8029                12.9525

                      4
                      A
 Frequencies --    526.5881
 Red. masses --      1.0185
 Frc consts  --      0.1664
 IR Inten    --     12.9525

 - Thermochemistry -
 -------------------
 Temperature   298.150 Kelvin.  Pressure   1.00000 Atm.
 Atom     1 has atomic number  1 and mass   1.00783

 Molecular mass:    21.01405 amu.
 Principal axes and moments of inertia in atomic units:
                           1         2         3
     Eigenvalues --     0.00000  75.34732  75.34732
           X            1.00000  -0.00000   0.00000
           Y            0.00000   1.00000   0.00000
           Z            0.00000   0.00000   1.00000
 This molecule is a prolate symmetric top.
 Rotational symmetry number  1.
 Rotational temperature (Kelvin)      1.14953
 Rotational constant (GHZ):          23.952296
    2 imaginary frequencies ignored.
 Zero-point vibrational energy       6299.4 (Joules/Mol)
                                    1.50559 (Kcal/Mol)
 Warning -- explicit consideration of   2 degrees of freedom as
           vibrations may cause significant error
 Vibrational temperatures:    757.64   757.64
          (Kelvin)

 Zero-point correction=                           0.002399 (Hartree/Particle)
 Thermal correction to Energy=                    0.005170
 Thermal correction to Enthalpy=                  0.006114
 Thermal correction to Gibbs Free Energy=        -0.017960
 Sum of electronic and zero-point Energies=           -100.786785
 Sum of electronic and thermal Energies=              -100.784014
 Sum of electronic and thermal Enthalpies=            -100.783070
 Sum of electronic and thermal Free Energies=         -100.807144

                     E (Thermal)             CV                S
                      KCal/Mol        Cal/Mol-Kelvin    Cal/Mol-Kelvin
 Total                    3.244              7.350             50.668
 Electronic               0.000              0.000              1.377
 Translational            0.889              2.981             35.068
 Rotational               0.592              1.987             13.033
 Vibrational              1.763              2.382              1.190
 Vibration     1          0.882              1.191              0.595
 Vibration     2          0.882              1.191              0.595

 Normal termination of Gaussian 16 at Fri Aug 22 17:04:01 2025.
