 Gaussian 16, Revision C.01,
 Gaussian 16:  ES64L-G16RevC.01  3-Jul-2019

 -----------------------------------------
 # sp b3lyp/6-311g** Force nosymm scf=(qc)
 -----------------------------------------

 -------------------
 Title Card Required
 -------------------
 Symbolic Z-matrix:
 Charge =  0 Multiplicity = 2

                          Input orientation:
 ---------------------------------------------------------------------
 Center     Atomic      Atomic             Coordinates (Angstroms)
 Number     Number       Type             X           Y           Z
 ---------------------------------------------------------------------
      1          1           0        0.000000    0.000000    0.000000
      2          1           0       -3.800000    0.000000    0.000000
      3          9           0        2.900000    0.000000    0.000000
 ---------------------------------------------------------------------

 SCF Done:  E(UB3LYP) =  -100.761655520     a.u. after   21 cycles

 Alpha  occ. eigenvalues --  -24.73696  -1.19785  -0.52815  -0.44349  -0.44349
 Alpha  occ. eigenvalues --   -0.32531
 Alpha virt. eigenvalues --   -0.08229   0.23815   0.36102   0.89636   0.92508
 Alpha virt. eigenvalues --    0.92508   1.04450   1.24968   1.24968   1.25014
 Alpha virt. eigenvalues --    1.43703   1.43703   1.44483   2.14428   2.40165

  Beta  occ. eigenvalues --  -24.70696  -1.11196  -0.41348  -0.41348  -0.33988
  Beta virt. eigenvalues --   -0.24549  -0.06152   0.23799   0.38099   0.93959
  Beta virt. eigenvalues --    0.93959   0.98131   1.08029   1.23325   1.23325
  Beta virt. eigenvalues --    1.24126   1.46351   1.46539   1.46539   2.14287

 Mulliken charges and spin densities:
               1          2
     1  H    0.045027  -0.949295
     2  H    0.000239   0.999017
     3  F   -0.045266   0.950278
 Sum of Mulliken charges =  -0.00000   1.00000

 Dipole moment (field-independent basis, Debye):
    X=             -0.6779    Y=             -0.0000    Z=              0.0000  Tot=              0.6779
 Quadrupole moment (field-independent basis, Debye-Ang):
   XX=             -8.5429   YY=             -7.6011   ZZ=             -7.6011
   XY=             -0.0000   XZ=              0.0000   YZ=              0.0000

  Exact polarizability:      31.469      -0.000       2.026       0.000       0.000       2.026
 Approx polarizability:      33.982      -0.000       1.925       0.000      -0.000       1.925

 ******    2 imaginary frequencies (negative Signs) ******

                      1                      2                      3
                      A                      A                      A
 Frequencies --   -405.7547               -86.0128               144.5921
 Red. masses --      1.0534                 1.0582                 1.0215
 Frc consts  --      0.1022                 0.0046                 0.0126
 IR Inten    --     46.9988                 0.1400                 1.9476

                      4
                      A
 Frequencies --    144.5921
 Red. masses --      1.0215
 Frc consts  --      0.0126
 IR Inten    --      1.9476

 - Thermochemistry -
 -------------------
 Temperature   298.150 Kelvin.  Pressure   1.00000 Atm.
 Atom     1 has atomic number  1 and mass   1.00783

 Molecular mass:    21.01405 amu.
 Principal axes and moments of inertia in atomic units:
                           1         2         3
     Eigenvalues --     0.00000 175.91970 175.91970
           X            1.00000  -0.00000   0.00000
           Y            0.00000   1.00000   0.00000
           Z            0.00000   0.00000   1.00000
 This molecule is a prolate symmetric top.
 Rotational symmetry number  1.
 Rotational temperature (Kelvin)      0.49235
 Rotational constant (GHZ):          10.258892
    2 imaginary frequencies ignored.
 Zero-point vibrational energy       1729.7 (Joules/Mol)
                                    0.41341 (Kcal/Mol)
 Warning -- explicit consideration of   2 degrees of freedom as
           vibrations may cause significant error
 Vibrational temperatures:    208.04   208.04
          (Kelvin)

 Zero-point correction=                           0.000659 (Hartree/Particle)
 Thermal correction to Energy=                    0.004325
 Thermal correction to Enthalpy=                  0.005269
 Thermal correction to Gibbs Free Energy=        -0.021646
 Sum of electronic and zero-point Energies=           -100.760997
 Sum of electronic and thermal Energies=              -100.757331
 Sum of electronic and thermal Enthalpies=            -100.756387
 Sum of electronic and thermal Free Energies=         -100.783302

                     E (Thermal)             CV                S
                      KCal/Mol        Cal/Mol-Kelvin    Cal/Mol-Kelvin
 Total                    2.714              8.785             56.647
 Electronic               0.000              0.000              1.377
 Translational            0.889              2.981             35.068
 Rotational               0.592              1.987             14.718
 Vibrational              1.233              3.817              5.484
 Vibration     1          0.616              1.909              2.742
 Vibration     2          0.616              1.909              2.742

 Normal termination of Gaussian 16 at Fri Aug 22 19:05:05 2025.
