 Gaussian 16, Revision C.01,
 Gaussian 16:  ES64L-G16RevC.01  3-Jul-2019

 -----------------------------------------
 # sp b3lyp/6-311g** Force nosymm scf=(qc)
 -----------------------------------------

 -------------------
 Title Card Required
 -------------------
 Symbolic Z-matrix:
 Charge =  0 Multiplicity = 2

                          Input orientation:
 ---------------------------------------------------------------------
 Center     Atomic      Atomic             Coordinates (Angstroms)
 Number     Number       Type             X           Y           Z
 ---------------------------------------------------------------------
      1          1           0        0.000000    0.000000    0.000000
      2          1           0       -1.350000    0.000000    0.000000
      3          9           0        1.700000    0.000000    0.000000
 ---------------------------------------------------------------------

 SCF Done:  E(UB3LYP) =  -100.869539743     a.u. after   13 cycles

 Alpha  occ. eigenvalues --  -24.68010  -1.14587  -0.48831  -0.39745  -0.39745
 Alpha  occ. eigenvalues --   -0.39327
 Alpha virt. eigenvalues --   -0.06626   0.21075   0.30708   0.92314   0.92900
 Alpha virt. eigenvalues --    0.92900   1.03812   1.12767   1.12767   1.44347
 Alpha virt. eigenvalues --    1.44615   1.44615   1.97085   2.22661   2.48851

  Beta  occ. eigenvalues --  -24.65784  -1.08436  -0.40001  -0.37567  -0.37567
  Beta virt. eigenvalues --   -0.23274  -0.03970   0.23298   0.31267   0.93505
  Beta virt. eigenvalues --    0.93505   0.97050   1.07384   1.16232   1.16232
  Beta virt. eigenvalues --    1.45936   1.45936   1.48844   2.00189   2.24621

 Mulliken charges and spin densities:
               1          2
     1  H    0.144585  -0.239537
     2  H    0.070304   0.546669
     3  F   -0.214889   0.692868
 Sum of Mulliken charges =  -0.00000   1.00000

 Dipole moment (field-independent basis, Debye):
    X=             -2.2319    Y=             -0.0000    Z=              0.0000  Tot=              2.2319
 Quadrupole moment (field-independent basis, Debye-Ang):
   XX=             -7.7516   YY=             -7.3282   ZZ=             -7.3282
   XY=             -0.0000   XZ=              0.0000   YZ=             -0.0000

  Exact polarizability:      41.586      -0.000       2.245       0.000      -0.000       2.245
 Approx polarizability:      64.935       0.000       2.198      -0.000       0.000       2.198

 ******    2 imaginary frequencies (negative Signs) ******

                      1                      2                      3
                      A                      A                      A
 Frequencies --  -2397.9137              -394.9479              1178.8443
 Red. masses --      1.0183                 1.0961                 1.0154
 Frc consts  --      3.4500                 0.1007                 0.8314
 IR Inten    --   1001.9050                 0.7671                 6.1095

                      4
                      A
 Frequencies --   1178.8443
 Red. masses --      1.0154
 Frc consts  --      0.8314
 IR Inten    --      6.1095

 - Thermochemistry -
 -------------------
 Temperature   298.150 Kelvin.  Pressure   1.00000 Atm.
 Atom     1 has atomic number  1 and mass   1.00783

 Molecular mass:    21.01405 amu.
 Principal axes and moments of inertia in atomic units:
                           1         2         3
     Eigenvalues --     0.00000  39.98647  39.98647
           X            1.00000  -0.00000   0.00000
           Y            0.00000   1.00000   0.00000
           Z            0.00000   0.00000   1.00000
 This molecule is a prolate symmetric top.
 Rotational symmetry number  1.
 Rotational temperature (Kelvin)      2.16608
 Rotational constant (GHZ):          45.133799
    2 imaginary frequencies ignored.
 Zero-point vibrational energy      14102.1 (Joules/Mol)
                                    3.37049 (Kcal/Mol)
 Vibrational temperatures:   1696.09  1696.09
          (Kelvin)

 Zero-point correction=                           0.005371 (Hartree/Particle)
 Thermal correction to Energy=                    0.007768
 Thermal correction to Enthalpy=                  0.008712
 Thermal correction to Gibbs Free Energy=        -0.014241
 Sum of electronic and zero-point Energies=           -100.864169
 Sum of electronic and thermal Energies=              -100.861772
 Sum of electronic and thermal Enthalpies=            -100.860827
 Sum of electronic and thermal Free Energies=         -100.883781

                     E (Thermal)             CV                S
                      KCal/Mol        Cal/Mol-Kelvin    Cal/Mol-Kelvin
 Total                    4.875              5.406             48.309
 Electronic               0.000              0.000              1.377
 Translational            0.889              2.981             35.068
 Rotational               0.592              1.987             11.774
 Vibrational              3.393              0.438              0.090

 Normal termination of Gaussian 16 at Fri Aug 22 16:36:50 2025.
