 Gaussian 16, Revision C.01,
 Gaussian 16:  ES64L-G16RevC.01  3-Jul-2019

 -----------------------------------------
 # sp b3lyp/6-311g** Force nosymm scf=(qc)
 -----------------------------------------

 -------------------
 Title Card Required
 -------------------
 Symbolic Z-matrix:
 Charge =  0 Multiplicity = 2

                          Input orientation:
 ---------------------------------------------------------------------
 Center     Atomic      Atomic             Coordinates (Angstroms)
 Number     Number       Type             X           Y           Z
 ---------------------------------------------------------------------
      1          1           0        0.000000    0.000000    0.000000
      2          1           0       -1.500000    0.000000    0.000000
      3          9           0        1.250000    0.000000    0.000000
 ---------------------------------------------------------------------

 SCF Done:  E(UB3LYP) =  -100.922465490     a.u. after    9 cycles

 Alpha  occ. eigenvalues --  -24.63563  -1.11564  -0.49044  -0.37775  -0.36750
 Alpha  occ. eigenvalues --   -0.36750
 Alpha virt. eigenvalues --   -0.00605   0.20687   0.29302   0.93428   0.93428
 Alpha virt. eigenvalues --    1.01534   1.06784   1.15013   1.15013   1.40959
 Alpha virt. eigenvalues --    1.40959   1.53711   1.86903   2.23211   2.39635

  Beta  occ. eigenvalues --  -24.62914  -1.09904  -0.45463  -0.36151  -0.36151
  Beta virt. eigenvalues --   -0.19306   0.02907   0.24793   0.32143   0.93583
  Beta virt. eigenvalues --    0.93583   1.03063   1.13877   1.24347   1.24347
  Beta virt. eigenvalues --    1.44700   1.44700   1.56650   1.94475   2.29034

 Mulliken charges and spin densities:
               1          2
     1  H    0.301696  -0.060759
     2  H    0.057649   0.867460
     3  F   -0.359345   0.193298
 Sum of Mulliken charges =   0.00000   1.00000

 Dipole moment (field-independent basis, Debye):
    X=             -2.7740    Y=              0.0000    Z=             -0.0000  Tot=              2.7740
 Quadrupole moment (field-independent basis, Debye-Ang):
   XX=             -8.0426   YY=             -7.0320   ZZ=             -7.0320
   XY=              0.0000   XZ=             -0.0000   YZ=             -0.0000

  Exact polarizability:      21.897      -0.000       2.420       0.000      -0.000       2.420
 Approx polarizability:      28.194       0.000       2.389       0.000      -0.000       2.389

 ******    1 imaginary frequencies (negative Signs) ******

                      1                      2                      3
                      A                      A                      A
 Frequencies --  -1848.5867               461.8104              1119.6544
 Red. masses --      1.0192                 1.0951                 1.0203
 Frc consts  --      2.0521                 0.1376                 0.7536
 IR Inten    --     27.3181                27.4603                62.2231

                      4
                      A
 Frequencies --   1119.6544
 Red. masses --      1.0203
 Frc consts  --      0.7536
 IR Inten    --     62.2231

 - Thermochemistry -
 -------------------
 Temperature   298.150 Kelvin.  Pressure   1.00000 Atm.
 Atom     1 has atomic number  1 and mass   1.00783

 Molecular mass:    21.01405 amu.
 Principal axes and moments of inertia in atomic units:
                           1         2         3
     Eigenvalues --     0.00000  30.07924  30.07924
           X            1.00000  -0.00000   0.00000
           Y            0.00000   1.00000   0.00000
           Z            0.00000   0.00000   1.00000
 This molecule is a prolate symmetric top.
 Rotational symmetry number  1.
 Rotational temperature (Kelvin)      2.87952
 Rotational constant (GHZ):          59.999557
    1 imaginary frequencies ignored.
 Zero-point vibrational energy      16156.3 (Joules/Mol)
                                    3.86144 (Kcal/Mol)
 Warning -- explicit consideration of   1 degrees of freedom as
           vibrations may cause significant error
 Vibrational temperatures:    664.44  1610.93  1610.93
          (Kelvin)

 Zero-point correction=                           0.006154 (Hartree/Particle)
 Thermal correction to Energy=                    0.008814
 Thermal correction to Enthalpy=                  0.009758
 Thermal correction to Gibbs Free Energy=        -0.013299
 Sum of electronic and zero-point Energies=           -100.916312
 Sum of electronic and thermal Energies=              -100.913651
 Sum of electronic and thermal Enthalpies=            -100.912707
 Sum of electronic and thermal Free Energies=         -100.935765

                     E (Thermal)             CV                S
                      KCal/Mol        Cal/Mol-Kelvin    Cal/Mol-Kelvin
 Total                    5.531              6.830             48.529
 Electronic               0.000              0.000              1.377
 Translational            0.889              2.981             35.068
 Rotational               0.592              1.987             11.208
 Vibrational              4.050              1.862              0.876
 Vibration     1          0.820              1.335              0.761

 Normal termination of Gaussian 16 at Fri Aug 22 16:12:14 2025.
