 Gaussian 16, Revision C.01,
 Gaussian 16:  ES64L-G16RevC.01  3-Jul-2019

 -----------------------------------------
 # sp b3lyp/6-311g** Force nosymm scf=(qc)
 -----------------------------------------

 -------------------
 Title Card Required
 -------------------
 Symbolic Z-matrix:
 Charge =  0 Multiplicity = 2

                          Input orientation:
 ---------------------------------------------------------------------
 Center     Atomic      Atomic             Coordinates (Angstroms)
 Number     Number       Type             X           Y           Z
 ---------------------------------------------------------------------
      1          1           0        0.000000    0.000000    0.000000
      2          1           0       -2.050000    0.000000    0.000000
      3          9           0        2.300000    0.000000    0.000000
 ---------------------------------------------------------------------

 SCF Done:  E(UB3LYP) =  -100.785206639     a.u. after   17 cycles

 Alpha  occ. eigenvalues --  -24.70498  -1.16765  -0.49590  -0.41650  -0.41650
 Alpha  occ. eigenvalues --   -0.35286
 Alpha virt. eigenvalues --   -0.13153   0.24543   0.31944   0.88950   0.94251
 Alpha virt. eigenvalues --    0.94251   1.05675   1.22630   1.22630   1.25219
 Alpha virt. eigenvalues --    1.34717   1.34717   1.49688   2.11076   2.32890

  Beta  occ. eigenvalues --  -24.67779  -1.09062  -0.38947  -0.38947  -0.35945
  Beta virt. eigenvalues --   -0.22748  -0.11586   0.26539   0.32195   0.94107
  Beta virt. eigenvalues --    0.95491   0.95491   1.08622   1.22493   1.22493
  Beta virt. eigenvalues --    1.31590   1.37148   1.37148   1.48575   2.11545

 Mulliken charges and spin densities:
               1          2
     1  H    0.086105  -0.748732
     2  H    0.032930   0.891209
     3  F   -0.119036   0.857523
 Sum of Mulliken charges =  -0.00000   1.00000

 Dipole moment (field-independent basis, Debye):
    X=             -1.7066    Y=             -0.0000    Z=             -0.0000  Tot=              1.7066
 Quadrupole moment (field-independent basis, Debye-Ang):
   XX=             -8.5123   YY=             -7.6209   ZZ=             -7.6209
   XY=             -0.0000   XZ=             -0.0000   YZ=             -0.0000

  Exact polarizability:      54.874      -0.000       2.021      -0.000       0.000       2.021
 Approx polarizability:      60.974       0.000       1.933       0.000       0.000       1.933

 ******    2 imaginary frequencies (negative Signs) ******

                      1                      2                      3
                      A                      A                      A
 Frequencies --  -1351.9773              -462.9430               549.7895
 Red. masses --      1.0120                 1.1036                 1.0166
 Frc consts  --      1.0898                 0.1393                 0.1810
 IR Inten    --     79.3849                49.7581                 4.5360

                      4
                      A
 Frequencies --    549.7895
 Red. masses --      1.0166
 Frc consts  --      0.1810
 IR Inten    --      4.5360

 - Thermochemistry -
 -------------------
 Temperature   298.150 Kelvin.  Pressure   1.00000 Atm.
 Atom     1 has atomic number  1 and mass   1.00783

 Molecular mass:    21.01405 amu.
 Principal axes and moments of inertia in atomic units:
                           1         2         3
     Eigenvalues --     0.00000  79.50788  79.50788
           X            1.00000  -0.00000   0.00000
           Y            0.00000   1.00000   0.00000
           Z            0.00000   0.00000   1.00000
 This molecule is a prolate symmetric top.
 Rotational symmetry number  1.
 Rotational temperature (Kelvin)      1.08938
 Rotational constant (GHZ):          22.698896
    2 imaginary frequencies ignored.
 Zero-point vibrational energy       6576.9 (Joules/Mol)
                                    1.57193 (Kcal/Mol)
 Warning -- explicit consideration of   2 degrees of freedom as
           vibrations may cause significant error
 Vibrational temperatures:    791.02   791.02
          (Kelvin)

 Zero-point correction=                           0.002505 (Hartree/Particle)
 Thermal correction to Energy=                    0.005245
 Thermal correction to Enthalpy=                  0.006189
 Thermal correction to Gibbs Free Energy=        -0.017888
 Sum of electronic and zero-point Energies=           -100.782702
 Sum of electronic and thermal Energies=              -100.779962
 Sum of electronic and thermal Enthalpies=            -100.779017
 Sum of electronic and thermal Free Energies=         -100.803094

                     E (Thermal)             CV                S
                      KCal/Mol        Cal/Mol-Kelvin    Cal/Mol-Kelvin
 Total                    3.291              7.248             50.674
 Electronic               0.000              0.000              1.377
 Translational            0.889              2.981             35.068
 Rotational               0.592              1.987             13.139
 Vibrational              1.810              2.280              1.089
 Vibration     1          0.905              1.140              0.545
 Vibration     2          0.905              1.140              0.545

 Normal termination of Gaussian 16 at Fri Aug 22 17:21:56 2025.
