 Gaussian 16, Revision C.01,
 Gaussian 16:  ES64L-G16RevC.01  3-Jul-2019

 -----------------------------------------
 # sp b3lyp/6-311g** Force nosymm scf=(qc)
 -----------------------------------------

 -------------------
 Title Card Required
 -------------------
 Symbolic Z-matrix:
 Charge =  0 Multiplicity = 2

                          Input orientation:
 ---------------------------------------------------------------------
 Center     Atomic      Atomic             Coordinates (Angstroms)
 Number     Number       Type             X           Y           Z
 ---------------------------------------------------------------------
      1          1           0        0.000000    0.000000    0.000000
      2          1           0       -2.650000    0.000000    0.000000
      3          9           0        0.750000    0.000000    0.000000
 ---------------------------------------------------------------------

 SCF Done:  E(UB3LYP) =  -100.922125994     a.u. after    6 cycles

 Alpha  occ. eigenvalues --  -24.63411  -1.25431  -0.57365  -0.41149  -0.41149
 Alpha  occ. eigenvalues --   -0.34337
 Alpha virt. eigenvalues --    0.06827   0.25511   0.49232   0.93965   0.93965
 Alpha virt. eigenvalues --    0.96449   1.19666   1.23207   1.23207   1.39031
 Alpha virt. eigenvalues --    1.41751   1.41751   2.00730   2.14326   2.67781

  Beta  occ. eigenvalues --  -24.63404  -1.25411  -0.57340  -0.41144  -0.41144
  Beta virt. eigenvalues --   -0.07909   0.08176   0.38191   0.49393   0.93964
  Beta virt. eigenvalues --    0.93964   0.96509   1.29724   1.41744   1.41744
  Beta virt. eigenvalues --    1.47132   1.47132   1.53533   2.00562   2.43005

 Mulliken charges and spin densities:
               1          2
     1  H    0.264513   0.002678
     2  H    0.003744   0.994605
     3  F   -0.268258   0.002717
 Sum of Mulliken charges =   0.00000   1.00000

 Dipole moment (field-independent basis, Debye):
    X=             -1.7076    Y=             -0.0000    Z=             -0.0000  Tot=              1.7076
 Quadrupole moment (field-independent basis, Debye-Ang):
   XX=             -7.2966   YY=             -6.7127   ZZ=             -6.7127
   XY=             -0.0000   XZ=             -0.0000   YZ=              0.0000

  Exact polarizability:       5.566       0.000       2.468      -0.000      -0.000       2.468
 Approx polarizability:       5.829       0.000       2.452       0.000      -0.000       2.452

 ******    2 imaginary frequencies (negative Signs) ******

                      1                      2                      3
                      A                      A                      A
 Frequencies --  -2685.6198             -2685.6198                55.9464
 Red. masses --      1.0371                 1.0371                 1.0532
 Frc consts  --      4.4072                 4.4072                 0.0019
 IR Inten    --    193.6689               193.6689                 0.2358

                      4
                      A
 Frequencies --   7585.5213
 Red. masses --      1.0583
 Frc consts  --     35.8789
 IR Inten    --    120.4991

 - Thermochemistry -
 -------------------
 Temperature   298.150 Kelvin.  Pressure   1.00000 Atm.
 Atom     1 has atomic number  1 and mass   1.00783

 Molecular mass:    21.01405 amu.
 Principal axes and moments of inertia in atomic units:
                           1         2         3
     Eigenvalues --     0.00000  40.65626  40.65626
           X            1.00000  -0.00000   0.00000
           Y            0.00000   1.00000   0.00000
           Z            0.00000   0.00000   1.00000
 This molecule is a prolate symmetric top.
 Rotational symmetry number  1.
 Rotational temperature (Kelvin)      2.13040
 Rotational constant (GHZ):          44.390243
    2 imaginary frequencies ignored.
 Zero-point vibrational energy      45706.1 (Joules/Mol)
                                   10.92403 (Kcal/Mol)
 Warning -- explicit consideration of   1 degrees of freedom as
           vibrations may cause significant error
 Vibrational temperatures:     80.49 10913.87
          (Kelvin)

 Zero-point correction=                           0.017409 (Hartree/Particle)
 Thermal correction to Energy=                    0.020591
 Thermal correction to Enthalpy=                  0.021536
 Thermal correction to Gibbs Free Energy=        -0.003574
 Sum of electronic and zero-point Energies=           -100.904717
 Sum of electronic and thermal Energies=              -100.901535
 Sum of electronic and thermal Enthalpies=            -100.900590
 Sum of electronic and thermal Free Energies=         -100.925700

                     E (Thermal)             CV                S
                      KCal/Mol        Cal/Mol-Kelvin    Cal/Mol-Kelvin
 Total                   12.921              6.943             52.847
 Electronic               0.000              0.000              1.377
 Translational            0.889              2.981             35.068
 Rotational               0.592              1.987             11.807
 Vibrational             11.440              1.975              4.595
 Vibration     1          0.596              1.975              4.595

 Normal termination of Gaussian 16 at Fri Aug 22 15:49:11 2025.
