 Gaussian 16, Revision C.01,
 Gaussian 16:  ES64L-G16RevC.01  3-Jul-2019

 -----------------------------------------
 # sp b3lyp/6-311g** Force nosymm scf=(qc)
 -----------------------------------------

 -------------------
 Title Card Required
 -------------------
 Symbolic Z-matrix:
 Charge =  0 Multiplicity = 2

                          Input orientation:
 ---------------------------------------------------------------------
 Center     Atomic      Atomic             Coordinates (Angstroms)
 Number     Number       Type             X           Y           Z
 ---------------------------------------------------------------------
      1          1           0        0.000000    0.000000    0.000000
      2          1           0       -2.000000    0.000000    0.000000
      3          9           0        0.750000    0.000000    0.000000
 ---------------------------------------------------------------------

 SCF Done:  E(UB3LYP) =  -100.921781923     a.u. after    6 cycles

 Alpha  occ. eigenvalues --  -24.63299  -1.25358  -0.57444  -0.41057  -0.41057
 Alpha  occ. eigenvalues --   -0.35453
 Alpha virt. eigenvalues --    0.09501   0.24301   0.47174   0.94038   0.94038
 Alpha virt. eigenvalues --    0.96709   1.16219   1.21924   1.21924   1.41963
 Alpha virt. eigenvalues --    1.41963   1.53548   1.99005   2.17829   2.68881

  Beta  occ. eigenvalues --  -24.63261  -1.25252  -0.57251  -0.41028  -0.41028
  Beta virt. eigenvalues --   -0.10775   0.11122   0.35124   0.47674   0.94042
  Beta virt. eigenvalues --    0.94042   0.96950   1.25809   1.40165   1.40165
  Beta virt. eigenvalues --    1.43738   1.43738   1.62265   2.02473   2.40422

 Mulliken charges and spin densities:
               1          2
     1  H    0.254318   0.008867
     2  H    0.010704   0.982765
     3  F   -0.265022   0.008367
 Sum of Mulliken charges =   0.00000   1.00000

 Dipole moment (field-independent basis, Debye):
    X=             -1.7632    Y=             -0.0000    Z=             -0.0000  Tot=              1.7632
 Quadrupole moment (field-independent basis, Debye-Ang):
   XX=             -7.1540   YY=             -6.6825   ZZ=             -6.6825
   XY=             -0.0000   XZ=             -0.0000   YZ=              0.0000

  Exact polarizability:       7.006       0.000       2.501      -0.000      -0.000       2.501
 Approx polarizability:       7.025       0.000       2.493       0.000      -0.000       2.493

 ******    2 imaginary frequencies (negative Signs) ******

                      1                      2                      3
                      A                      A                      A
 Frequencies --  -2659.9577             -2659.9577               314.0907
 Red. masses --      1.0327                 1.0327                 1.0533
 Frc consts  --      4.3051                 4.3051                 0.0612
 IR Inten    --    170.8024               170.8024                 0.2660

                      4
                      A
 Frequencies --   7579.0645
 Red. masses --      1.0583
 Frc consts  --     35.8170
 IR Inten    --    150.1140

 - Thermochemistry -
 -------------------
 Temperature   298.150 Kelvin.  Pressure   1.00000 Atm.
 Atom     1 has atomic number  1 and mass   1.00783

 Molecular mass:    21.01405 amu.
 Principal axes and moments of inertia in atomic units:
                           1         2         3
     Eigenvalues --     0.00000  27.12751  27.12751
           X            1.00000  -0.00000   0.00000
           Y            0.00000   1.00000   0.00000
           Z            0.00000   0.00000   1.00000
 This molecule is a prolate symmetric top.
 Rotational symmetry number  1.
 Rotational temperature (Kelvin)      3.19284
 Rotational constant (GHZ):          66.528083
    2 imaginary frequencies ignored.
 Zero-point vibrational energy      47211.6 (Joules/Mol)
                                   11.28383 (Kcal/Mol)
 Warning -- explicit consideration of   1 degrees of freedom as
           vibrations may cause significant error
 Vibrational temperatures:    451.91 10904.58
          (Kelvin)

 Zero-point correction=                           0.017982 (Hartree/Particle)
 Thermal correction to Energy=                    0.020745
 Thermal correction to Enthalpy=                  0.021689
 Thermal correction to Gibbs Free Energy=        -0.001492
 Sum of electronic and zero-point Energies=           -100.903800
 Sum of electronic and thermal Energies=              -100.901037
 Sum of electronic and thermal Enthalpies=            -100.900093
 Sum of electronic and thermal Free Energies=         -100.923274

                     E (Thermal)             CV                S
                      KCal/Mol        Cal/Mol-Kelvin    Cal/Mol-Kelvin
 Total                   13.018              6.615             48.789
 Electronic               0.000              0.000              1.377
 Translational            0.889              2.981             35.068
 Rotational               0.592              1.987             11.003
 Vibrational             11.537              1.647              1.341
 Vibration     1          0.702              1.647              1.341

 Normal termination of Gaussian 16 at Fri Aug 22 15:48:45 2025.
