 Gaussian 16, Revision C.01,
 Gaussian 16:  ES64L-G16RevC.01  3-Jul-2019

 -----------------------------------------
 # sp b3lyp/6-311g** Force nosymm scf=(qc)
 -----------------------------------------

 -------------------
 Title Card Required
 -------------------
 Symbolic Z-matrix:
 Charge =  0 Multiplicity = 2

                          Input orientation:
 ---------------------------------------------------------------------
 Center     Atomic      Atomic             Coordinates (Angstroms)
 Number     Number       Type             X           Y           Z
 ---------------------------------------------------------------------
      1          1           0        0.000000    0.000000    0.000000
      2          1           0       -4.000000    0.000000    0.000000
      3          9           0        1.500000    0.000000    0.000000
 ---------------------------------------------------------------------

 SCF Done:  E(UB3LYP) =  -100.854610930     a.u. after    8 cycles

 Alpha  occ. eigenvalues --  -24.64369  -1.09689  -0.43237  -0.36443  -0.36443
 Alpha  occ. eigenvalues --   -0.33581
 Alpha virt. eigenvalues --   -0.14542   0.20576   0.26845   0.93484   0.93484
 Alpha virt. eigenvalues --    1.03523   1.09310   1.23885   1.23925   1.23925
 Alpha virt. eigenvalues --    1.31094   1.31094   1.72817   2.12682   2.18902

  Beta  occ. eigenvalues --  -24.64357  -1.09659  -0.43211  -0.36432  -0.36432
  Beta virt. eigenvalues --   -0.14641  -0.06017   0.23092   0.38286   0.93479
  Beta virt. eigenvalues --    0.93479   1.03551   1.09309   1.31038   1.31038
  Beta virt. eigenvalues --    1.46645   1.46917   1.46917   1.72812   2.17654

 Mulliken charges and spin densities:
               1          2
     1  H    0.349814  -0.003127
     2  H    0.000534   0.999438
     3  F   -0.350348   0.003689
 Sum of Mulliken charges =   0.00000   1.00000

 Dipole moment (field-independent basis, Debye):
    X=             -2.5922    Y=             -0.0000    Z=             -0.0000  Tot=              2.5922
 Quadrupole moment (field-independent basis, Debye-Ang):
   XX=             -9.9745   YY=             -7.3208   ZZ=             -7.3208
   XY=             -0.0000   XZ=              0.0000   YZ=             -0.0000

  Exact polarizability:      14.589      -0.000       2.186       0.000       0.000       2.186
 Approx polarizability:      28.204      -0.000       2.110       0.000       0.000       2.110

 ******    2 imaginary frequencies (negative Signs) ******

                      1                      2                      3
                      A                      A                      A
 Frequencies --  -1144.4656               -41.3231              1023.2887
 Red. masses --      1.0581                 1.0534                 1.0327
 Frc consts  --      0.8166                 0.0011                 0.6371
 IR Inten    --     37.7961                 0.0300               120.2595

                      4
                      A
 Frequencies --   1023.2887
 Red. masses --      1.0327
 Frc consts  --      0.6371
 IR Inten    --    120.2595

 - Thermochemistry -
 -------------------
 Temperature   298.150 Kelvin.  Pressure   1.00000 Atm.
 Atom     1 has atomic number  1 and mass   1.00783

 Molecular mass:    21.01405 amu.
 Principal axes and moments of inertia in atomic units:
                           1         2         3
     Eigenvalues --     0.00000 108.51004 108.51004
           X            1.00000  -0.00000   0.00000
           Y            0.00000   1.00000   0.00000
           Z            0.00000   0.00000   1.00000
 This molecule is a prolate symmetric top.
 Rotational symmetry number  1.
 Rotational temperature (Kelvin)      0.79821
 Rotational constant (GHZ):          16.632021
    2 imaginary frequencies ignored.
 Zero-point vibrational energy      12241.3 (Joules/Mol)
                                    2.92573 (Kcal/Mol)
 Vibrational temperatures:   1472.28  1472.28
          (Kelvin)

 Zero-point correction=                           0.004662 (Hartree/Particle)
 Thermal correction to Energy=                    0.007090
 Thermal correction to Enthalpy=                  0.008034
 Thermal correction to Gibbs Free Energy=        -0.015899
 Sum of electronic and zero-point Energies=           -100.849948
 Sum of electronic and thermal Energies=              -100.847521
 Sum of electronic and thermal Enthalpies=            -100.846577
 Sum of electronic and thermal Free Energies=         -100.870510

                     E (Thermal)             CV                S
                      KCal/Mol        Cal/Mol-Kelvin    Cal/Mol-Kelvin
 Total                    4.449              5.673             50.373
 Electronic               0.000              0.000              1.377
 Translational            0.889              2.981             35.068
 Rotational               0.592              1.987             13.757
 Vibrational              2.968              0.705              0.170

 Normal termination of Gaussian 16 at Fri Aug 22 16:26:57 2025.
