 Gaussian 16, Revision C.01,
 Gaussian 16:  ES64L-G16RevC.01  3-Jul-2019

 -----------------------------------------
 # sp b3lyp/6-311g** Force nosymm scf=(qc)
 -----------------------------------------

 -------------------
 Title Card Required
 -------------------
 Symbolic Z-matrix:
 Charge =  0 Multiplicity = 2

                          Input orientation:
 ---------------------------------------------------------------------
 Center     Atomic      Atomic             Coordinates (Angstroms)
 Number     Number       Type             X           Y           Z
 ---------------------------------------------------------------------
      1          1           0        0.000000    0.000000    0.000000
      2          1           0       -3.150000    0.000000    0.000000
      3          9           0        1.000000    0.000000    0.000000
 ---------------------------------------------------------------------

 SCF Done:  E(UB3LYP) =  -100.966218000     a.u. after    6 cycles

 Alpha  occ. eigenvalues --  -24.64167  -1.16043  -0.51643  -0.38787  -0.38787
 Alpha  occ. eigenvalues --   -0.34035
 Alpha virt. eigenvalues --    0.00735   0.24511   0.34374   0.94053   0.94053
 Alpha virt. eigenvalues --    0.98588   1.23164   1.23490   1.23490   1.30738
 Alpha virt. eigenvalues --    1.35944   1.35944   1.90448   2.14370   2.34062

  Beta  occ. eigenvalues --  -24.64162  -1.16031  -0.51629  -0.38784  -0.38784
  Beta virt. eigenvalues --   -0.07007   0.01780   0.33911   0.38771   0.94054
  Beta virt. eigenvalues --    0.94054   0.98588   1.29909   1.35940   1.35940
  Beta virt. eigenvalues --    1.48932   1.48932   1.49426   1.90527   2.34024

 Mulliken charges and spin densities:
               1          2
     1  H    0.318963   0.001009
     2  H    0.002023   0.997480
     3  F   -0.320986   0.001511
 Sum of Mulliken charges =   0.00000   1.00000

 Dipole moment (field-independent basis, Debye):
    X=             -2.0537    Y=              0.0000    Z=             -0.0000  Tot=              2.0537
 Quadrupole moment (field-independent basis, Debye-Ang):
   XX=             -8.1598   YY=             -6.9616   ZZ=             -6.9616
   XY=              0.0000   XZ=             -0.0000   YZ=              0.0000

  Exact polarizability:       7.215       0.000       2.404      -0.000      -0.000       2.404
 Approx polarizability:       8.665       0.000       2.378       0.000      -0.000       2.378

 ******    1 imaginary frequencies (negative Signs) ******

                      1                      2                      3
                      A                      A                      A
 Frequencies --    -66.2917               979.0703               979.0703
 Red. masses --      1.0532                 1.0354                 1.0354
 Frc consts  --      0.0027                 0.5847                 0.5847
 IR Inten    --      0.1635               165.6900               165.6900

                      4
                      A
 Frequencies --   3025.0376
 Red. masses --      1.0584
 Frc consts  --      5.7064
 IR Inten    --     95.9306

 - Thermochemistry -
 -------------------
 Temperature   298.150 Kelvin.  Pressure   1.00000 Atm.
 Atom     1 has atomic number  1 and mass   1.00783

 Molecular mass:    21.01405 amu.
 Principal axes and moments of inertia in atomic units:
                           1         2         3
     Eigenvalues --     0.00000  61.00497  61.00497
           X            1.00000  -0.00000   0.00000
           Y            0.00000   1.00000   0.00000
           Z            0.00000   0.00000   1.00000
 This molecule is a prolate symmetric top.
 Rotational symmetry number  1.
 Rotational temperature (Kelvin)      1.41978
 Rotational constant (GHZ):          29.583513
    1 imaginary frequencies ignored.
 Zero-point vibrational energy      29806.0 (Joules/Mol)
                                    7.12381 (Kcal/Mol)
 Vibrational temperatures:   1408.66  1408.66  4352.35
          (Kelvin)

 Zero-point correction=                           0.011353 (Hartree/Particle)
 Thermal correction to Energy=                    0.013793
 Thermal correction to Enthalpy=                  0.014737
 Thermal correction to Gibbs Free Energy=        -0.008669
 Sum of electronic and zero-point Energies=           -100.954865
 Sum of electronic and thermal Energies=              -100.952425
 Sum of electronic and thermal Enthalpies=            -100.951481
 Sum of electronic and thermal Free Energies=         -100.974887

                     E (Thermal)             CV                S
                      KCal/Mol        Cal/Mol-Kelvin    Cal/Mol-Kelvin
 Total                    8.655              5.770             49.262
 Electronic               0.000              0.000              1.377
 Translational            0.889              2.981             35.068
 Rotational               0.592              1.987             12.613
 Vibrational              7.174              0.802              0.204

 Normal termination of Gaussian 16 at Fri Aug 22 16:01:19 2025.
