 Gaussian 16, Revision C.01,
 Gaussian 16:  ES64L-G16RevC.01  3-Jul-2019

 -----------------------------------------
 # sp b3lyp/6-311g** Force nosymm scf=(qc)
 -----------------------------------------

 -------------------
 Title Card Required
 -------------------
 Symbolic Z-matrix:
 Charge =  0 Multiplicity = 2

                          Input orientation:
 ---------------------------------------------------------------------
 Center     Atomic      Atomic             Coordinates (Angstroms)
 Number     Number       Type             X           Y           Z
 ---------------------------------------------------------------------
      1          1           0        0.000000    0.000000    0.000000
      2          1           0       -1.000000    0.000000    0.000000
      3          9           0        3.400000    0.000000    0.000000
 ---------------------------------------------------------------------

 SCF Done:  E(UB3LYP) =  -100.906615238     a.u. after    7 cycles

 Alpha  occ. eigenvalues --  -24.76181  -1.22083  -0.55304  -0.46447  -0.46447
 Alpha  occ. eigenvalues --   -0.39144
 Alpha virt. eigenvalues --    0.00087   0.21196   0.38265   0.88178   0.90947
 Alpha virt. eigenvalues --    0.90947   1.02039   1.08957   1.08957   1.37396
 Alpha virt. eigenvalues --    1.65601   1.65601   2.22141   2.36062   2.58712

  Beta  occ. eigenvalues --  -24.73033  -1.13028  -0.43290  -0.43290  -0.39135
  Beta virt. eigenvalues --   -0.26068   0.00145   0.21247   0.38483   0.92444
  Beta virt. eigenvalues --    0.92444   0.97302   1.06182   1.08970   1.08970
  Beta virt. eigenvalues --    1.37426   1.65612   1.65612   2.22189   2.36086

 Mulliken charges and spin densities:
               1          2
     1  H   -0.006099  -0.001425
     2  H    0.005532   0.003293
     3  F    0.000567   0.998133
 Sum of Mulliken charges =  -0.00000   1.00000

 Dipole moment (field-independent basis, Debye):
    X=             -0.0210    Y=             -0.0000    Z=             -0.0000  Tot=              0.0210
 Quadrupole moment (field-independent basis, Debye-Ang):
   XX=             -5.4978   YY=             -7.2712   ZZ=             -7.2712
   XY=             -0.0000   XZ=             -0.0000   YZ=             -0.0000

  Exact polarizability:      13.500       0.000       2.057      -0.000       0.000       2.057
 Approx polarizability:      17.230       0.000       2.109      -0.000       0.000       2.109

 ******    1 imaginary frequencies (negative Signs) ******

                      1                      2                      3
                      A                      A                      A
 Frequencies --    -40.1492              1538.0264              1538.0264
 Red. masses --      1.1085                 1.0095                 1.0095
 Frc consts  --      0.0011                 1.4069                 1.4069
 IR Inten    --      0.0634                 0.0372                 0.0372

                      4
                      A
 Frequencies --   1790.9363
 Red. masses --      1.0078
 Frc consts  --      1.9046
 IR Inten    --      1.0730

 - Thermochemistry -
 -------------------
 Temperature   298.150 Kelvin.  Pressure   1.00000 Atm.
 Atom     1 has atomic number  1 and mass   1.00783

 Molecular mass:    21.01405 amu.
 Principal axes and moments of inertia in atomic units:
                           1         2         3
     Eigenvalues --     0.00000 100.77994 100.77994
           X            1.00000  -0.00000   0.00000
           Y            0.00000   1.00000   0.00000
           Z            0.00000   0.00000   1.00000
 This molecule is a prolate symmetric top.
 Rotational symmetry number  1.
 Rotational temperature (Kelvin)      0.85944
 Rotational constant (GHZ):          17.907743
    1 imaginary frequencies ignored.
 Zero-point vibrational energy      29111.1 (Joules/Mol)
                                    6.95771 (Kcal/Mol)
 Vibrational temperatures:   2212.88  2212.88  2576.76
          (Kelvin)

 Zero-point correction=                           0.011088 (Hartree/Particle)
 Thermal correction to Energy=                    0.013458
 Thermal correction to Enthalpy=                  0.014402
 Thermal correction to Gibbs Free Energy=        -0.009392
 Sum of electronic and zero-point Energies=           -100.895527
 Sum of electronic and thermal Energies=              -100.893157
 Sum of electronic and thermal Enthalpies=            -100.892213
 Sum of electronic and thermal Free Energies=         -100.916007

                     E (Thermal)             CV                S
                      KCal/Mol        Cal/Mol-Kelvin    Cal/Mol-Kelvin
 Total                    8.445              5.125             50.079
 Electronic               0.000              0.000              1.377
 Translational            0.889              2.981             35.068
 Rotational               0.592              1.987             13.611
 Vibrational              6.964              0.157              0.023

 Normal termination of Gaussian 16 at Fri Aug 22 21:08:49 2025.
