 Gaussian 16, Revision C.01,
 Gaussian 16:  ES64L-G16RevC.01  3-Jul-2019

 -----------------------------------------
 # sp b3lyp/6-311g** Force nosymm scf=(qc)
 -----------------------------------------

 -------------------
 Title Card Required
 -------------------
 Symbolic Z-matrix:
 Charge =  0 Multiplicity = 2

                          Input orientation:
 ---------------------------------------------------------------------
 Center     Atomic      Atomic             Coordinates (Angstroms)
 Number     Number       Type             X           Y           Z
 ---------------------------------------------------------------------
      1          1           0        0.000000    0.000000    0.000000
      2          1           0       -3.400000    0.000000    0.000000
      3          9           0        1.000000    0.000000    0.000000
 ---------------------------------------------------------------------

 SCF Done:  E(UB3LYP) =  -100.966163245     a.u. after    6 cycles

 Alpha  occ. eigenvalues --  -24.64182  -1.16056  -0.51652  -0.38801  -0.38801
 Alpha  occ. eigenvalues --   -0.33785
 Alpha virt. eigenvalues --    0.00612   0.24055   0.34563   0.94040   0.94040
 Alpha virt. eigenvalues --    0.98574   1.23576   1.23732   1.23732   1.29771
 Alpha virt. eigenvalues --    1.35928   1.35928   1.90245   2.14239   2.33911

  Beta  occ. eigenvalues --  -24.64180  -1.16050  -0.51646  -0.38799  -0.38799
  Beta virt. eigenvalues --   -0.06187   0.01367   0.33561   0.39285   0.94040
  Beta virt. eigenvalues --    0.94040   0.98576   1.29480   1.35926   1.35926
  Beta virt. eigenvalues --    1.49804   1.49908   1.49908   1.90276   2.33794

 Mulliken charges and spin densities:
               1          2
     1  H    0.319624   0.000644
     2  H    0.001218   0.998547
     3  F   -0.320842   0.000808
 Sum of Mulliken charges =   0.00000   1.00000

 Dipole moment (field-independent basis, Debye):
    X=             -2.0414    Y=             -0.0000    Z=              0.0000  Tot=              2.0414
 Quadrupole moment (field-independent basis, Debye-Ang):
   XX=             -8.2065   YY=             -6.9620   ZZ=             -6.9620
   XY=             -0.0000   XZ=              0.0000   YZ=             -0.0000

  Exact polarizability:       6.827      -0.000       2.400      -0.000      -0.000       2.400
 Approx polarizability:       8.328       0.000       2.373       0.000      -0.000       2.373

 ******    1 imaginary frequencies (negative Signs) ******

                      1                      2                      3
                      A                      A                      A
 Frequencies --    -55.4910               982.5316               982.5316
 Red. masses --      1.0532                 1.0365                 1.0365
 Frc consts  --      0.0019                 0.5896                 0.5896
 IR Inten    --      0.0747               168.0115               168.0115

                      4
                      A
 Frequencies --   3026.3630
 Red. masses --      1.0584
 Frc consts  --      5.7112
 IR Inten    --     91.1561

 - Thermochemistry -
 -------------------
 Temperature   298.150 Kelvin.  Pressure   1.00000 Atm.
 Atom     1 has atomic number  1 and mass   1.00783

 Molecular mass:    21.01405 amu.
 Principal axes and moments of inertia in atomic units:
                           1         2         3
     Eigenvalues --     0.00000  68.24260  68.24260
           X            1.00000  -0.00000   0.00000
           Y            0.00000   1.00000   0.00000
           Z            0.00000   0.00000   1.00000
 This molecule is a prolate symmetric top.
 Rotational symmetry number  1.
 Rotational temperature (Kelvin)      1.26921
 Rotational constant (GHZ):          26.445963
    1 imaginary frequencies ignored.
 Zero-point vibrational energy      29855.4 (Joules/Mol)
                                    7.13560 (Kcal/Mol)
 Vibrational temperatures:   1413.64  1413.64  4354.26
          (Kelvin)

 Zero-point correction=                           0.011371 (Hartree/Particle)
 Thermal correction to Energy=                    0.013811
 Thermal correction to Enthalpy=                  0.014755
 Thermal correction to Gibbs Free Energy=        -0.008756
 Sum of electronic and zero-point Energies=           -100.954792
 Sum of electronic and thermal Energies=              -100.952353
 Sum of electronic and thermal Enthalpies=            -100.951408
 Sum of electronic and thermal Free Energies=         -100.974919

                     E (Thermal)             CV                S
                      KCal/Mol        Cal/Mol-Kelvin    Cal/Mol-Kelvin
 Total                    8.666              5.762             49.482
 Electronic               0.000              0.000              1.377
 Translational            0.889              2.981             35.068
 Rotational               0.592              1.987             12.836
 Vibrational              7.185              0.794              0.201

 Normal termination of Gaussian 16 at Fri Aug 22 16:01:28 2025.
