 Gaussian 16, Revision C.01,
 Gaussian 16:  ES64L-G16RevC.01  3-Jul-2019

 -----------------------------------------
 # sp b3lyp/6-311g** Force nosymm scf=(qc)
 -----------------------------------------

 -------------------
 Title Card Required
 -------------------
 Symbolic Z-matrix:
 Charge =  0 Multiplicity = 2

                          Input orientation:
 ---------------------------------------------------------------------
 Center     Atomic      Atomic             Coordinates (Angstroms)
 Number     Number       Type             X           Y           Z
 ---------------------------------------------------------------------
      1          1           0        0.000000    0.000000    0.000000
      2          1           0       -0.800000    0.000000    0.000000
      3          9           0        1.750000    0.000000    0.000000
 ---------------------------------------------------------------------

 SCF Done:  E(UB3LYP) =  -100.935189190     a.u. after    7 cycles

 Alpha  occ. eigenvalues --  -24.73064  -1.19478  -0.54412  -0.44020  -0.44020
 Alpha  occ. eigenvalues --   -0.43652
 Alpha virt. eigenvalues --    0.06748   0.20337   0.41590   0.89997   0.89997
 Alpha virt. eigenvalues --    0.95240   1.07200   1.07200   1.17168   1.67319
 Alpha virt. eigenvalues --    1.77386   1.77386   2.03375   2.39382   3.03215

  Beta  occ. eigenvalues --  -24.70203  -1.11433  -0.45055  -0.41193  -0.41193
  Beta virt. eigenvalues --   -0.24743   0.07934   0.21131   0.42699   0.91218
  Beta virt. eigenvalues --    0.91218   1.02482   1.08598   1.08598   1.20397
  Beta virt. eigenvalues --    1.69607   1.78162   1.78162   2.04392   2.40855

 Mulliken charges and spin densities:
               1          2
     1  H    0.054103  -0.044594
     2  H    0.032710   0.157635
     3  F   -0.086813   0.886959
 Sum of Mulliken charges =   0.00000   1.00000

 Dipole moment (field-independent basis, Debye):
    X=             -0.8450    Y=             -0.0000    Z=             -0.0000  Tot=              0.8450
 Quadrupole moment (field-independent basis, Debye-Ang):
   XX=             -6.5354   YY=             -6.9233   ZZ=             -6.9233
   XY=             -0.0000   XZ=             -0.0000   YZ=              0.0000

  Exact polarizability:      21.998       0.000       2.201       0.000       0.000       2.201
 Approx polarizability:      27.072       0.000       2.244       0.000      -0.000       2.244

 ******    1 imaginary frequencies (negative Signs) ******

                      1                      2                      3
                      A                      A                      A
 Frequencies --   -337.1614               797.9946               797.9946
 Red. masses --      1.1082                 1.0112                 1.0112
 Frc consts  --      0.0742                 0.3794                 0.3794
 IR Inten    --     78.8561                 0.0024                 0.0024

                      4
                      A
 Frequencies --   3489.4891
 Red. masses --      1.0080
 Frc consts  --      7.2319
 IR Inten    --    569.3558

 - Thermochemistry -
 -------------------
 Temperature   298.150 Kelvin.  Pressure   1.00000 Atm.
 Atom     1 has atomic number  1 and mass   1.00783

 Molecular mass:    21.01405 amu.
 Principal axes and moments of inertia in atomic units:
                           1         2         3
     Eigenvalues --     0.00000  31.23301  31.23301
           X            1.00000  -0.00000   0.00000
           Y            0.00000   1.00000   0.00000
           Z            0.00000   0.00000   1.00000
 This molecule is a prolate symmetric top.
 Rotational symmetry number  1.
 Rotational temperature (Kelvin)      2.77315
 Rotational constant (GHZ):          57.783125
    1 imaginary frequencies ignored.
 Zero-point vibrational energy      30417.9 (Joules/Mol)
                                    7.27006 (Kcal/Mol)
 Vibrational temperatures:   1148.14  1148.14  5020.60
          (Kelvin)

 Zero-point correction=                           0.011586 (Hartree/Particle)
 Thermal correction to Energy=                    0.014104
 Thermal correction to Enthalpy=                  0.015048
 Thermal correction to Gibbs Free Energy=        -0.007827
 Sum of electronic and zero-point Energies=           -100.923604
 Sum of electronic and thermal Energies=              -100.921085
 Sum of electronic and thermal Enthalpies=            -100.920141
 Sum of electronic and thermal Free Energies=         -100.943017

                     E (Thermal)             CV                S
                      KCal/Mol        Cal/Mol-Kelvin    Cal/Mol-Kelvin
 Total                    8.850              6.276             48.146
 Electronic               0.000              0.000              1.377
 Translational            0.889              2.981             35.068
 Rotational               0.592              1.987             11.283
 Vibrational              7.369              1.308              0.418

 Normal termination of Gaussian 16 at Fri Aug 22 16:39:22 2025.
