 Gaussian 16, Revision C.01,
 Gaussian 16:  ES64L-G16RevC.01  3-Jul-2019

 -----------------------------------------
 # sp b3lyp/6-311g** Force nosymm scf=(qc)
 -----------------------------------------

 -------------------
 Title Card Required
 -------------------
 Symbolic Z-matrix:
 Charge =  0 Multiplicity = 2

                          Input orientation:
 ---------------------------------------------------------------------
 Center     Atomic      Atomic             Coordinates (Angstroms)
 Number     Number       Type             X           Y           Z
 ---------------------------------------------------------------------
      1          1           0        0.000000    0.000000    0.000000
      2          1           0       -1.750000    0.000000    0.000000
      3          9           0        3.600000    0.000000    0.000000
 ---------------------------------------------------------------------

 SCF Done:  E(UB3LYP) =  -100.790244954     a.u. after  299 cycles

 Alpha  occ. eigenvalues --  -24.76267  -1.22155  -0.55358  -0.46538  -0.46514
 Alpha  occ. eigenvalues --   -0.32965
 Alpha virt. eigenvalues --   -0.10601   0.25874   0.31217   0.86020   0.90896
 Alpha virt. eigenvalues --    0.91768   1.01134   1.08765   1.24373   1.24374
 Alpha virt. eigenvalues --    1.37993   1.37997   1.64585   2.15957   2.40717

  Beta  occ. eigenvalues --  -24.73113  -1.13083  -0.43383  -0.43351  -0.32947
  Beta virt. eigenvalues --   -0.26006  -0.10649   0.25849   0.31301   0.92399
  Beta virt. eigenvalues --    0.93214   0.95488   1.05234   1.08748   1.24369
  Beta virt. eigenvalues --    1.24373   1.37976   1.37977   1.64615   2.16250

 Mulliken charges and spin densities:
               1          2
     1  H    0.000476  -0.670969
     2  H   -0.002291   0.670994
     3  F    0.001815   0.999976
 Sum of Mulliken charges =   0.00000   1.00000

 Dipole moment (field-independent basis, Debye):
    X=              0.0384    Y=              0.0000    Z=             -0.0000  Tot=              0.0384
 Quadrupole moment (field-independent basis, Debye-Ang):
   XX=             -6.6448   YY=             -7.7660   ZZ=             -6.9015
   XY=              0.0000   XZ=             -0.0000   YZ=             -0.0025

  Exact polarizability:      23.866       0.000       2.015      -0.000      -0.001       2.479
 Approx polarizability:      35.845       0.000       1.970      -0.000      -0.002       2.553

 ******    2 imaginary frequencies (negative Signs) ******

                      1                      2                      3
                      A                      A                      A
 Frequencies --  -1818.4927               -46.1703               838.3101
 Red. masses --      1.0078                 1.1085                 1.0116
 Frc consts  --      1.9636                 0.0014                 0.4188
 IR Inten    --      0.0179                 0.1107                 0.0018

                      4
                      A
 Frequencies --    838.9090
 Red. masses --      1.0116
 Frc consts  --      0.4194
 IR Inten    --      0.0011

 - Thermochemistry -
 -------------------
 Temperature   298.150 Kelvin.  Pressure   1.00000 Atm.
 Atom     1 has atomic number  1 and mass   1.00783

 Molecular mass:    21.01405 amu.
 Principal axes and moments of inertia in atomic units:
                           1         2         3
     Eigenvalues --     0.00000 135.82953 135.82953
           X            1.00000  -0.00000   0.00000
           Y            0.00000   1.00000   0.00000
           Z            0.00000   0.00000   1.00000
 This molecule is a prolate symmetric top.
 Rotational symmetry number  1.
 Rotational temperature (Kelvin)      0.63767
 Rotational constant (GHZ):          13.286811
    2 imaginary frequencies ignored.
 Zero-point vibrational energy      10032.0 (Joules/Mol)
                                    2.39771 (Kcal/Mol)
 Vibrational temperatures:   1206.14  1207.00
          (Kelvin)

 Zero-point correction=                           0.003821 (Hartree/Particle)
 Thermal correction to Energy=                    0.006317
 Thermal correction to Enthalpy=                  0.007262
 Thermal correction to Gibbs Free Energy=        -0.016973
 Sum of electronic and zero-point Energies=           -100.786424
 Sum of electronic and thermal Energies=              -100.783928
 Sum of electronic and thermal Enthalpies=            -100.782983
 Sum of electronic and thermal Free Energies=         -100.807218

                     E (Thermal)             CV                S
                      KCal/Mol        Cal/Mol-Kelvin    Cal/Mol-Kelvin
 Total                    3.964              6.146             51.005
 Electronic               0.000              0.000              1.377
 Translational            0.889              2.981             35.068
 Rotational               0.592              1.987             14.204
 Vibrational              2.483              1.178              0.356

 Normal termination of Gaussian 16 at Fri Aug 22 23:04:33 2025.
