 Gaussian 16, Revision C.01,
 Gaussian 16:  ES64L-G16RevC.01  3-Jul-2019

 -----------------------------------------
 # sp b3lyp/6-311g** Force nosymm scf=(qc)
 -----------------------------------------

 -------------------
 Title Card Required
 -------------------
 Symbolic Z-matrix:
 Charge =  0 Multiplicity = 2

                          Input orientation:
 ---------------------------------------------------------------------
 Center     Atomic      Atomic             Coordinates (Angstroms)
 Number     Number       Type             X           Y           Z
 ---------------------------------------------------------------------
      1          1           0        0.000000    0.000000    0.000000
      2          1           0       -1.850000    0.000000    0.000000
      3          9           0        3.950000    0.000000    0.000000
 ---------------------------------------------------------------------

 SCF Done:  E(UB3LYP) =  -100.782436606     a.u. after   35 cycles

 Alpha  occ. eigenvalues --  -24.76150  -1.22057  -0.55262  -0.46430  -0.46419
 Alpha  occ. eigenvalues --   -0.32862
 Alpha virt. eigenvalues --   -0.10670   0.26025   0.31909   0.86097   0.90975
 Alpha virt. eigenvalues --    0.91296   1.00904   1.11819   1.24966   1.24967
 Alpha virt. eigenvalues --    1.37836   1.37839   1.58652   2.14383   2.38504

  Beta  occ. eigenvalues --  -24.72996  -1.12985  -0.43271  -0.43256  -0.32846
  Beta virt. eigenvalues --   -0.25915  -0.10712   0.26019   0.31916   0.92476
  Beta virt. eigenvalues --    0.92768   0.95565   1.05046   1.11809   1.24970
  Beta virt. eigenvalues --    1.24973   1.37816   1.37816   1.58653   2.14516

 Mulliken charges and spin densities:
               1          2
     1  H    0.000649  -0.763315
     2  H   -0.001296   0.763331
     3  F    0.000647   0.999984
 Sum of Mulliken charges =   0.00000   1.00000

 Dipole moment (field-independent basis, Debye):
    X=              0.0192    Y=              0.0000    Z=             -0.0000  Tot=              0.0192
 Quadrupole moment (field-independent basis, Debye-Ang):
   XX=             -6.8268   YY=             -6.8879   ZZ=             -7.7526
   XY=              0.0000   XZ=             -0.0000   YZ=             -0.0053

  Exact polarizability:      23.132       0.000       2.477      -0.000      -0.003       2.012
 Approx polarizability:      31.173       0.000       2.537      -0.000      -0.004       1.954

 ******    2 imaginary frequencies (negative Signs) ******

                      1                      2                      3
                      A                      A                      A
 Frequencies --  -1632.8703               -50.2990               714.1111
 Red. masses --      1.0078                 1.1085                 1.0113
 Frc consts  --      1.5832                 0.0017                 0.3039
 IR Inten    --      0.0021                 0.0274                 0.0010

                      4
                      A
 Frequencies --    714.4591
 Red. masses --      1.0113
 Frc consts  --      0.3042
 IR Inten    --      0.0007

 - Thermochemistry -
 -------------------
 Temperature   298.150 Kelvin.  Pressure   1.00000 Atm.
 Atom     1 has atomic number  1 and mass   1.00783

 Molecular mass:    21.01405 amu.
 Principal axes and moments of inertia in atomic units:
                           1         2         3
     Eigenvalues --     0.00000 160.81573 160.81573
           X            1.00000  -0.00000   0.00000
           Y            0.00000   1.00000   0.00000
           Z            0.00000   0.00000   1.00000
 This molecule is a prolate symmetric top.
 Rotational symmetry number  1.
 Rotational temperature (Kelvin)      0.53859
 Rotational constant (GHZ):          11.222417
    2 imaginary frequencies ignored.
 Zero-point vibrational energy       8544.7 (Joules/Mol)
                                    2.04224 (Kcal/Mol)
 Vibrational temperatures:   1027.45  1027.95
          (Kelvin)

 Zero-point correction=                           0.003255 (Hartree/Particle)
 Thermal correction to Energy=                    0.005829
 Thermal correction to Enthalpy=                  0.006773
 Thermal correction to Gibbs Free Energy=        -0.017726
 Sum of electronic and zero-point Energies=           -100.779182
 Sum of electronic and thermal Energies=              -100.776608
 Sum of electronic and thermal Enthalpies=            -100.775663
 Sum of electronic and thermal Free Energies=         -100.800163

                     E (Thermal)             CV                S
                      KCal/Mol        Cal/Mol-Kelvin    Cal/Mol-Kelvin
 Total                    3.658              6.572             51.564
 Electronic               0.000              0.000              1.377
 Translational            0.889              2.981             35.068
 Rotational               0.592              1.987             14.539
 Vibrational              2.177              1.604              0.579

 Normal termination of Gaussian 16 at Sat Aug 23 01:36:01 2025.
