 Gaussian 16, Revision C.01,
 Gaussian 16:  ES64L-G16RevC.01  3-Jul-2019

 -----------------------------------------
 # sp b3lyp/6-311g** Force nosymm scf=(qc)
 -----------------------------------------

 -------------------
 Title Card Required
 -------------------
 Symbolic Z-matrix:
 Charge =  0 Multiplicity = 2

                          Input orientation:
 ---------------------------------------------------------------------
 Center     Atomic      Atomic             Coordinates (Angstroms)
 Number     Number       Type             X           Y           Z
 ---------------------------------------------------------------------
      1          1           0        0.000000    0.000000    0.000000
      2          1           0       -2.800000    0.000000    0.000000
      3          9           0        3.600000    0.000000    0.000000
 ---------------------------------------------------------------------

 SCF Done:  E(UB3LYP) =  -100.760596321     a.u. after   30 cycles

 Alpha  occ. eigenvalues --  -24.75565  -1.21515  -0.54688  -0.45918  -0.45918
 Alpha  occ. eigenvalues --   -0.32481
 Alpha virt. eigenvalues --   -0.08485   0.25314   0.35436   0.87313   0.91368
 Alpha virt. eigenvalues --    0.91368   1.01569   1.25084   1.25084   1.26221
 Alpha virt. eigenvalues --    1.43160   1.43160   1.43493   2.15960   2.38678

  Beta  occ. eigenvalues --  -24.72441  -1.12534  -0.42785  -0.42785  -0.32802
  Beta virt. eigenvalues --   -0.25581  -0.08047   0.25101   0.36095   0.92860
  Beta virt. eigenvalues --    0.92860   0.96534   1.05628   1.24713   1.24713
  Beta virt. eigenvalues --    1.25804   1.43842   1.43842   1.44172   2.16248

 Mulliken charges and spin densities:
               1          2
     1  H    0.007418  -0.977796
     2  H    0.000902   0.987067
     3  F   -0.008320   0.990730
 Sum of Mulliken charges =   0.00000   1.00000

 Dipole moment (field-independent basis, Debye):
    X=             -0.1661    Y=              0.0000    Z=             -0.0000  Tot=              0.1661
 Quadrupole moment (field-independent basis, Debye-Ang):
   XX=             -7.1221   YY=             -7.6446   ZZ=             -7.6446
   XY=              0.0000   XZ=             -0.0000   YZ=             -0.0000

  Exact polarizability:      25.377       0.000       2.059      -0.000      -0.000       2.059
 Approx polarizability:      18.986       0.000       1.931      -0.000       0.000       1.931

 ******    2 imaginary frequencies (negative Signs) ******

                      1                      2                      3
                      A                      A                      A
 Frequencies --   -447.1405              -122.5189               150.5258
 Red. masses --      1.0085                 1.1076                 1.0152
 Frc consts  --      0.1188                 0.0098                 0.0136
 IR Inten    --      4.4402                 3.6748                 0.0240

                      4
                      A
 Frequencies --    150.5267
 Red. masses --      1.0152
 Frc consts  --      0.0136
 IR Inten    --      0.0240

 - Thermochemistry -
 -------------------
 Temperature   298.150 Kelvin.  Pressure   1.00000 Atm.
 Atom     1 has atomic number  1 and mass   1.00783

 Molecular mass:    21.01405 amu.
 Principal axes and moments of inertia in atomic units:
                           1         2         3
     Eigenvalues --     0.00000 176.79785 176.79785
           X            1.00000  -0.00000   0.00000
           Y            0.00000   1.00000   0.00000
           Z            0.00000   0.00000   1.00000
 This molecule is a prolate symmetric top.
 Rotational symmetry number  1.
 Rotational temperature (Kelvin)      0.48990
 Rotational constant (GHZ):          10.207936
    2 imaginary frequencies ignored.
 Zero-point vibrational energy       1800.7 (Joules/Mol)
                                    0.43038 (Kcal/Mol)
 Warning -- explicit consideration of   2 degrees of freedom as
           vibrations may cause significant error
 Vibrational temperatures:    216.57   216.57
          (Kelvin)

 Zero-point correction=                           0.000686 (Hartree/Particle)
 Thermal correction to Energy=                    0.004331
 Thermal correction to Enthalpy=                  0.005275
 Thermal correction to Gibbs Free Energy=        -0.021572
 Sum of electronic and zero-point Energies=           -100.759910
 Sum of electronic and thermal Energies=              -100.756265
 Sum of electronic and thermal Enthalpies=            -100.755321
 Sum of electronic and thermal Free Energies=         -100.782168

                     E (Thermal)             CV                S
                      KCal/Mol        Cal/Mol-Kelvin    Cal/Mol-Kelvin
 Total                    2.718              8.772             56.504
 Electronic               0.000              0.000              1.377
 Translational            0.889              2.981             35.068
 Rotational               0.592              1.987             14.727
 Vibrational              1.237              3.804              5.331
 Vibration     1          0.618              1.902              2.666
 Vibration     2          0.618              1.902              2.666

 Normal termination of Gaussian 16 at Fri Aug 22 23:06:50 2025.
