 Gaussian 16, Revision C.01,
 Gaussian 16:  ES64L-G16RevC.01  3-Jul-2019

 -----------------------------------------
 # sp b3lyp/6-311g** Force nosymm scf=(qc)
 -----------------------------------------

 -------------------
 Title Card Required
 -------------------
 Symbolic Z-matrix:
 Charge =  0 Multiplicity = 2

                          Input orientation:
 ---------------------------------------------------------------------
 Center     Atomic      Atomic             Coordinates (Angstroms)
 Number     Number       Type             X           Y           Z
 ---------------------------------------------------------------------
      1          1           0        0.000000    0.000000    0.000000
      2          1           0       -4.000000    0.000000    0.000000
      3          9           0        2.600000    0.000000    0.000000
 ---------------------------------------------------------------------

 SCF Done:  E(UB3LYP) =  -100.765323191     a.u. after   20 cycles

 Alpha  occ. eigenvalues --  -24.72290  -1.18474  -0.51400  -0.43173  -0.43173
 Alpha  occ. eigenvalues --   -0.32664
 Alpha virt. eigenvalues --   -0.09559   0.23580   0.35460   0.89822   0.93316
 Alpha virt. eigenvalues --    0.93316   1.05925   1.24834   1.24834   1.24845
 Alpha virt. eigenvalues --    1.41298   1.41298   1.44445   2.14117   2.38404

  Beta  occ. eigenvalues --  -24.69400  -1.10232  -0.40288  -0.40288  -0.34961
  Beta virt. eigenvalues --   -0.23693  -0.05992   0.23762   0.38114   0.94715
  Beta virt. eigenvalues --    0.94715   0.96952   1.08581   1.22400   1.22400
  Beta virt. eigenvalues --    1.27228   1.46604   1.46732   1.46732   2.12754

 Mulliken charges and spin densities:
               1          2
     1  H    0.076776  -0.913483
     2  H    0.000215   0.999400
     3  F   -0.076992   0.914083
 Sum of Mulliken charges =  -0.00000   1.00000

 Dipole moment (field-independent basis, Debye):
    X=             -1.0253    Y=              0.0000    Z=             -0.0000  Tot=              1.0253
 Quadrupole moment (field-independent basis, Debye-Ang):
   XX=             -9.1689   YY=             -7.5771   ZZ=             -7.5771
   XY=             -0.0000   XZ=             -0.0000   YZ=             -0.0000

  Exact polarizability:      30.441      -0.000       2.026      -0.000      -0.000       2.026
 Approx polarizability:      37.668      -0.000       1.921      -0.000       0.000       1.921

 ******    2 imaginary frequencies (negative Signs) ******

                      1                      2                      3
                      A                      A                      A
 Frequencies --   -549.4020               -68.9536               210.7620
 Red. masses --      1.0566                 1.0549                 1.0239
 Frc consts  --      0.1879                 0.0030                 0.0268
 IR Inten    --     71.8985                 0.0352                 5.7812

                      4
                      A
 Frequencies --    210.7620
 Red. masses --      1.0239
 Frc consts  --      0.0268
 IR Inten    --      5.7812

 - Thermochemistry -
 -------------------
 Temperature   298.150 Kelvin.  Pressure   1.00000 Atm.
 Atom     1 has atomic number  1 and mass   1.00783

 Molecular mass:    21.01405 amu.
 Principal axes and moments of inertia in atomic units:
                           1         2         3
     Eigenvalues --     0.00000 166.49266 166.49266
           X            1.00000  -0.00000   0.00000
           Y            0.00000   1.00000   0.00000
           Z            0.00000   0.00000   1.00000
 This molecule is a prolate symmetric top.
 Rotational symmetry number  1.
 Rotational temperature (Kelvin)      0.52023
 Rotational constant (GHZ):          10.839764
    2 imaginary frequencies ignored.
 Zero-point vibrational energy       2521.3 (Joules/Mol)
                                    0.60260 (Kcal/Mol)
 Warning -- explicit consideration of   2 degrees of freedom as
           vibrations may cause significant error
 Vibrational temperatures:    303.24   303.24
          (Kelvin)

 Zero-point correction=                           0.000960 (Hartree/Particle)
 Thermal correction to Energy=                    0.004409
 Thermal correction to Enthalpy=                  0.005353
 Thermal correction to Gibbs Free Energy=        -0.020840
 Sum of electronic and zero-point Energies=           -100.764363
 Sum of electronic and thermal Energies=              -100.760914
 Sum of electronic and thermal Enthalpies=            -100.759970
 Sum of electronic and thermal Free Energies=         -100.786163

                     E (Thermal)             CV                S
                      KCal/Mol        Cal/Mol-Kelvin    Cal/Mol-Kelvin
 Total                    2.767              8.617             55.128
 Electronic               0.000              0.000              1.377
 Translational            0.889              2.981             35.068
 Rotational               0.592              1.987             14.608
 Vibrational              1.285              3.649              4.074
 Vibration     1          0.643              1.824              2.037
 Vibration     2          0.643              1.824              2.037

 Normal termination of Gaussian 16 at Fri Aug 22 18:05:40 2025.
