 Gaussian 16, Revision C.01,
 Gaussian 16:  ES64L-G16RevC.01  3-Jul-2019

 -----------------------------------------
 # sp b3lyp/6-311g** Force nosymm scf=(qc)
 -----------------------------------------

 -------------------
 Title Card Required
 -------------------
 Symbolic Z-matrix:
 Charge =  0 Multiplicity = 2

                          Input orientation:
 ---------------------------------------------------------------------
 Center     Atomic      Atomic             Coordinates (Angstroms)
 Number     Number       Type             X           Y           Z
 ---------------------------------------------------------------------
      1          1           0        0.000000    0.000000    0.000000
      2          1           0       -2.200000    0.000000    0.000000
      3          9           0        2.950000    0.000000    0.000000
 ---------------------------------------------------------------------

 SCF Done:  E(UB3LYP) =  -100.770093325     a.u. after   22 cycles

 Alpha  occ. eigenvalues --  -24.74042  -1.20100  -0.53158  -0.44634  -0.44634
 Alpha  occ. eigenvalues --   -0.33506
 Alpha virt. eigenvalues --   -0.11433   0.25476   0.32662   0.89778   0.92305
 Alpha virt. eigenvalues --    0.92305   1.04280   1.23363   1.24331   1.24331
 Alpha virt. eigenvalues --    1.37855   1.37855   1.44114   2.13383   2.35354

  Beta  occ. eigenvalues --  -24.71021  -1.11443  -0.41611  -0.41611  -0.33932
  Beta virt. eigenvalues --   -0.24789  -0.10482   0.25904   0.33511   0.93764
  Beta virt. eigenvalues --    0.93764   0.98478   1.08198   1.22892   1.23785
  Beta virt. eigenvalues --    1.23785   1.39391   1.39391   1.45426   2.14580

 Mulliken charges and spin densities:
               1          2
     1  H    0.026449  -0.884134
     2  H    0.011603   0.926980
     3  F   -0.038052   0.957154
 Sum of Mulliken charges =  -0.00000   1.00000

 Dipole moment (field-independent basis, Debye):
    X=             -0.6974    Y=              0.0000    Z=              0.0000  Tot=              0.6974
 Quadrupole moment (field-independent basis, Debye-Ang):
   XX=             -7.7160   YY=             -7.6808   ZZ=             -7.6808
   XY=             -0.0000   XZ=             -0.0000   YZ=             -0.0000

  Exact polarizability:      53.551      -0.000       2.007      -0.000      -0.000       2.007
 Approx polarizability:      47.843      -0.000       1.923      -0.000       0.000       1.923

 ******    2 imaginary frequencies (negative Signs) ******

                      1                      2                      3
                      A                      A                      A
 Frequencies --  -1046.0681              -255.2197               404.0499
 Red. masses --      1.0084                 1.1079                 1.0148
 Frc consts  --      0.6501                 0.0425                 0.0976
 IR Inten    --     27.0690                28.0018                 0.4200

                      4
                      A
 Frequencies --    404.0499
 Red. masses --      1.0148
 Frc consts  --      0.0976
 IR Inten    --      0.4200

 - Thermochemistry -
 -------------------
 Temperature   298.150 Kelvin.  Pressure   1.00000 Atm.
 Atom     1 has atomic number  1 and mass   1.00783

 Molecular mass:    21.01405 amu.
 Principal axes and moments of inertia in atomic units:
                           1         2         3
     Eigenvalues --     0.00000 115.45034 115.45034
           X            1.00000  -0.00000   0.00000
           Y            0.00000   1.00000   0.00000
           Z            0.00000   0.00000   1.00000
 This molecule is a prolate symmetric top.
 Rotational symmetry number  1.
 Rotational temperature (Kelvin)      0.75023
 Rotational constant (GHZ):          15.632187
    2 imaginary frequencies ignored.
 Zero-point vibrational energy       4833.5 (Joules/Mol)
                                    1.15524 (Kcal/Mol)
 Warning -- explicit consideration of   2 degrees of freedom as
           vibrations may cause significant error
 Vibrational temperatures:    581.34   581.34
          (Kelvin)

 Zero-point correction=                           0.001841 (Hartree/Particle)
 Thermal correction to Energy=                    0.004812
 Thermal correction to Enthalpy=                  0.005757
 Thermal correction to Gibbs Free Energy=        -0.019056
 Sum of electronic and zero-point Energies=           -100.768252
 Sum of electronic and thermal Energies=              -100.765281
 Sum of electronic and thermal Enthalpies=            -100.764337
 Sum of electronic and thermal Free Energies=         -100.789149

                     E (Thermal)             CV                S
                      KCal/Mol        Cal/Mol-Kelvin    Cal/Mol-Kelvin
 Total                    3.020              7.891             52.222
 Electronic               0.000              0.000              1.377
 Translational            0.889              2.981             35.068
 Rotational               0.592              1.987             13.881
 Vibrational              1.539              2.923              1.896
 Vibration     1          0.769              1.461              0.948
 Vibration     2          0.769              1.461              0.948

 Normal termination of Gaussian 16 at Fri Aug 22 19:17:34 2025.
