 Gaussian 16, Revision C.01,
 Gaussian 16:  ES64L-G16RevC.01  3-Jul-2019

 -----------------------------------------
 # sp b3lyp/6-311g** Force nosymm scf=(qc)
 -----------------------------------------

 -------------------
 Title Card Required
 -------------------
 Symbolic Z-matrix:
 Charge =  0 Multiplicity = 2

                          Input orientation:
 ---------------------------------------------------------------------
 Center     Atomic      Atomic             Coordinates (Angstroms)
 Number     Number       Type             X           Y           Z
 ---------------------------------------------------------------------
      1          1           0        0.000000    0.000000    0.000000
      2          1           0       -2.200000    0.000000    0.000000
      3          9           0        0.600000    0.000000    0.000000
 ---------------------------------------------------------------------

 SCF Done:  E(UB3LYP) =  -100.687817104     a.u. after    6 cycles

 Alpha  occ. eigenvalues --  -24.62679  -1.34677  -0.61045  -0.42922  -0.42922
 Alpha  occ. eigenvalues --   -0.34759
 Alpha virt. eigenvalues --    0.10028   0.25065   0.55953   0.92179   0.92179
 Alpha virt. eigenvalues --    0.93454   1.17075   1.22781   1.22781   1.50315
 Alpha virt. eigenvalues --    1.50315   1.53074   1.95205   2.17492   3.36696

  Beta  occ. eigenvalues --  -24.62663  -1.34628  -0.60989  -0.42914  -0.42914
  Beta virt. eigenvalues --   -0.09044   0.11467   0.37116   0.55997   0.92167
  Beta virt. eigenvalues --    0.92167   0.93595   1.28578   1.43952   1.43952
  Beta virt. eigenvalues --    1.50324   1.50324   1.63035   1.97670   2.44739

 Mulliken charges and spin densities:
               1          2
     1  H    0.226368   0.006783
     2  H    0.007086   0.990033
     3  F   -0.233454   0.003184
 Sum of Mulliken charges =   0.00000   1.00000

 Dipole moment (field-independent basis, Debye):
    X=             -1.5008    Y=             -0.0000    Z=              0.0000  Tot=              1.5008
 Quadrupole moment (field-independent basis, Debye-Ang):
   XX=             -6.7619   YY=             -6.5345   ZZ=             -6.5345
   XY=             -0.0000   XZ=              0.0000   YZ=              0.0000

  Exact polarizability:       5.396       0.000       2.473      -0.000       0.000       2.473
 Approx polarizability:       5.310       0.000       2.462      -0.000       0.000       2.462

 ******    2 imaginary frequencies (negative Signs) ******

                      1                      2                      3
                      A                      A                      A
 Frequencies --  -5817.7437             -5817.7437               254.1843
 Red. masses --      1.0377                 1.0377                 1.0533
 Frc consts  --     20.6925                20.6925                 0.0401
 IR Inten    --    213.5456               213.5456                 0.1056

                      4
                      A
 Frequencies --  13070.4159
 Red. masses --      1.0583
 Frc consts  --    106.5213
 IR Inten    --    113.9343

 - Thermochemistry -
 -------------------
 Temperature   298.150 Kelvin.  Pressure   1.00000 Atm.
 Atom     1 has atomic number  1 and mass   1.00783

 Molecular mass:    21.01405 amu.
 Principal axes and moments of inertia in atomic units:
                           1         2         3
     Eigenvalues --     0.00000  27.51653  27.51653
           X            1.00000  -0.00000   0.00000
           Y            0.00000   1.00000   0.00000
           Z            0.00000   0.00000   1.00000
 This molecule is a prolate symmetric top.
 Rotational symmetry number  1.
 Rotational temperature (Kelvin)      3.14770
 Rotational constant (GHZ):          65.587519
    2 imaginary frequencies ignored.
 Zero-point vibrational energy      79698.8 (Joules/Mol)
                                   19.04847 (Kcal/Mol)
 Warning -- explicit consideration of   1 degrees of freedom as
           vibrations may cause significant error
 Vibrational temperatures:    365.71 18805.41
          (Kelvin)

 Zero-point correction=                           0.030356 (Hartree/Particle)
 Thermal correction to Energy=                    0.033197
 Thermal correction to Enthalpy=                  0.034141
 Thermal correction to Gibbs Free Energy=         0.010775
 Sum of electronic and zero-point Energies=           -100.657461
 Sum of electronic and thermal Energies=              -100.654620
 Sum of electronic and thermal Enthalpies=            -100.653676
 Sum of electronic and thermal Free Energies=         -100.677042

                     E (Thermal)             CV                S
                      KCal/Mol        Cal/Mol-Kelvin    Cal/Mol-Kelvin
 Total                   20.831              6.724             49.178
 Electronic               0.000              0.000              1.377
 Translational            0.889              2.981             35.068
 Rotational               0.592              1.987             11.031
 Vibrational             19.350              1.756              1.701
 Vibration     1          0.665              1.756              1.701

 Normal termination of Gaussian 16 at Fri Aug 22 15:41:50 2025.
