 Gaussian 16, Revision C.01,
 Gaussian 16:  ES64L-G16RevC.01  3-Jul-2019

 -----------------------------------------
 # sp b3lyp/6-311g** Force nosymm scf=(qc)
 -----------------------------------------

 -------------------
 Title Card Required
 -------------------
 Symbolic Z-matrix:
 Charge =  0 Multiplicity = 2

                          Input orientation:
 ---------------------------------------------------------------------
 Center     Atomic      Atomic             Coordinates (Angstroms)
 Number     Number       Type             X           Y           Z
 ---------------------------------------------------------------------
      1          1           0        0.000000    0.000000    0.000000
      2          1           0       -2.200000    0.000000    0.000000
      3          9           0        0.800000    0.000000    0.000000
 ---------------------------------------------------------------------

 SCF Done:  E(UB3LYP) =  -100.950538094     a.u. after    6 cycles

 Alpha  occ. eigenvalues --  -24.63538  -1.22923  -0.56182  -0.40526  -0.40526
 Alpha  occ. eigenvalues --   -0.35187
 Alpha virt. eigenvalues --    0.07661   0.24943   0.45074   0.94317   0.94317
 Alpha virt. eigenvalues --    0.96813   1.15609   1.22338   1.22338   1.39956
 Alpha virt. eigenvalues --    1.39956   1.48287   2.00253   2.16626   2.53146

  Beta  occ. eigenvalues --  -24.63512  -1.22854  -0.56059  -0.40505  -0.40505
  Beta virt. eigenvalues --   -0.10183   0.09335   0.36534   0.44902   0.94319
  Beta virt. eigenvalues --    0.94319   0.97127   1.25617   1.39733   1.39733
  Beta virt. eigenvalues --    1.43186   1.43186   1.59009   2.02115   2.41773

 Mulliken charges and spin densities:
               1          2
     1  H    0.265704   0.006189
     2  H    0.008520   0.986872
     3  F   -0.274224   0.006940
 Sum of Mulliken charges =   0.00000   1.00000

 Dipole moment (field-independent basis, Debye):
    X=             -1.8304    Y=              0.0000    Z=              0.0000  Tot=              1.8304
 Quadrupole moment (field-independent basis, Debye-Ang):
   XX=             -7.3307   YY=             -6.7490   ZZ=             -6.7490
   XY=              0.0000   XZ=              0.0000   YZ=             -0.0000

  Exact polarizability:       7.065       0.000       2.487      -0.000      -0.000       2.487
 Approx polarizability:       7.272       0.000       2.475      -0.000      -0.000       2.475

 ******    2 imaginary frequencies (negative Signs) ******

                      1                      2                      3
                      A                      A                      A
 Frequencies --  -1952.2588             -1952.2588               188.6280
 Red. masses --      1.0332                 1.0332                 1.0532
 Frc consts  --      2.3201                 2.3201                 0.0221
 IR Inten    --    171.6791               171.6791                 0.5448

                      4
                      A
 Frequencies --   6342.7831
 Red. masses --      1.0583
 Frc consts  --     25.0863
 IR Inten    --    144.0998

 - Thermochemistry -
 -------------------
 Temperature   298.150 Kelvin.  Pressure   1.00000 Atm.
 Atom     1 has atomic number  1 and mass   1.00783

 Molecular mass:    21.01405 amu.
 Principal axes and moments of inertia in atomic units:
                           1         2         3
     Eigenvalues --     0.00000  32.20200  32.20200
           X            1.00000  -0.00000   0.00000
           Y            0.00000   1.00000   0.00000
           Z            0.00000   0.00000   1.00000
 This molecule is a prolate symmetric top.
 Rotational symmetry number  1.
 Rotational temperature (Kelvin)      2.68971
 Rotational constant (GHZ):          56.044385
    2 imaginary frequencies ignored.
 Zero-point vibrational energy      39066.5 (Joules/Mol)
                                    9.33712 (Kcal/Mol)
 Warning -- explicit consideration of   1 degrees of freedom as
           vibrations may cause significant error
 Vibrational temperatures:    271.39  9125.85
          (Kelvin)

 Zero-point correction=                           0.014880 (Hartree/Particle)
 Thermal correction to Energy=                    0.017819
 Thermal correction to Enthalpy=                  0.018763
 Thermal correction to Gibbs Free Energy=        -0.005008
 Sum of electronic and zero-point Energies=           -100.935658
 Sum of electronic and thermal Energies=              -100.932719
 Sum of electronic and thermal Enthalpies=            -100.931775
 Sum of electronic and thermal Free Energies=         -100.955546

                     E (Thermal)             CV                S
                      KCal/Mol        Cal/Mol-Kelvin    Cal/Mol-Kelvin
 Total                   11.182              6.824             50.030
 Electronic               0.000              0.000              1.377
 Translational            0.889              2.981             35.068
 Rotational               0.592              1.987             11.343
 Vibrational              9.700              1.855              2.241
 Vibration     1          0.633              1.855              2.241

 Normal termination of Gaussian 16 at Fri Aug 22 15:51:14 2025.
