 Gaussian 16, Revision C.01,
 Gaussian 16:  ES64L-G16RevC.01  3-Jul-2019

 -----------------------------------------
 # sp b3lyp/6-311g** Force nosymm scf=(qc)
 -----------------------------------------

 -------------------
 Title Card Required
 -------------------
 Symbolic Z-matrix:
 Charge =  0 Multiplicity = 2

                          Input orientation:
 ---------------------------------------------------------------------
 Center     Atomic      Atomic             Coordinates (Angstroms)
 Number     Number       Type             X           Y           Z
 ---------------------------------------------------------------------
      1          1           0        0.000000    0.000000    0.000000
      2          1           0       -0.900000    0.000000    0.000000
      3          9           0        2.100000    0.000000    0.000000
 ---------------------------------------------------------------------

 SCF Done:  E(UB3LYP) =  -100.923675805     a.u. after    7 cycles

 Alpha  occ. eigenvalues --  -24.74680  -1.20752  -0.54297  -0.45228  -0.45228
 Alpha  occ. eigenvalues --   -0.41990
 Alpha virt. eigenvalues --    0.03221   0.20869   0.41103   0.90111   0.91121
 Alpha virt. eigenvalues --    0.91121   1.06926   1.06926   1.12104   1.51936
 Alpha virt. eigenvalues --    1.70726   1.70726   2.16544   2.36823   2.74290

  Beta  occ. eigenvalues --  -24.71666  -1.12153  -0.42221  -0.42221  -0.41987
  Beta virt. eigenvalues --   -0.25661   0.04114   0.21398   0.41519   0.92500
  Beta virt. eigenvalues --    0.92500   0.98077   1.07563   1.07563   1.15490
  Beta virt. eigenvalues --    1.53459   1.71127   1.71127   2.17265   2.37461

 Mulliken charges and spin densities:
               1          2
     1  H    0.005123  -0.032166
     2  H    0.032127   0.084621
     3  F   -0.037250   0.947545
 Sum of Mulliken charges =   0.00000   1.00000

 Dipole moment (field-independent basis, Debye):
    X=             -0.5153    Y=              0.0000    Z=             -0.0000  Tot=              0.5153
 Quadrupole moment (field-independent basis, Debye-Ang):
   XX=             -6.1442   YY=             -7.1081   ZZ=             -7.1081
   XY=              0.0000   XZ=             -0.0000   YZ=              0.0000

  Exact polarizability:      23.765       0.000       2.120      -0.000       0.000       2.120
 Approx polarizability:      27.825       0.000       2.164      -0.000      -0.000       2.164

 ******    1 imaginary frequencies (negative Signs) ******

                      1                      2                      3
                      A                      A                      A
 Frequencies --   -287.7242              1363.4392              1363.4392
 Red. masses --      1.1083                 1.0109                 1.0109
 Frc consts  --      0.0541                 1.1072                 1.1072
 IR Inten    --     41.6204                 0.1169                 0.1169

                      4
                      A
 Frequencies --   2521.5899
 Red. masses --      1.0080
 Frc consts  --      3.7762
 IR Inten    --    318.5585

 - Thermochemistry -
 -------------------
 Temperature   298.150 Kelvin.  Pressure   1.00000 Atm.
 Atom     1 has atomic number  1 and mass   1.00783

 Molecular mass:    21.01405 amu.
 Principal axes and moments of inertia in atomic units:
                           1         2         3
     Eigenvalues --     0.00000  43.77320  43.77320
           X            1.00000  -0.00000   0.00000
           Y            0.00000   1.00000   0.00000
           Z            0.00000   0.00000   1.00000
 This molecule is a prolate symmetric top.
 Rotational symmetry number  1.
 Rotational temperature (Kelvin)      1.97870
 Rotational constant (GHZ):          41.229365
    1 imaginary frequencies ignored.
 Zero-point vibrational energy      31392.8 (Joules/Mol)
                                    7.50306 (Kcal/Mol)
 Vibrational temperatures:   1961.68  1961.68  3628.01
          (Kelvin)

 Zero-point correction=                           0.011957 (Hartree/Particle)
 Thermal correction to Energy=                    0.014335
 Thermal correction to Enthalpy=                  0.015279
 Thermal correction to Gibbs Free Energy=        -0.007737
 Sum of electronic and zero-point Energies=           -100.911719
 Sum of electronic and thermal Energies=              -100.909341
 Sum of electronic and thermal Enthalpies=            -100.908397
 Sum of electronic and thermal Free Energies=         -100.931413

                     E (Thermal)             CV                S
                      KCal/Mol        Cal/Mol-Kelvin    Cal/Mol-Kelvin
 Total                    8.995              5.209             48.441
 Electronic               0.000              0.000              1.377
 Translational            0.889              2.981             35.068
 Rotational               0.592              1.987             11.953
 Vibrational              7.514              0.241              0.042

 Normal termination of Gaussian 16 at Fri Aug 22 17:02:49 2025.
