 Gaussian 16, Revision C.01,
 Gaussian 16:  ES64L-G16RevC.01  3-Jul-2019

 -----------------------------------------
 # sp b3lyp/6-311g** Force nosymm scf=(qc)
 -----------------------------------------

 -------------------
 Title Card Required
 -------------------
 Symbolic Z-matrix:
 Charge =  0 Multiplicity = 2

                          Input orientation:
 ---------------------------------------------------------------------
 Center     Atomic      Atomic             Coordinates (Angstroms)
 Number     Number       Type             X           Y           Z
 ---------------------------------------------------------------------
      1          1           0        0.000000    0.000000    0.000000
      2          1           0       -3.700000    0.000000    0.000000
      3          9           0        3.150000    0.000000    0.000000
 ---------------------------------------------------------------------

 SCF Done:  E(UB3LYP) =  -100.760081732     a.u. after   23 cycles

 Alpha  occ. eigenvalues --  -24.74570  -1.20595  -0.53691  -0.45081  -0.45081
 Alpha  occ. eigenvalues --   -0.32431
 Alpha virt. eigenvalues --   -0.07466   0.24005   0.36463   0.88833   0.91982
 Alpha virt. eigenvalues --    0.91982   1.03098   1.25069   1.25069   1.25141
 Alpha virt. eigenvalues --    1.44806   1.44806   1.45087   2.14648   2.41052

  Beta  occ. eigenvalues --  -24.71510  -1.11814  -0.42016  -0.42016  -0.33387
  Beta virt. eigenvalues --   -0.25046  -0.06230   0.23824   0.38071   0.93455
  Beta virt. eigenvalues --    0.93455   0.97693   1.06931   1.23969   1.23969
  Beta virt. eigenvalues --    1.24127   1.46223   1.46430   1.46430   2.14897

 Mulliken charges and spin densities:
               1          2
     1  H    0.027069  -0.968858
     2  H    0.000209   0.998730
     3  F   -0.027278   0.970128
 Sum of Mulliken charges =  -0.00000   1.00000

 Dipole moment (field-independent basis, Debye):
    X=             -0.4452    Y=             -0.0000    Z=             -0.0000  Tot=              0.4452
 Quadrupole moment (field-independent basis, Debye-Ang):
   XX=             -8.0267   YY=             -7.6125   ZZ=             -7.6125
   XY=             -0.0000   XZ=             -0.0000   YZ=             -0.0000

  Exact polarizability:      30.008      -0.000       2.029      -0.000      -0.000       2.029
 Approx polarizability:      28.358      -0.000       1.929      -0.000       0.000       1.929

 ******    2 imaginary frequencies (negative Signs) ******

                      1                      2                      3
                      A                      A                      A
 Frequencies --   -316.1475               -94.6288               107.1495
 Red. masses --      1.0476                 1.0641                 1.0200
 Frc consts  --      0.0617                 0.0056                 0.0069
 IR Inten    --     29.3775                 0.3704                 0.6872

                      4
                      A
 Frequencies --    107.1495
 Red. masses --      1.0200
 Frc consts  --      0.0069
 IR Inten    --      0.6872

 - Thermochemistry -
 -------------------
 Temperature   298.150 Kelvin.  Pressure   1.00000 Atm.
 Atom     1 has atomic number  1 and mass   1.00783

 Molecular mass:    21.01405 amu.
 Principal axes and moments of inertia in atomic units:
                           1         2         3
     Eigenvalues --     0.00000 187.32495 187.32495
           X            1.00000  -0.00000   0.00000
           Y            0.00000   1.00000   0.00000
           Z            0.00000   0.00000   1.00000
 This molecule is a prolate symmetric top.
 Rotational symmetry number  1.
 Rotational temperature (Kelvin)      0.46237
 Rotational constant (GHZ):           9.634281
    2 imaginary frequencies ignored.
 Zero-point vibrational energy       1281.8 (Joules/Mol)
                                    0.30636 (Kcal/Mol)
 Warning -- explicit consideration of   2 degrees of freedom as
           vibrations may cause significant error
 Vibrational temperatures:    154.16   154.16
          (Kelvin)

 Zero-point correction=                           0.000488 (Hartree/Particle)
 Thermal correction to Energy=                    0.004291
 Thermal correction to Enthalpy=                  0.005235
 Thermal correction to Gibbs Free Energy=        -0.022288
 Sum of electronic and zero-point Energies=           -100.759594
 Sum of electronic and thermal Energies=              -100.755791
 Sum of electronic and thermal Enthalpies=            -100.754847
 Sum of electronic and thermal Free Energies=         -100.782370

                     E (Thermal)             CV                S
                      KCal/Mol        Cal/Mol-Kelvin    Cal/Mol-Kelvin
 Total                    2.692              8.855             57.928
 Electronic               0.000              0.000              1.377
 Translational            0.889              2.981             35.068
 Rotational               0.592              1.987             14.842
 Vibrational              1.211              3.887              6.640
 Vibration     1          0.606              1.944              3.320
 Vibration     2          0.606              1.944              3.320

 Normal termination of Gaussian 16 at Fri Aug 22 20:12:00 2025.
