 Gaussian 16, Revision C.01,
 Gaussian 16:  ES64L-G16RevC.01  3-Jul-2019

 -----------------------------------------
 # sp b3lyp/6-311g** Force nosymm scf=(qc)
 -----------------------------------------

 -------------------
 Title Card Required
 -------------------
 Symbolic Z-matrix:
 Charge =  0 Multiplicity = 2

                          Input orientation:
 ---------------------------------------------------------------------
 Center     Atomic      Atomic             Coordinates (Angstroms)
 Number     Number       Type             X           Y           Z
 ---------------------------------------------------------------------
      1          1           0        0.000000    0.000000    0.000000
      2          1           0       -1.350000    0.000000    0.000000
      3          9           0        1.400000    0.000000    0.000000
 ---------------------------------------------------------------------

 SCF Done:  E(UB3LYP) =  -100.901691871     a.u. after   13 cycles

 Alpha  occ. eigenvalues --  -24.64971  -1.12175  -0.49183  -0.38566  -0.37525
 Alpha  occ. eigenvalues --   -0.37525
 Alpha virt. eigenvalues --   -0.02535   0.20163   0.29750   0.92590   0.92590
 Alpha virt. eigenvalues --    1.01142   1.05845   1.12297   1.12297   1.45459
 Alpha virt. eigenvalues --    1.45459   1.54558   1.94580   2.22354   2.45430

  Beta  occ. eigenvalues --  -24.63600  -1.08544  -0.43187  -0.36224  -0.36224
  Beta virt. eigenvalues --   -0.21854   0.00893   0.23220   0.31594   0.92888
  Beta virt. eigenvalues --    0.92888   1.04821   1.10462   1.18541   1.18541
  Beta virt. eigenvalues --    1.47957   1.47957   1.58329   2.00057   2.27000

 Mulliken charges and spin densities:
               1          2
     1  H    0.251067  -0.147615
     2  H    0.069292   0.729350
     3  F   -0.320359   0.418265
 Sum of Mulliken charges =   0.00000   1.00000

 Dipole moment (field-independent basis, Debye):
    X=             -2.6885    Y=             -0.0000    Z=              0.0000  Tot=              2.6885
 Quadrupole moment (field-independent basis, Debye-Ang):
   XX=             -7.9997   YY=             -7.1151   ZZ=             -7.1151
   XY=              0.0000   XZ=             -0.0000   YZ=              0.0000

  Exact polarizability:      30.393       0.000       2.379      -0.000       0.000       2.379
 Approx polarizability:      43.843       0.000       2.337      -0.000       0.000       2.337

 ******    1 imaginary frequencies (negative Signs) ******

                      1                      2                      3
                      A                      A                      A
 Frequencies --  -2680.8029               206.8289              1130.0143
 Red. masses --      1.0230                 1.0907                 1.0175
 Frc consts  --      4.3316                 0.0275                 0.7655
 IR Inten    --    313.3979                21.4675                28.7636

                      4
                      A
 Frequencies --   1130.0143
 Red. masses --      1.0175
 Frc consts  --      0.7655
 IR Inten    --     28.7636

 - Thermochemistry -
 -------------------
 Temperature   298.150 Kelvin.  Pressure   1.00000 Atm.
 Atom     1 has atomic number  1 and mass   1.00783

 Molecular mass:    21.01405 amu.
 Principal axes and moments of inertia in atomic units:
                           1         2         3
     Eigenvalues --     0.00000  31.29884  31.29884
           X            1.00000  -0.00000   0.00000
           Y            0.00000   1.00000   0.00000
           Z            0.00000   0.00000   1.00000
 This molecule is a prolate symmetric top.
 Rotational symmetry number  1.
 Rotational temperature (Kelvin)      2.76732
 Rotational constant (GHZ):          57.661607
    1 imaginary frequencies ignored.
 Zero-point vibrational energy      14755.1 (Joules/Mol)
                                    3.52655 (Kcal/Mol)
 Warning -- explicit consideration of   1 degrees of freedom as
           vibrations may cause significant error
 Vibrational temperatures:    297.58  1625.84  1625.84
          (Kelvin)

 Zero-point correction=                           0.005620 (Hartree/Particle)
 Thermal correction to Energy=                    0.008575
 Thermal correction to Enthalpy=                  0.009519
 Thermal correction to Gibbs Free Energy=        -0.014197
 Sum of electronic and zero-point Energies=           -100.896072
 Sum of electronic and thermal Energies=              -100.893117
 Sum of electronic and thermal Enthalpies=            -100.892173
 Sum of electronic and thermal Free Energies=         -100.915889

                     E (Thermal)             CV                S
                      KCal/Mol        Cal/Mol-Kelvin    Cal/Mol-Kelvin
 Total                    5.381              7.309             49.914
 Electronic               0.000              0.000              1.377
 Translational            0.889              2.981             35.068
 Rotational               0.592              1.987             11.287
 Vibrational              3.900              2.341              2.182
 Vibration     1          0.641              1.830              2.071

 Normal termination of Gaussian 16 at Fri Aug 22 16:19:39 2025.
