 Gaussian 16, Revision C.01,
 Gaussian 16:  ES64L-G16RevC.01  3-Jul-2019

 -----------------------------------------
 # sp b3lyp/6-311g** Force nosymm scf=(qc)
 -----------------------------------------

 -------------------
 Title Card Required
 -------------------
 Symbolic Z-matrix:
 Charge =  0 Multiplicity = 2

                          Input orientation:
 ---------------------------------------------------------------------
 Center     Atomic      Atomic             Coordinates (Angstroms)
 Number     Number       Type             X           Y           Z
 ---------------------------------------------------------------------
      1          1           0        0.000000    0.000000    0.000000
      2          1           0       -2.050000    0.000000    0.000000
      3          9           0        1.350000    0.000000    0.000000
 ---------------------------------------------------------------------

 SCF Done:  E(UB3LYP) =  -100.892411433     a.u. after    8 cycles

 Alpha  occ. eigenvalues --  -24.63703  -1.10316  -0.45530  -0.36758  -0.36349
 Alpha  occ. eigenvalues --   -0.36349
 Alpha virt. eigenvalues --   -0.08119   0.23576   0.27360   0.93604   0.93604
 Alpha virt. eigenvalues --    1.02812   1.09967   1.20451   1.20451   1.34337
 Alpha virt. eigenvalues --    1.34337   1.37008   1.70995   2.10730   2.27721

  Beta  occ. eigenvalues --  -24.63436  -1.09628  -0.44349  -0.36101  -0.36101
  Beta virt. eigenvalues --   -0.15987  -0.04180   0.26855   0.33581   0.93561
  Beta virt. eigenvalues --    0.93561   1.03518   1.15543   1.33088   1.33088
  Beta virt. eigenvalues --    1.39518   1.39518   1.49032   1.71315   2.21044

 Mulliken charges and spin densities:
               1          2
     1  H    0.332101  -0.036695
     2  H    0.033249   0.954784
     3  F   -0.365350   0.081911
 Sum of Mulliken charges =  -0.00000   1.00000

 Dipole moment (field-independent basis, Debye):
    X=             -2.8181    Y=              0.0000    Z=             -0.0000  Tot=              2.8181
 Quadrupole moment (field-independent basis, Debye-Ang):
   XX=             -8.6170   YY=             -7.2032   ZZ=             -7.2032
   XY=              0.0000   XZ=             -0.0000   YZ=              0.0000

  Exact polarizability:      20.398       0.000       2.301      -0.000      -0.000       2.301
 Approx polarizability:      27.902       0.000       2.248      -0.000      -0.000       2.248

 ******    2 imaginary frequencies (negative Signs) ******

                      1                      2                      3
                      A                      A                      A
 Frequencies --  -1258.2989              -251.5800              1090.6150
 Red. masses --      1.0342                 1.0783                 1.0237
 Frc consts  --      0.9647                 0.0402                 0.7174
 IR Inten    --    204.3385                 0.1597                92.7958

                      4
                      A
 Frequencies --   1090.6150
 Red. masses --      1.0237
 Frc consts  --      0.7174
 IR Inten    --     92.7958

 - Thermochemistry -
 -------------------
 Temperature   298.150 Kelvin.  Pressure   1.00000 Atm.
 Atom     1 has atomic number  1 and mass   1.00783

 Molecular mass:    21.01405 amu.
 Principal axes and moments of inertia in atomic units:
                           1         2         3
     Eigenvalues --     0.00000  44.26929  44.26929
           X            1.00000  -0.00000   0.00000
           Y            0.00000   1.00000   0.00000
           Z            0.00000   0.00000   1.00000
 This molecule is a prolate symmetric top.
 Rotational symmetry number  1.
 Rotational temperature (Kelvin)      1.95652
 Rotational constant (GHZ):          40.767342
    2 imaginary frequencies ignored.
 Zero-point vibrational energy      13046.7 (Joules/Mol)
                                    3.11822 (Kcal/Mol)
 Vibrational temperatures:   1569.15  1569.15
          (Kelvin)

 Zero-point correction=                           0.004969 (Hartree/Particle)
 Thermal correction to Energy=                    0.007381
 Thermal correction to Enthalpy=                  0.008326
 Thermal correction to Gibbs Free Energy=        -0.014742
 Sum of electronic and zero-point Energies=           -100.887442
 Sum of electronic and thermal Energies=              -100.885030
 Sum of electronic and thermal Enthalpies=            -100.884086
 Sum of electronic and thermal Free Energies=         -100.907154

                     E (Thermal)             CV                S
                      KCal/Mol        Cal/Mol-Kelvin    Cal/Mol-Kelvin
 Total                    4.632              5.544             48.551
 Electronic               0.000              0.000              1.377
 Translational            0.889              2.981             35.068
 Rotational               0.592              1.987             11.976
 Vibrational              3.151              0.576              0.130

 Normal termination of Gaussian 16 at Fri Aug 22 16:17:38 2025.
