 Gaussian 16, Revision C.01,
 Gaussian 16:  ES64L-G16RevC.01  3-Jul-2019

 -----------------------------------------
 # sp b3lyp/6-311g** Force nosymm scf=(qc)
 -----------------------------------------

 -------------------
 Title Card Required
 -------------------
 Symbolic Z-matrix:
 Charge =  0 Multiplicity = 2

                          Input orientation:
 ---------------------------------------------------------------------
 Center     Atomic      Atomic             Coordinates (Angstroms)
 Number     Number       Type             X           Y           Z
 ---------------------------------------------------------------------
      1          1           0        0.000000    0.000000    0.000000
      2          1           0       -2.500000    0.000000    0.000000
      3          9           0        2.550000    0.000000    0.000000
 ---------------------------------------------------------------------

 SCF Done:  E(UB3LYP) =  -100.770134167     a.u. after   16 cycles

 Alpha  occ. eigenvalues --  -24.72044  -1.18234  -0.51146  -0.42957  -0.42957
 Alpha  occ. eigenvalues --   -0.33706
 Alpha virt. eigenvalues --   -0.11761   0.24877   0.33216   0.90187   0.93466
 Alpha virt. eigenvalues --    0.93466   1.06456   1.23947   1.23947   1.26716
 Alpha virt. eigenvalues --    1.38131   1.38131   1.42404   2.14768   2.33929

  Beta  occ. eigenvalues --  -24.69175  -1.10061  -0.40096  -0.40096  -0.35119
  Beta virt. eigenvalues --   -0.23571  -0.09556   0.25800   0.34693   0.94850
  Beta virt. eigenvalues --    0.94850   0.97470   1.09481   1.22466   1.22466
  Beta virt. eigenvalues --    1.29013   1.41620   1.41620   1.43357   2.14632

 Mulliken charges and spin densities:
               1          2
     1  H    0.071577  -0.877443
     2  H    0.010344   0.970685
     3  F   -0.081922   0.906758
 Sum of Mulliken charges =   0.00000   1.00000

 Dipole moment (field-independent basis, Debye):
    X=             -1.1880    Y=             -0.0000    Z=              0.0000  Tot=              1.1880
 Quadrupole moment (field-independent basis, Debye-Ang):
   XX=             -8.7455   YY=             -7.6171   ZZ=             -7.6171
   XY=             -0.0000   XZ=              0.0000   YZ=             -0.0000

  Exact polarizability:      43.986       0.000       2.015      -0.000      -0.000       2.015
 Approx polarizability:      46.739       0.000       1.918      -0.000      -0.000       1.918

 ******    2 imaginary frequencies (negative Signs) ******

                      1                      2                      3
                      A                      A                      A
 Frequencies --   -798.1800              -330.5813               313.8534
 Red. masses --      1.0189                 1.0955                 1.0177
 Frc consts  --      0.3824                 0.0705                 0.0591
 IR Inten    --     50.2603                24.8961                 4.1723

                      4
                      A
 Frequencies --    313.8534
 Red. masses --      1.0177
 Frc consts  --      0.0591
 IR Inten    --      4.1723

 - Thermochemistry -
 -------------------
 Temperature   298.150 Kelvin.  Pressure   1.00000 Atm.
 Atom     1 has atomic number  1 and mass   1.00783

 Molecular mass:    21.01405 amu.
 Principal axes and moments of inertia in atomic units:
                           1         2         3
     Eigenvalues --     0.00000 105.21649 105.21649
           X            1.00000  -0.00000   0.00000
           Y            0.00000   1.00000   0.00000
           Z            0.00000   0.00000   1.00000
 This molecule is a prolate symmetric top.
 Rotational symmetry number  1.
 Rotational temperature (Kelvin)      0.82320
 Rotational constant (GHZ):          17.152645
    2 imaginary frequencies ignored.
 Zero-point vibrational energy       3754.5 (Joules/Mol)
                                    0.89735 (Kcal/Mol)
 Warning -- explicit consideration of   2 degrees of freedom as
           vibrations may cause significant error
 Vibrational temperatures:    451.57   451.57
          (Kelvin)

 Zero-point correction=                           0.001430 (Hartree/Particle)
 Thermal correction to Energy=                    0.004597
 Thermal correction to Enthalpy=                  0.005541
 Thermal correction to Gibbs Free Energy=        -0.019558
 Sum of electronic and zero-point Energies=           -100.768704
 Sum of electronic and thermal Energies=              -100.765537
 Sum of electronic and thermal Enthalpies=            -100.764593
 Sum of electronic and thermal Free Energies=         -100.789692

                     E (Thermal)             CV                S
                      KCal/Mol        Cal/Mol-Kelvin    Cal/Mol-Kelvin
 Total                    2.884              8.262             52.825
 Electronic               0.000              0.000              1.377
 Translational            0.889              2.981             35.068
 Rotational               0.592              1.987             13.696
 Vibrational              1.403              3.294              2.684
 Vibration     1          0.702              1.647              1.342
 Vibration     2          0.702              1.647              1.342

 Normal termination of Gaussian 16 at Fri Aug 22 17:54:19 2025.
