 Gaussian 16, Revision C.01,
 Gaussian 16:  ES64L-G16RevC.01  3-Jul-2019

 -----------------------------------------
 # sp b3lyp/6-311g** Force nosymm scf=(qc)
 -----------------------------------------

 -------------------
 Title Card Required
 -------------------
 Symbolic Z-matrix:
 Charge =  0 Multiplicity = 2

                          Input orientation:
 ---------------------------------------------------------------------
 Center     Atomic      Atomic             Coordinates (Angstroms)
 Number     Number       Type             X           Y           Z
 ---------------------------------------------------------------------
      1          1           0        0.000000    0.000000    0.000000
      2          1           0       -2.150000    0.000000    0.000000
      3          9           0        2.800000    0.000000    0.000000
 ---------------------------------------------------------------------

 SCF Done:  E(UB3LYP) =  -100.772674560     a.u. after   21 cycles

 Alpha  occ. eigenvalues --  -24.73422  -1.19522  -0.52536  -0.44111  -0.44111
 Alpha  occ. eigenvalues --   -0.33839
 Alpha virt. eigenvalues --   -0.11889   0.25315   0.32450   0.90218   0.92679
 Alpha virt. eigenvalues --    0.92679   1.05222   1.22411   1.24034   1.24034
 Alpha virt. eigenvalues --    1.37018   1.37018   1.44818   2.12710   2.35079

  Beta  occ. eigenvalues --  -24.70445  -1.11006  -0.41135  -0.41135  -0.34293
  Beta virt. eigenvalues --   -0.24444  -0.10807   0.26111   0.33134   0.94121
  Beta virt. eigenvalues --    0.94121   0.98624   1.09014   1.22334   1.23473
  Beta virt. eigenvalues --    1.23473   1.38787   1.38787   1.46158   2.13819

 Mulliken charges and spin densities:
               1          2
     1  H    0.035038  -0.857842
     2  H    0.015802   0.915369
     3  F   -0.050840   0.942473
 Sum of Mulliken charges =  -0.00000   1.00000

 Dipole moment (field-independent basis, Debye):
    X=             -0.8914    Y=             -0.0000    Z=              0.0000  Tot=              0.8914
 Quadrupole moment (field-independent basis, Debye-Ang):
   XX=             -7.9118   YY=             -7.6765   ZZ=             -7.6765
   XY=              0.0000   XZ=             -0.0000   YZ=              0.0000

  Exact polarizability:      56.077       0.000       2.006      -0.000       0.000       2.006
 Approx polarizability:      52.989       0.000       1.923      -0.000      -0.000       1.923

 ******    2 imaginary frequencies (negative Signs) ******

                      1                      2                      3
                      A                      A                      A
 Frequencies --  -1129.5582              -296.5219               441.0776
 Red. masses --      1.0086                 1.1075                 1.0151
 Frc consts  --      0.7582                 0.0574                 0.1164
 IR Inten    --     36.1992                35.8536                 0.7270

                      4
                      A
 Frequencies --    441.0776
 Red. masses --      1.0151
 Frc consts  --      0.1164
 IR Inten    --      0.7270

 - Thermochemistry -
 -------------------
 Temperature   298.150 Kelvin.  Pressure   1.00000 Atm.
 Atom     1 has atomic number  1 and mass   1.00783

 Molecular mass:    21.01405 amu.
 Principal axes and moments of inertia in atomic units:
                           1         2         3
     Eigenvalues --     0.00000 106.03373 106.03373
           X            1.00000  -0.00000   0.00000
           Y            0.00000   1.00000   0.00000
           Z            0.00000   0.00000   1.00000
 This molecule is a prolate symmetric top.
 Rotational symmetry number  1.
 Rotational temperature (Kelvin)      0.81685
 Rotational constant (GHZ):          17.020444
    2 imaginary frequencies ignored.
 Zero-point vibrational energy       5276.5 (Joules/Mol)
                                    1.26110 (Kcal/Mol)
 Warning -- explicit consideration of   2 degrees of freedom as
           vibrations may cause significant error
 Vibrational temperatures:    634.61   634.61
          (Kelvin)

 Zero-point correction=                           0.002010 (Hartree/Particle)
 Thermal correction to Energy=                    0.004913
 Thermal correction to Enthalpy=                  0.005857
 Thermal correction to Gibbs Free Energy=        -0.018756
 Sum of electronic and zero-point Energies=           -100.770665
 Sum of electronic and thermal Energies=              -100.767761
 Sum of electronic and thermal Enthalpies=            -100.766817
 Sum of electronic and thermal Free Energies=         -100.791431

                     E (Thermal)             CV                S
                      KCal/Mol        Cal/Mol-Kelvin    Cal/Mol-Kelvin
 Total                    3.083              7.729             51.803
 Electronic               0.000              0.000              1.377
 Translational            0.889              2.981             35.068
 Rotational               0.592              1.987             13.711
 Vibrational              1.602              2.761              1.646
 Vibration     1          0.801              1.381              0.823
 Vibration     2          0.801              1.381              0.823

 Normal termination of Gaussian 16 at Fri Aug 22 18:43:11 2025.
