 Gaussian 16, Revision C.01,
 Gaussian 16:  ES64L-G16RevC.01  3-Jul-2019

 -----------------------------------------
 # sp b3lyp/6-311g** Force nosymm scf=(qc)
 -----------------------------------------

 -------------------
 Title Card Required
 -------------------
 Symbolic Z-matrix:
 Charge =  0 Multiplicity = 2

                          Input orientation:
 ---------------------------------------------------------------------
 Center     Atomic      Atomic             Coordinates (Angstroms)
 Number     Number       Type             X           Y           Z
 ---------------------------------------------------------------------
      1          1           0        0.000000    0.000000    0.000000
      2          1           0       -3.950000    0.000000    0.000000
      3          9           0        3.500000    0.000000    0.000000
 ---------------------------------------------------------------------

 SCF Done:  E(UB3LYP) =  -100.758882942     a.u. after   29 cycles

 Alpha  occ. eigenvalues --  -24.75377  -1.21341  -0.54500  -0.45759  -0.45759
 Alpha  occ. eigenvalues --   -0.32293
 Alpha virt. eigenvalues --   -0.06155   0.24129   0.37348   0.87585   0.91487
 Alpha virt. eigenvalues --    0.91487   1.01813   1.25202   1.25202   1.25227
 Alpha virt. eigenvalues --    1.46728   1.46728   1.47322   2.14552   2.42637

  Beta  occ. eigenvalues --  -24.72264  -1.12395  -0.42638  -0.42638  -0.32809
  Beta virt. eigenvalues --   -0.25477  -0.05865   0.23844   0.38188   0.92976
  Beta virt. eigenvalues --    0.92976   0.96719   1.05818   1.24614   1.24614
  Beta virt. eigenvalues --    1.24623   1.46659   1.46763   1.46763   2.14701

 Mulliken charges and spin densities:
               1          2
     1  H    0.011608  -0.986502
     2  H    0.000054   0.999299
     3  F   -0.011663   0.987203
 Sum of Mulliken charges =  -0.00000   1.00000

 Dipole moment (field-independent basis, Debye):
    X=             -0.2109    Y=             -0.0000    Z=             -0.0000  Tot=              0.2109
 Quadrupole moment (field-independent basis, Debye-Ang):
   XX=             -7.4297   YY=             -7.6171   ZZ=             -7.6171
   XY=             -0.0000   XZ=             -0.0000   YZ=              0.0000

  Exact polarizability:      22.810      -0.000       2.036      -0.000      -0.000       2.036
 Approx polarizability:      18.144      -0.000       1.934      -0.000      -0.000       1.934

 ******    2 imaginary frequencies (negative Signs) ******

                      1                      2                      3
                      A                      A                      A
 Frequencies --   -215.0500               -70.3179                59.4140
 Red. masses --      1.0451                 1.0667                 1.0195
 Frc consts  --      0.0285                 0.0031                 0.0021
 IR Inten    --     11.3555                 0.2087                 0.1228

                      4
                      A
 Frequencies --     59.4140
 Red. masses --      1.0195
 Frc consts  --      0.0021
 IR Inten    --      0.1228

 - Thermochemistry -
 -------------------
 Temperature   298.150 Kelvin.  Pressure   1.00000 Atm.
 Atom     1 has atomic number  1 and mass   1.00783

 Molecular mass:    21.01405 amu.
 Principal axes and moments of inertia in atomic units:
                           1         2         3
     Eigenvalues --     0.00000 223.14583 223.14583
           X            1.00000  -0.00000   0.00000
           Y            0.00000   1.00000   0.00000
           Z            0.00000   0.00000   1.00000
 This molecule is a prolate symmetric top.
 Rotational symmetry number  1.
 Rotational temperature (Kelvin)      0.38815
 Rotational constant (GHZ):           8.087721
    2 imaginary frequencies ignored.
 Zero-point vibrational energy        710.7 (Joules/Mol)
                                    0.16987 (Kcal/Mol)
 Warning -- explicit consideration of   2 degrees of freedom as
           vibrations may cause significant error
 Vibrational temperatures:     85.48    85.48
          (Kelvin)

 Zero-point correction=                           0.000271 (Hartree/Particle)
 Thermal correction to Energy=                    0.004262
 Thermal correction to Enthalpy=                  0.005206
 Thermal correction to Gibbs Free Energy=        -0.023582
 Sum of electronic and zero-point Energies=           -100.758612
 Sum of electronic and thermal Energies=              -100.754621
 Sum of electronic and thermal Enthalpies=            -100.753677
 Sum of electronic and thermal Free Energies=         -100.782465

                     E (Thermal)             CV                S
                      KCal/Mol        Cal/Mol-Kelvin    Cal/Mol-Kelvin
 Total                    2.674              8.915             60.589
 Electronic               0.000              0.000              1.377
 Translational            0.889              2.981             35.068
 Rotational               0.592              1.987             15.190
 Vibrational              1.193              3.947              8.953
 Vibration     1          0.597              1.974              4.477
 Vibration     2          0.597              1.974              4.477

 Normal termination of Gaussian 16 at Fri Aug 22 22:11:57 2025.
