 Gaussian 16, Revision C.01,
 Gaussian 16:  ES64L-G16RevC.01  3-Jul-2019

 -----------------------------------------
 # sp b3lyp/6-311g** Force nosymm scf=(qc)
 -----------------------------------------

 -------------------
 Title Card Required
 -------------------
 Symbolic Z-matrix:
 Charge =  0 Multiplicity = 2

                          Input orientation:
 ---------------------------------------------------------------------
 Center     Atomic      Atomic             Coordinates (Angstroms)
 Number     Number       Type             X           Y           Z
 ---------------------------------------------------------------------
      1          1           0        0.000000    0.000000    0.000000
      2          1           0       -0.950000    0.000000    0.000000
      3          9           0        2.650000    0.000000    0.000000
 ---------------------------------------------------------------------

 SCF Done:  E(UB3LYP) =  -100.914919725     a.u. after    7 cycles

 Alpha  occ. eigenvalues --  -24.75970  -1.21883  -0.55142  -0.46267  -0.46267
 Alpha  occ. eigenvalues --   -0.40290
 Alpha virt. eigenvalues --    0.01360   0.20993   0.40527   0.89879   0.91042
 Alpha virt. eigenvalues --    0.91042   1.08011   1.08011   1.08877   1.40877
 Alpha virt. eigenvalues --    1.68332   1.68332   2.22132   2.37307   2.64047

  Beta  occ. eigenvalues --  -24.72849  -1.12916  -0.43140  -0.43140  -0.40225
  Beta virt. eigenvalues --   -0.26154   0.01721   0.21225   0.40934   0.92520
  Beta virt. eigenvalues --    0.92520   0.98345   1.08142   1.08142   1.13273
  Beta virt. eigenvalues --    1.41042   1.68428   1.68428   2.22324   2.37438

 Mulliken charges and spin densities:
               1          2
     1  H   -0.011375  -0.010278
     2  H    0.016076   0.022636
     3  F   -0.004701   0.987643
 Sum of Mulliken charges =   0.00000   1.00000

 Dipole moment (field-independent basis, Debye):
    X=             -0.1436    Y=              0.0000    Z=              0.0000  Tot=              0.1436
 Quadrupole moment (field-independent basis, Debye-Ang):
   XX=             -5.6511   YY=             -7.2059   ZZ=             -7.2059
   XY=              0.0000   XZ=              0.0000   YZ=              0.0000

  Exact polarizability:      17.845      -0.000       2.057      -0.000      -0.000       2.057
 Approx polarizability:      20.438       0.000       2.116      -0.000      -0.000       2.116

 ******    1 imaginary frequencies (negative Signs) ******

                      1                      2                      3
                      A                      A                      A
 Frequencies --   -139.2959              1499.0508              1499.0508
 Red. masses --      1.1085                 1.0101                 1.0101
 Frc consts  --      0.0127                 1.3374                 1.3374
 IR Inten    --      4.1447                 0.2014                 0.2014

                      4
                      A
 Frequencies --   2167.6282
 Red. masses --      1.0078
 Frc consts  --      2.7900
 IR Inten    --     42.4537

 - Thermochemistry -
 -------------------
 Temperature   298.150 Kelvin.  Pressure   1.00000 Atm.
 Atom     1 has atomic number  1 and mass   1.00783

 Molecular mass:    21.01405 amu.
 Principal axes and moments of inertia in atomic units:
                           1         2         3
     Eigenvalues --     0.00000  65.17473  65.17473
           X            1.00000  -0.00000   0.00000
           Y            0.00000   1.00000   0.00000
           Z            0.00000   0.00000   1.00000
 This molecule is a prolate symmetric top.
 Rotational symmetry number  1.
 Rotational temperature (Kelvin)      1.32895
 Rotational constant (GHZ):          27.690812
    1 imaginary frequencies ignored.
 Zero-point vibrational energy      30897.9 (Joules/Mol)
                                    7.38478 (Kcal/Mol)
 Vibrational temperatures:   2156.80  2156.80  3118.73
          (Kelvin)

 Zero-point correction=                           0.011768 (Hartree/Particle)
 Thermal correction to Energy=                    0.014139
 Thermal correction to Enthalpy=                  0.015083
 Thermal correction to Gibbs Free Energy=        -0.008300
 Sum of electronic and zero-point Energies=           -100.903151
 Sum of electronic and thermal Energies=              -100.900781
 Sum of electronic and thermal Enthalpies=            -100.899837
 Sum of electronic and thermal Free Energies=         -100.923220

                     E (Thermal)             CV                S
                      KCal/Mol        Cal/Mol-Kelvin    Cal/Mol-Kelvin
 Total                    8.872              5.125             49.214
 Electronic               0.000              0.000              1.377
 Translational            0.889              2.981             35.068
 Rotational               0.592              1.987             12.744
 Vibrational              7.391              0.157              0.024

 Normal termination of Gaussian 16 at Fri Aug 22 18:09:28 2025.
