 Gaussian 16, Revision C.01,
 Gaussian 16:  ES64L-G16RevC.01  3-Jul-2019

 -----------------------------------------
 # sp b3lyp/6-311g** Force nosymm scf=(qc)
 -----------------------------------------

 -------------------
 Title Card Required
 -------------------
 Symbolic Z-matrix:
 Charge =  0 Multiplicity = 2

                          Input orientation:
 ---------------------------------------------------------------------
 Center     Atomic      Atomic             Coordinates (Angstroms)
 Number     Number       Type             X           Y           Z
 ---------------------------------------------------------------------
      1          1           0        0.000000    0.000000    0.000000
      2          1           0       -1.850000    0.000000    0.000000
      3          9           0        3.450000    0.000000    0.000000
 ---------------------------------------------------------------------

 SCF Done:  E(UB3LYP) =  -100.782791125     a.u. after   32 cycles

 Alpha  occ. eigenvalues --  -24.75606  -1.21554  -0.54730  -0.45959  -0.45959
 Alpha  occ. eigenvalues --   -0.33313
 Alpha virt. eigenvalues --   -0.11208   0.25728   0.31267   0.87754   0.91322
 Alpha virt. eigenvalues --    0.91322   1.01822   1.11313   1.24495   1.24495
 Alpha virt. eigenvalues --    1.37229   1.37229   1.58209   2.13929   2.38560

  Beta  occ. eigenvalues --  -24.72486  -1.12587  -0.42831  -0.42831  -0.33327
  Beta virt. eigenvalues --   -0.25673  -0.11022   0.25677   0.31652   0.92812
  Beta virt. eigenvalues --    0.92812   0.96901   1.05864   1.11356   1.24476
  Beta virt. eigenvalues --    1.24476   1.37455   1.37455   1.58404   2.14484

 Mulliken charges and spin densities:
               1          2
     1  H    0.001277  -0.757120
     2  H    0.007718   0.767803
     3  F   -0.008995   0.989317
 Sum of Mulliken charges =   0.00000   1.00000

 Dipole moment (field-independent basis, Debye):
    X=             -0.2261    Y=              0.0000    Z=              0.0000  Tot=              0.2261
 Quadrupole moment (field-independent basis, Debye-Ang):
   XX=             -6.4049   YY=             -7.7468   ZZ=             -7.7468
   XY=              0.0000   XZ=              0.0000   YZ=             -0.0000

  Exact polarizability:      45.654      -0.000       2.003      -0.000      -0.000       2.003
 Approx polarizability:      45.230       0.000       1.951       0.000       0.000       1.951

 ******    2 imaginary frequencies (negative Signs) ******

                      1                      2                      3
                      A                      A                      A
 Frequencies --  -1638.0237              -134.7370               707.7368
 Red. masses --      1.0078                 1.1085                 1.0122
 Frc consts  --      1.5932                 0.0119                 0.2987
 IR Inten    --     16.7342                 7.3568                 0.0026

                      4
                      A
 Frequencies --    707.7368
 Red. masses --      1.0122
 Frc consts  --      0.2987
 IR Inten    --      0.0026

 - Thermochemistry -
 -------------------
 Temperature   298.150 Kelvin.  Pressure   1.00000 Atm.
 Atom     1 has atomic number  1 and mass   1.00783

 Molecular mass:    21.01405 amu.
 Principal axes and moments of inertia in atomic units:
                           1         2         3
     Eigenvalues --     0.00000 130.71813 130.71813
           X            1.00000  -0.00000   0.00000
           Y            0.00000   1.00000   0.00000
           Z            0.00000   0.00000   1.00000
 This molecule is a prolate symmetric top.
 Rotational symmetry number  1.
 Rotational temperature (Kelvin)      0.66260
 Rotational constant (GHZ):          13.806357
    2 imaginary frequencies ignored.
 Zero-point vibrational energy       8466.4 (Joules/Mol)
                                    2.02352 (Kcal/Mol)
 Vibrational temperatures:   1018.28  1018.28
          (Kelvin)

 Zero-point correction=                           0.003225 (Hartree/Particle)
 Thermal correction to Energy=                    0.005804
 Thermal correction to Enthalpy=                  0.006749
 Thermal correction to Gibbs Free Energy=        -0.017563
 Sum of electronic and zero-point Energies=           -100.779566
 Sum of electronic and thermal Energies=              -100.776987
 Sum of electronic and thermal Enthalpies=            -100.776043
 Sum of electronic and thermal Free Energies=         -100.800354

                     E (Thermal)             CV                S
                      KCal/Mol        Cal/Mol-Kelvin    Cal/Mol-Kelvin
 Total                    3.642              6.597             51.167
 Electronic               0.000              0.000              1.377
 Translational            0.889              2.981             35.068
 Rotational               0.592              1.987             14.127
 Vibrational              2.161              1.629              0.594

 Normal termination of Gaussian 16 at Fri Aug 22 21:40:46 2025.
