 Gaussian 16, Revision C.01,
 Gaussian 16:  ES64L-G16RevC.01  3-Jul-2019

 -----------------------------------------
 # sp b3lyp/6-311g** Force nosymm scf=(qc)
 -----------------------------------------

 -------------------
 Title Card Required
 -------------------
 Symbolic Z-matrix:
 Charge =  0 Multiplicity = 2

                          Input orientation:
 ---------------------------------------------------------------------
 Center     Atomic      Atomic             Coordinates (Angstroms)
 Number     Number       Type             X           Y           Z
 ---------------------------------------------------------------------
      1          1           0        0.000000    0.000000    0.000000
      2          1           0       -2.750000    0.000000    0.000000
      3          9           0        3.450000    0.000000    0.000000
 ---------------------------------------------------------------------

 SCF Done:  E(UB3LYP) =  -100.761115290     a.u. after   30 cycles

 Alpha  occ. eigenvalues --  -24.75334  -1.21301  -0.54456  -0.45723  -0.45723
 Alpha  occ. eigenvalues --   -0.32562
 Alpha virt. eigenvalues --   -0.08814   0.25335   0.35024   0.87775   0.91512
 Alpha virt. eigenvalues --    0.91512   1.01936   1.25014   1.25014   1.26287
 Alpha virt. eigenvalues --    1.42640   1.42640   1.43117   2.15937   2.38404

  Beta  occ. eigenvalues --  -24.72225  -1.12367  -0.42606  -0.42606  -0.32976
  Beta virt. eigenvalues --   -0.25464  -0.08227   0.25127   0.35894   0.92999
  Beta virt. eigenvalues --    0.92999   0.96902   1.05950   1.24526   1.24526
  Beta virt. eigenvalues --    1.25727   1.43568   1.43568   1.44036   2.16395

 Mulliken charges and spin densities:
               1          2
     1  H    0.011266  -0.971206
     2  H    0.001377   0.985256
     3  F   -0.012644   0.985951
 Sum of Mulliken charges =  -0.00000   1.00000

 Dipole moment (field-independent basis, Debye):
    X=             -0.2422    Y=             -0.0000    Z=             -0.0000  Tot=              0.2422
 Quadrupole moment (field-independent basis, Debye-Ang):
   XX=             -7.3041   YY=             -7.6460   ZZ=             -7.6460
   XY=             -0.0000   XZ=             -0.0000   YZ=              0.0000

  Exact polarizability:      30.349      -0.000       2.026      -0.000      -0.000       2.026
 Approx polarizability:      23.524      -0.000       1.929      -0.000      -0.000       1.929

 ******    2 imaginary frequencies (negative Signs) ******

                      1                      2                      3
                      A                      A                      A
 Frequencies --   -483.8763              -143.4275               172.8076
 Red. masses --      1.0089                 1.1072                 1.0154
 Frc consts  --      0.1392                 0.0134                 0.0179
 IR Inten    --      7.7763                 6.1200                 0.0996

                      4
                      A
 Frequencies --    172.8076
 Red. masses --      1.0154
 Frc consts  --      0.0179
 IR Inten    --      0.0996

 - Thermochemistry -
 -------------------
 Temperature   298.150 Kelvin.  Pressure   1.00000 Atm.
 Atom     1 has atomic number  1 and mass   1.00783

 Molecular mass:    21.01405 amu.
 Principal axes and moments of inertia in atomic units:
                           1         2         3
     Eigenvalues --     0.00000 165.10950 165.10950
           X            1.00000  -0.00000   0.00000
           Y            0.00000   1.00000   0.00000
           Z            0.00000   0.00000   1.00000
 This molecule is a prolate symmetric top.
 Rotational symmetry number  1.
 Rotational temperature (Kelvin)      0.52458
 Rotational constant (GHZ):          10.930572
    2 imaginary frequencies ignored.
 Zero-point vibrational energy       2067.2 (Joules/Mol)
                                    0.49408 (Kcal/Mol)
 Warning -- explicit consideration of   2 degrees of freedom as
           vibrations may cause significant error
 Vibrational temperatures:    248.63   248.63
          (Kelvin)

 Zero-point correction=                           0.000787 (Hartree/Particle)
 Thermal correction to Energy=                    0.004357
 Thermal correction to Enthalpy=                  0.005301
 Thermal correction to Gibbs Free Energy=        -0.021233
 Sum of electronic and zero-point Energies=           -100.760328
 Sum of electronic and thermal Energies=              -100.756758
 Sum of electronic and thermal Enthalpies=            -100.755814
 Sum of electronic and thermal Free Energies=         -100.782349

                     E (Thermal)             CV                S
                      KCal/Mol        Cal/Mol-Kelvin    Cal/Mol-Kelvin
 Total                    2.734              8.720             55.846
 Electronic               0.000              0.000              1.377
 Translational            0.889              2.981             35.068
 Rotational               0.592              1.987             14.592
 Vibrational              1.253              3.752              4.809
 Vibration     1          0.626              1.876              2.405
 Vibration     2          0.626              1.876              2.405

 Normal termination of Gaussian 16 at Fri Aug 22 21:42:12 2025.
