 Gaussian 16, Revision C.01,
 Gaussian 16:  ES64L-G16RevC.01  3-Jul-2019

 -----------------------------------------
 # sp b3lyp/6-311g** Force nosymm scf=(qc)
 -----------------------------------------

 -------------------
 Title Card Required
 -------------------
 Symbolic Z-matrix:
 Charge =  0 Multiplicity = 2

                          Input orientation:
 ---------------------------------------------------------------------
 Center     Atomic      Atomic             Coordinates (Angstroms)
 Number     Number       Type             X           Y           Z
 ---------------------------------------------------------------------
      1          1           0        0.000000    0.000000    0.000000
      2          1           0       -1.150000    0.000000    0.000000
      3          9           0        3.450000    0.000000    0.000000
 ---------------------------------------------------------------------

 SCF Done:  E(UB3LYP) =  -100.880909889     a.u. after   82 cycles

 Alpha  occ. eigenvalues --  -24.76400  -1.22265  -0.55464  -0.46663  -0.46618
 Alpha  occ. eigenvalues --   -0.36862
 Alpha virt. eigenvalues --   -0.02936   0.22509   0.35181   0.85942   0.90817
 Alpha virt. eigenvalues --    0.92390   1.01599   1.11830   1.11833   1.25915
 Alpha virt. eigenvalues --    1.57130   1.57133   2.12348   2.33190   2.55126

  Beta  occ. eigenvalues --  -24.73242  -1.13187  -0.43499  -0.43452  -0.36859
  Beta virt. eigenvalues --   -0.26104  -0.02929   0.22519   0.35220   0.92317
  Beta virt. eigenvalues --    0.93906   0.95405   1.05681   1.11830   1.11833
  Beta virt. eigenvalues --    1.25922   1.57129   1.57133   2.12355   2.33193

 Mulliken charges and spin densities:
               1          2
     1  H   -0.000152  -0.000230
     2  H   -0.003344  -0.000182
     3  F    0.003496   1.000412
 Sum of Mulliken charges =  -0.00000   1.00000

 Dipole moment (field-independent basis, Debye):
    X=              0.0523    Y=              0.0000    Z=             -0.0000  Tot=              0.0523
 Quadrupole moment (field-independent basis, Debye-Ang):
   XX=             -6.2463   YY=             -6.6862   ZZ=             -7.3391
   XY=              0.0000   XZ=             -0.0000   YZ=             -0.2831

  Exact polarizability:      15.069       0.000       2.485      -0.000      -0.152       2.135
 Approx polarizability:      21.821       0.000       2.621      -0.000      -0.191       2.182

 ******    1 imaginary frequencies (negative Signs) ******

                      1                      2                      3
                      A                      A                      A
 Frequencies --    -29.7482               584.3249              1502.7332
 Red. masses --      1.1085                 1.0078                 1.0098
 Frc consts  --      0.0006                 0.2027                 1.3436
 IR Inten    --      0.1817                 0.2097                 0.0007

                      4
                      A
 Frequencies --   1503.7582
 Red. masses --      1.0098
 Frc consts  --      1.3454
 IR Inten    --      0.0007

 - Thermochemistry -
 -------------------
 Temperature   298.150 Kelvin.  Pressure   1.00000 Atm.
 Atom     1 has atomic number  1 and mass   1.00783

 Molecular mass:    21.01405 amu.
 Principal axes and moments of inertia in atomic units:
                           1         2         3
     Eigenvalues --     0.00000 107.80686 107.80686
           X            1.00000  -0.00000   0.00000
           Y            0.00000   1.00000   0.00000
           Z            0.00000   0.00000   1.00000
 This molecule is a prolate symmetric top.
 Rotational symmetry number  1.
 Rotational temperature (Kelvin)      0.80342
 Rotational constant (GHZ):          16.740504
    1 imaginary frequencies ignored.
 Zero-point vibrational energy      21477.9 (Joules/Mol)
                                    5.13333 (Kcal/Mol)
 Warning -- explicit consideration of   1 degrees of freedom as
           vibrations may cause significant error
 Vibrational temperatures:    840.71  2162.10  2163.57
          (Kelvin)

 Zero-point correction=                           0.008180 (Hartree/Particle)
 Thermal correction to Energy=                    0.010719
 Thermal correction to Enthalpy=                  0.011664
 Thermal correction to Gibbs Free Energy=        -0.012421
 Sum of electronic and zero-point Energies=           -100.872729
 Sum of electronic and thermal Energies=              -100.870190
 Sum of electronic and thermal Enthalpies=            -100.869246
 Sum of electronic and thermal Free Energies=         -100.893331

                     E (Thermal)             CV                S
                      KCal/Mol        Cal/Mol-Kelvin    Cal/Mol-Kelvin
 Total                    6.727              6.181             50.691
 Electronic               0.000              0.000              1.377
 Translational            0.889              2.981             35.068
 Rotational               0.592              1.987             13.744
 Vibrational              5.245              1.213              0.501
 Vibration     1          0.941              1.065              0.477

 Normal termination of Gaussian 16 at Fri Aug 22 21:28:09 2025.
