 Gaussian 16, Revision C.01,
 Gaussian 16:  ES64L-G16RevC.01  3-Jul-2019

 -----------------------------------------
 # sp b3lyp/6-311g** Force nosymm scf=(qc)
 -----------------------------------------

 -------------------
 Title Card Required
 -------------------
 Symbolic Z-matrix:
 Charge =  0 Multiplicity = 2

                          Input orientation:
 ---------------------------------------------------------------------
 Center     Atomic      Atomic             Coordinates (Angstroms)
 Number     Number       Type             X           Y           Z
 ---------------------------------------------------------------------
      1          1           0        0.000000    0.000000    0.000000
      2          1           0       -3.750000    0.000000    0.000000
      3          9           0        2.750000    0.000000    0.000000
 ---------------------------------------------------------------------

 SCF Done:  E(UB3LYP) =  -100.763228588     a.u. after   22 cycles

 Alpha  occ. eigenvalues --  -24.73046  -1.19180  -0.52161  -0.43805  -0.43805
 Alpha  occ. eigenvalues --   -0.32629
 Alpha virt. eigenvalues --   -0.08878   0.23697   0.35896   0.89901   0.92888
 Alpha virt. eigenvalues --    0.92888   1.05303   1.24872   1.24872   1.24930
 Alpha virt. eigenvalues --    1.42642   1.42642   1.44108   2.14386   2.39307

  Beta  occ. eigenvalues --  -24.70095  -1.10745  -0.40855  -0.40855  -0.34440
  Beta virt. eigenvalues --   -0.24162  -0.06262   0.23833   0.38075   0.94321
  Beta virt. eigenvalues --    0.94321   0.97925   1.08527   1.22876   1.22876
  Beta virt. eigenvalues --    1.24994   1.46237   1.46451   1.46451   2.13761

 Mulliken charges and spin densities:
               1          2
     1  H    0.059141  -0.933169
     2  H    0.000338   0.998893
     3  F   -0.059479   0.934276
 Sum of Mulliken charges =  -0.00000   1.00000

 Dipole moment (field-independent basis, Debye):
    X=             -0.8436    Y=              0.0000    Z=              0.0000  Tot=              0.8436
 Quadrupole moment (field-independent basis, Debye-Ang):
   XX=             -8.8471   YY=             -7.5918   ZZ=             -7.5918
   XY=              0.0000   XZ=             -0.0000   YZ=              0.0000

  Exact polarizability:      31.516       0.000       2.025       0.000      -0.000       2.025
 Approx polarizability:      36.438      -0.000       1.923      -0.000       0.000       1.923

 ******    2 imaginary frequencies (negative Signs) ******

                      1                      2                      3
                      A                      A                      A
 Frequencies --   -475.2989               -91.3279               175.0276
 Red. masses --      1.0543                 1.0572                 1.0221
 Frc consts  --      0.1403                 0.0052                 0.0184
 IR Inten    --     58.9631                 0.1345                 3.3728

                      4
                      A
 Frequencies --    175.0276
 Red. masses --      1.0221
 Frc consts  --      0.0184
 IR Inten    --      3.3728

 - Thermochemistry -
 -------------------
 Temperature   298.150 Kelvin.  Pressure   1.00000 Atm.
 Atom     1 has atomic number  1 and mass   1.00783

 Molecular mass:    21.01405 amu.
 Principal axes and moments of inertia in atomic units:
                           1         2         3
     Eigenvalues --     0.00000 164.50693 164.50693
           X            1.00000  -0.00000   0.00000
           Y            0.00000   1.00000   0.00000
           Z            0.00000   0.00000   1.00000
 This molecule is a prolate symmetric top.
 Rotational symmetry number  1.
 Rotational temperature (Kelvin)      0.52651
 Rotational constant (GHZ):          10.970609
    2 imaginary frequencies ignored.
 Zero-point vibrational energy       2093.8 (Joules/Mol)
                                    0.50043 (Kcal/Mol)
 Warning -- explicit consideration of   2 degrees of freedom as
           vibrations may cause significant error
 Vibrational temperatures:    251.83   251.83
          (Kelvin)

 Zero-point correction=                           0.000797 (Hartree/Particle)
 Thermal correction to Energy=                    0.004360
 Thermal correction to Enthalpy=                  0.005304
 Thermal correction to Gibbs Free Energy=        -0.021204
 Sum of electronic and zero-point Energies=           -100.762431
 Sum of electronic and thermal Energies=              -100.758869
 Sum of electronic and thermal Enthalpies=            -100.757925
 Sum of electronic and thermal Free Energies=         -100.784433

                     E (Thermal)             CV                S
                      KCal/Mol        Cal/Mol-Kelvin    Cal/Mol-Kelvin
 Total                    2.736              8.714             55.791
 Electronic               0.000              0.000              1.377
 Translational            0.889              2.981             35.068
 Rotational               0.592              1.987             14.584
 Vibrational              1.255              3.746              4.762
 Vibration     1          0.627              1.873              2.381
 Vibration     2          0.627              1.873              2.381

 Normal termination of Gaussian 16 at Fri Aug 22 18:35:25 2025.
