 Gaussian 16, Revision C.01,
 Gaussian 16:  ES64L-G16RevC.01  3-Jul-2019

 -----------------------------------------
 # sp b3lyp/6-311g** Force nosymm scf=(qc)
 -----------------------------------------

 -------------------
 Title Card Required
 -------------------
 Symbolic Z-matrix:
 Charge =  0 Multiplicity = 2

                          Input orientation:
 ---------------------------------------------------------------------
 Center     Atomic      Atomic             Coordinates (Angstroms)
 Number     Number       Type             X           Y           Z
 ---------------------------------------------------------------------
      1          1           0        0.000000    0.000000    0.000000
      2          1           0       -2.500000    0.000000    0.000000
      3          9           0        3.750000    0.000000    0.000000
 ---------------------------------------------------------------------

 SCF Done:  E(UB3LYP) =  -100.762646996     a.u. after   33 cycles

 Alpha  occ. eigenvalues --  -24.75756  -1.21692  -0.54880  -0.46080  -0.46080
 Alpha  occ. eigenvalues --   -0.32577
 Alpha virt. eigenvalues --   -0.09299   0.25760   0.34630   0.86940   0.91245
 Alpha virt. eigenvalues --    0.91245   1.01296   1.25075   1.25075   1.26608
 Alpha virt. eigenvalues --    1.41646   1.41646   1.43254   2.15841   2.36788

  Beta  occ. eigenvalues --  -24.72620  -1.12676  -0.42936  -0.42936  -0.32766
  Beta virt. eigenvalues --   -0.25684  -0.09005   0.25577   0.35055   0.92741
  Beta virt. eigenvalues --    0.92741   0.96242   1.05395   1.24859   1.24859
  Beta virt. eigenvalues --    1.26360   1.42083   1.42083   1.43684   2.16080

 Mulliken charges and spin densities:
               1          2
     1  H    0.003585  -0.964060
     2  H    0.001387   0.969691
     3  F   -0.004972   0.994369
 Sum of Mulliken charges =   0.00000   1.00000

 Dipole moment (field-independent basis, Debye):
    X=             -0.1123    Y=              0.0000    Z=              0.0000  Tot=              0.1123
 Quadrupole moment (field-independent basis, Debye-Ang):
   XX=             -6.8364   YY=             -7.6668   ZZ=             -7.6668
   XY=             -0.0000   XZ=             -0.0000   YZ=              0.0000

  Exact polarizability:      25.322      -0.000       2.019       0.000       0.000       2.019
 Approx polarizability:      18.840      -0.000       1.930      -0.000      -0.000       1.930

 ******    2 imaginary frequencies (negative Signs) ******

                      1                      2                      3
                      A                      A                      A
 Frequencies --   -663.2887              -101.6409               245.1342
 Red. masses --      1.0079                 1.1084                 1.0138
 Frc consts  --      0.2613                 0.0067                 0.0359
 IR Inten    --      2.0006                 2.2051                 0.0087

                      4
                      A
 Frequencies --    245.1342
 Red. masses --      1.0138
 Frc consts  --      0.0359
 IR Inten    --      0.0087

 - Thermochemistry -
 -------------------
 Temperature   298.150 Kelvin.  Pressure   1.00000 Atm.
 Atom     1 has atomic number  1 and mass   1.00783

 Molecular mass:    21.01405 amu.
 Principal axes and moments of inertia in atomic units:
                           1         2         3
     Eigenvalues --     0.00000 173.93664 173.93664
           X            1.00000  -0.00000   0.00000
           Y            0.00000   1.00000   0.00000
           Z            0.00000   0.00000   1.00000
 This molecule is a prolate symmetric top.
 Rotational symmetry number  1.
 Rotational temperature (Kelvin)      0.49796
 Rotational constant (GHZ):          10.375854
    2 imaginary frequencies ignored.
 Zero-point vibrational energy       2932.5 (Joules/Mol)
                                    0.70087 (Kcal/Mol)
 Warning -- explicit consideration of   2 degrees of freedom as
           vibrations may cause significant error
 Vibrational temperatures:    352.69   352.69
          (Kelvin)

 Zero-point correction=                           0.001117 (Hartree/Particle)
 Thermal correction to Energy=                    0.004464
 Thermal correction to Enthalpy=                  0.005408
 Thermal correction to Gibbs Free Energy=        -0.020568
 Sum of electronic and zero-point Energies=           -100.761530
 Sum of electronic and thermal Energies=              -100.758183
 Sum of electronic and thermal Enthalpies=            -100.757239
 Sum of electronic and thermal Free Energies=         -100.783215

                     E (Thermal)             CV                S
                      KCal/Mol        Cal/Mol-Kelvin    Cal/Mol-Kelvin
 Total                    2.801              8.510             54.671
 Electronic               0.000              0.000              1.377
 Translational            0.889              2.981             35.068
 Rotational               0.592              1.987             14.695
 Vibrational              1.320              3.542              3.531
 Vibration     1          0.660              1.771              1.765
 Vibration     2          0.660              1.771              1.765

 Normal termination of Gaussian 16 at Sat Aug 23 00:26:07 2025.
