 Gaussian 16, Revision C.01,
 Gaussian 16:  ES64L-G16RevC.01  3-Jul-2019

 -----------------------------------------
 # sp b3lyp/6-311g** Force nosymm scf=(qc)
 -----------------------------------------

 -------------------
 Title Card Required
 -------------------
 Symbolic Z-matrix:
 Charge =  0 Multiplicity = 2

                          Input orientation:
 ---------------------------------------------------------------------
 Center     Atomic      Atomic             Coordinates (Angstroms)
 Number     Number       Type             X           Y           Z
 ---------------------------------------------------------------------
      1          1           0        0.000000    0.000000    0.000000
      2          1           0       -0.700000    0.000000    0.000000
      3          9           0        1.150000    0.000000    0.000000
 ---------------------------------------------------------------------

 SCF Done:  E(UB3LYP) =  -100.931594338     a.u. after    7 cycles

 Alpha  occ. eigenvalues --  -24.67922  -1.18046  -0.61399  -0.41260  -0.41260
 Alpha  occ. eigenvalues --   -0.37968
 Alpha virt. eigenvalues --    0.12306   0.18799   0.52196   0.87475   0.87475
 Alpha virt. eigenvalues --    0.95852   1.10269   1.10269   1.47028   1.66108
 Alpha virt. eigenvalues --    1.80734   1.80734   1.96812   2.39123   3.53657

  Beta  occ. eigenvalues --  -24.65903  -1.12856  -0.53098  -0.39388  -0.39388
  Beta virt. eigenvalues --   -0.19871   0.14046   0.19821   0.56684   0.89079
  Beta virt. eigenvalues --    0.89079   1.00087   1.13939   1.13939   1.49738
  Beta virt. eigenvalues --    1.72254   1.83787   1.83787   1.97632   2.45276

 Mulliken charges and spin densities:
               1          2
     1  H    0.256374  -0.024205
     2  H   -0.021046   0.468608
     3  F   -0.235329   0.555598
 Sum of Mulliken charges =   0.00000   1.00000

 Dipole moment (field-independent basis, Debye):
    X=             -1.4993    Y=              0.0000    Z=              0.0000  Tot=              1.4993
 Quadrupole moment (field-independent basis, Debye-Ang):
   XX=             -7.3089   YY=             -6.5760   ZZ=             -6.5760
   XY=             -0.0000   XZ=              0.0000   YZ=             -0.0000

  Exact polarizability:      15.520      -0.000       2.472       0.000       0.000       2.472
 Approx polarizability:      19.567      -0.000       2.518       0.000       0.000       2.518

 ******    2 imaginary frequencies (negative Signs) ******

                      1                      2                      3
                      A                      A                      A
 Frequencies --  -1962.9022             -1962.9022              1086.9058
 Red. masses --      1.0131                 1.0131                 1.1072
 Frc consts  --      2.2997                 2.2997                 0.7706
 IR Inten    --     12.2266                12.2266                18.5488

                      4
                      A
 Frequencies --   4469.1717
 Red. masses --      1.0089
 Frc consts  --     11.8733
 IR Inten    --    378.2261

 - Thermochemistry -
 -------------------
 Temperature   298.150 Kelvin.  Pressure   1.00000 Atm.
 Atom     1 has atomic number  1 and mass   1.00783

 Molecular mass:    21.01405 amu.
 Principal axes and moments of inertia in atomic units:
                           1         2         3
     Eigenvalues --     0.00000  15.52383  15.52383
           X            1.00000  -0.00000   0.00000
           Y            0.00000   1.00000   0.00000
           Z            0.00000   0.00000   1.00000
 This molecule is a prolate symmetric top.
 Rotational symmetry number  1.
 Rotational temperature (Kelvin)      5.57942
 Rotational constant (GHZ):         116.256157
    2 imaginary frequencies ignored.
 Zero-point vibrational energy      33232.7 (Joules/Mol)
                                    7.94281 (Kcal/Mol)
 Vibrational temperatures:   1563.81  6430.14
          (Kelvin)

 Zero-point correction=                           0.012658 (Hartree/Particle)
 Thermal correction to Energy=                    0.015044
 Thermal correction to Enthalpy=                  0.015989
 Thermal correction to Gibbs Free Energy=        -0.006060
 Sum of electronic and zero-point Energies=           -100.918937
 Sum of electronic and thermal Energies=              -100.916550
 Sum of electronic and thermal Enthalpies=            -100.915606
 Sum of electronic and thermal Free Energies=         -100.937654

                     E (Thermal)             CV                S
                      KCal/Mol        Cal/Mol-Kelvin    Cal/Mol-Kelvin
 Total                    9.440              5.259             46.405
 Electronic               0.000              0.000              1.377
 Translational            0.889              2.981             35.068
 Rotational               0.592              1.987              9.893
 Vibrational              7.959              0.291              0.066

 Normal termination of Gaussian 16 at Fri Aug 22 16:06:48 2025.
