 Gaussian 16, Revision C.01,
 Gaussian 16:  ES64L-G16RevC.01  3-Jul-2019

 -----------------------------------------
 # sp b3lyp/6-311g** Force nosymm scf=(qc)
 -----------------------------------------

 -------------------
 Title Card Required
 -------------------
 Symbolic Z-matrix:
 Charge =  0 Multiplicity = 2

                          Input orientation:
 ---------------------------------------------------------------------
 Center     Atomic      Atomic             Coordinates (Angstroms)
 Number     Number       Type             X           Y           Z
 ---------------------------------------------------------------------
      1          1           0        0.000000    0.000000    0.000000
      2          1           0       -1.850000    0.000000    0.000000
      3          9           0        1.850000    0.000000    0.000000
 ---------------------------------------------------------------------

 SCF Done:  E(UB3LYP) =  -100.817279981     a.u. after   16 cycles

 Alpha  occ. eigenvalues --  -24.66994  -1.13337  -0.46267  -0.38705  -0.38705
 Alpha  occ. eigenvalues --   -0.37428
 Alpha virt. eigenvalues --   -0.12858   0.23201   0.30002   0.88342   0.94911
 Alpha virt. eigenvalues --    0.94911   1.04074   1.20213   1.20213   1.30403
 Alpha virt. eigenvalues --    1.34191   1.34191   1.68953   2.12539   2.32833

  Beta  occ. eigenvalues --  -24.64844  -1.07376  -0.38258  -0.36597  -0.36597
  Beta virt. eigenvalues --   -0.21262  -0.10808   0.25736   0.30695   0.90944
  Beta virt. eigenvalues --    0.95298   0.95298   1.07907   1.23973   1.23973
  Beta virt. eigenvalues --    1.35305   1.35305   1.38990   1.68270   2.13641

 Mulliken charges and spin densities:
               1          2
     1  H    0.169602  -0.517319
     2  H    0.056705   0.842423
     3  F   -0.226307   0.674896
 Sum of Mulliken charges =  -0.00000   1.00000

 Dipole moment (field-independent basis, Debye):
    X=             -2.5649    Y=              0.0000    Z=              0.0000  Tot=              2.5649
 Quadrupole moment (field-independent basis, Debye-Ang):
   XX=             -8.5792   YY=             -7.4936   ZZ=             -7.4936
   XY=             -0.0000   XZ=              0.0000   YZ=             -0.0000

  Exact polarizability:      47.612      -0.000       2.107       0.000      -0.000       2.107
 Approx polarizability:      61.870      -0.000       2.021      -0.000       0.000       2.021

 ******    2 imaginary frequencies (negative Signs) ******

                      1                      2                      3
                      A                      A                      A
 Frequencies --  -1900.2585              -617.0244               781.9729
 Red. masses --      1.0210                 1.0930                 1.0179
 Frc consts  --      2.1723                 0.2452                 0.3667
 IR Inten    --    196.8972                19.1023                16.2354

                      4
                      A
 Frequencies --    781.9729
 Red. masses --      1.0179
 Frc consts  --      0.3667
 IR Inten    --     16.2354

 - Thermochemistry -
 -------------------
 Temperature   298.150 Kelvin.  Pressure   1.00000 Atm.
 Atom     1 has atomic number  1 and mass   1.00783

 Molecular mass:    21.01405 amu.
 Principal axes and moments of inertia in atomic units:
                           1         2         3
     Eigenvalues --     0.00000  56.27131  56.27131
           X            1.00000  -0.00000   0.00000
           Y            0.00000   1.00000   0.00000
           Z            0.00000   0.00000   1.00000
 This molecule is a prolate symmetric top.
 Rotational symmetry number  1.
 Rotational temperature (Kelvin)      1.53922
 Rotational constant (GHZ):          32.072138
    2 imaginary frequencies ignored.
 Zero-point vibrational energy       9354.5 (Joules/Mol)
                                    2.23577 (Kcal/Mol)
 Vibrational temperatures:   1125.08  1125.08
          (Kelvin)

 Zero-point correction=                           0.003563 (Hartree/Particle)
 Thermal correction to Energy=                    0.006091
 Thermal correction to Enthalpy=                  0.007035
 Thermal correction to Gibbs Free Energy=        -0.016409
 Sum of electronic and zero-point Energies=           -100.813717
 Sum of electronic and thermal Energies=              -100.811189
 Sum of electronic and thermal Enthalpies=            -100.810245
 Sum of electronic and thermal Free Energies=         -100.833689

                     E (Thermal)             CV                S
                      KCal/Mol        Cal/Mol-Kelvin    Cal/Mol-Kelvin
 Total                    3.822              6.330             49.343
 Electronic               0.000              0.000              1.377
 Translational            0.889              2.981             35.068
 Rotational               0.592              1.987             12.452
 Vibrational              2.341              1.362              0.445

 Normal termination of Gaussian 16 at Fri Aug 22 16:46:35 2025.
