 Gaussian 16, Revision C.01,
 Gaussian 16:  ES64L-G16RevC.01  3-Jul-2019

 -----------------------------------------
 # sp b3lyp/6-311g** Force nosymm scf=(qc)
 -----------------------------------------

 -------------------
 Title Card Required
 -------------------
 Symbolic Z-matrix:
 Charge =  0 Multiplicity = 2

                          Input orientation:
 ---------------------------------------------------------------------
 Center     Atomic      Atomic             Coordinates (Angstroms)
 Number     Number       Type             X           Y           Z
 ---------------------------------------------------------------------
      1          1           0        0.000000    0.000000    0.000000
      2          1           0       -0.800000    0.000000    0.000000
      3          9           0        3.550000    0.000000    0.000000
 ---------------------------------------------------------------------

 SCF Done:  E(UB3LYP) =  -100.932083409     a.u. after  511 cycles

 Alpha  occ. eigenvalues --  -24.76328  -1.22192  -0.55393  -0.46586  -0.46547
 Alpha  occ. eigenvalues --   -0.42162
 Alpha virt. eigenvalues --    0.04772   0.20117   0.44776   0.86009   0.90885
 Alpha virt. eigenvalues --    0.92593   1.01748   1.08305   1.08308   1.52297
 Alpha virt. eigenvalues --    1.78969   1.78973   2.04586   2.38047   3.05402

  Beta  occ. eigenvalues --  -24.73170  -1.13114  -0.43440  -0.43382  -0.42142
  Beta virt. eigenvalues --   -0.26033   0.04785   0.20127   0.44825   0.92385
  Beta virt. eigenvalues --    0.94110   0.95473   1.05813   1.08305   1.08308
  Beta virt. eigenvalues --    1.52303   1.78969   1.78973   2.04601   2.38049

 Mulliken charges and spin densities:
               1          2
     1  H   -0.001164  -0.000377
     2  H   -0.002327  -0.000023
     3  F    0.003491   1.000399
 Sum of Mulliken charges =   0.00000   1.00000

 Dipole moment (field-independent basis, Debye):
    X=              0.0440    Y=             -0.0000    Z=             -0.0000  Tot=              0.0440
 Quadrupole moment (field-independent basis, Debye-Ang):
   XX=             -6.2241   YY=             -7.0214   ZZ=             -6.1573
   XY=              0.0000   XZ=              0.0000   YZ=             -0.0082

  Exact polarizability:       8.958       0.000       1.983       0.000      -0.004       2.447
 Approx polarizability:      10.556      -0.000       2.055       0.000      -0.006       2.637

 ******    1 imaginary frequencies (negative Signs) ******

                      1                      2                      3
                      A                      A                      A
 Frequencies --    -46.1113              1073.1992              1074.1695
 Red. masses --      1.1085                 1.0089                 1.0089
 Frc consts  --      0.0014                 0.6846                 0.6858
 IR Inten    --      0.1333                 0.0003                 0.0002

                      4
                      A
 Frequencies --   3694.3242
 Red. masses --      1.0078
 Frc consts  --      8.1041
 IR Inten    --      0.0747

 - Thermochemistry -
 -------------------
 Temperature   298.150 Kelvin.  Pressure   1.00000 Atm.
 Atom     1 has atomic number  1 and mass   1.00783

 Molecular mass:    21.01405 amu.
 Principal axes and moments of inertia in atomic units:
                           1         2         3
     Eigenvalues --     0.00000 102.68635 102.68635
           X            1.00000  -0.00000   0.00000
           Y            0.00000   1.00000   0.00000
           Z            0.00000   0.00000   1.00000
 This molecule is a prolate symmetric top.
 Rotational symmetry number  1.
 Rotational temperature (Kelvin)      0.84348
 Rotational constant (GHZ):          17.575279
    1 imaginary frequencies ignored.
 Zero-point vibrational energy      34941.1 (Joules/Mol)
                                    8.35112 (Kcal/Mol)
 Vibrational temperatures:   1544.09  1545.49  5315.31
          (Kelvin)

 Zero-point correction=                           0.013308 (Hartree/Particle)
 Thermal correction to Energy=                    0.015724
 Thermal correction to Enthalpy=                  0.016668
 Thermal correction to Gibbs Free Energy=        -0.007199
 Sum of electronic and zero-point Energies=           -100.918775
 Sum of electronic and thermal Energies=              -100.916359
 Sum of electronic and thermal Enthalpies=            -100.915415
 Sum of electronic and thermal Free Energies=         -100.939282

                     E (Thermal)             CV                S
                      KCal/Mol        Cal/Mol-Kelvin    Cal/Mol-Kelvin
 Total                    9.867              5.575             50.232
 Electronic               0.000              0.000              1.377
 Translational            0.889              2.981             35.068
 Rotational               0.592              1.987             13.648
 Vibrational              8.386              0.607              0.139

 Normal termination of Gaussian 16 at Fri Aug 22 22:18:25 2025.
