 Gaussian 16, Revision C.01,
 Gaussian 16:  ES64L-G16RevC.01  3-Jul-2019

 -----------------------------------------
 # sp b3lyp/6-311g** Force nosymm scf=(qc)
 -----------------------------------------

 -------------------
 Title Card Required
 -------------------
 Symbolic Z-matrix:
 Charge =  0 Multiplicity = 2

                          Input orientation:
 ---------------------------------------------------------------------
 Center     Atomic      Atomic             Coordinates (Angstroms)
 Number     Number       Type             X           Y           Z
 ---------------------------------------------------------------------
      1          1           0        0.000000    0.000000    0.000000
      2          1           0       -2.550000    0.000000    0.000000
      3          9           0        2.200000    0.000000    0.000000
 ---------------------------------------------------------------------

 SCF Done:  E(UB3LYP) =  -100.779690839     a.u. after   17 cycles

 Alpha  occ. eigenvalues --  -24.69716  -1.16017  -0.48771  -0.41004  -0.41004
 Alpha  occ. eigenvalues --   -0.34294
 Alpha virt. eigenvalues --   -0.12990   0.24273   0.32259   0.88993   0.94552
 Alpha virt. eigenvalues --    0.94552   1.06466   1.23340   1.23340   1.26127
 Alpha virt. eigenvalues --    1.36463   1.36463   1.51072   2.14313   2.30777

  Beta  occ. eigenvalues --  -24.67093  -1.08616  -0.38403  -0.38403  -0.36645
  Beta virt. eigenvalues --   -0.22002  -0.09610   0.25306   0.34873   0.92829
  Beta virt. eigenvalues --    0.95644   0.95644   1.08838   1.21801   1.21801
  Beta virt. eigenvalues --    1.41235   1.41735   1.41735   1.44290   2.13283

 Mulliken charges and spin densities:
               1          2
     1  H    0.129701  -0.800262
     2  H    0.013390   0.974021
     3  F   -0.143091   0.826241
 Sum of Mulliken charges =  -0.00000   1.00000

 Dipole moment (field-independent basis, Debye):
    X=             -1.7415    Y=              0.0000    Z=              0.0000  Tot=              1.7415
 Quadrupole moment (field-independent basis, Debye-Ang):
   XX=             -9.2852   YY=             -7.5619   ZZ=             -7.5619
   XY=              0.0000   XZ=              0.0000   YZ=             -0.0000

  Exact polarizability:      39.227       0.000       2.033       0.000      -0.000       2.033
 Approx polarizability:      46.026       0.000       1.928       0.000       0.000       1.928

 ******    2 imaginary frequencies (negative Signs) ******

                      1                      2                      3
                      A                      A                      A
 Frequencies --   -973.8296              -365.8517               403.1009
 Red. masses --      1.0367                 1.0756                 1.0198
 Frc consts  --      0.5792                 0.0848                 0.0976
 IR Inten    --     82.0916                16.3689                14.0853

                      4
                      A
 Frequencies --    403.1009
 Red. masses --      1.0198
 Frc consts  --      0.0976
 IR Inten    --     14.0853

 - Thermochemistry -
 -------------------
 Temperature   298.150 Kelvin.  Pressure   1.00000 Atm.
 Atom     1 has atomic number  1 and mass   1.00783

 Molecular mass:    21.01405 amu.
 Principal axes and moments of inertia in atomic units:
                           1         2         3
     Eigenvalues --     0.00000  90.28449  90.28449
           X            1.00000  -0.00000   0.00000
           Y            0.00000   1.00000   0.00000
           Z            0.00000   0.00000   1.00000
 This molecule is a prolate symmetric top.
 Rotational symmetry number  1.
 Rotational temperature (Kelvin)      0.95934
 Rotational constant (GHZ):          19.989494
    2 imaginary frequencies ignored.
 Zero-point vibrational energy       4822.2 (Joules/Mol)
                                    1.15252 (Kcal/Mol)
 Warning -- explicit consideration of   2 degrees of freedom as
           vibrations may cause significant error
 Vibrational temperatures:    579.97   579.97
          (Kelvin)

 Zero-point correction=                           0.001837 (Hartree/Particle)
 Thermal correction to Energy=                    0.004810
 Thermal correction to Enthalpy=                  0.005754
 Thermal correction to Gibbs Free Energy=        -0.018829
 Sum of electronic and zero-point Energies=           -100.777854
 Sum of electronic and thermal Energies=              -100.774881
 Sum of electronic and thermal Enthalpies=            -100.773937
 Sum of electronic and thermal Free Energies=         -100.798520

                     E (Thermal)             CV                S
                      KCal/Mol        Cal/Mol-Kelvin    Cal/Mol-Kelvin
 Total                    3.018              7.895             51.740
 Electronic               0.000              0.000              1.377
 Translational            0.889              2.981             35.068
 Rotational               0.592              1.987             13.392
 Vibrational              1.537              2.927              1.903
 Vibration     1          0.768              1.463              0.951
 Vibration     2          0.768              1.463              0.951

 Normal termination of Gaussian 16 at Fri Aug 22 17:12:09 2025.
