 Gaussian 16, Revision C.01,
 Gaussian 16:  ES64L-G16RevC.01  3-Jul-2019

 -----------------------------------------
 # sp b3lyp/6-311g** Force nosymm scf=(qc)
 -----------------------------------------

 -------------------
 Title Card Required
 -------------------
 Symbolic Z-matrix:
 Charge =  0 Multiplicity = 2

                          Input orientation:
 ---------------------------------------------------------------------
 Center     Atomic      Atomic             Coordinates (Angstroms)
 Number     Number       Type             X           Y           Z
 ---------------------------------------------------------------------
      1          1           0        0.000000    0.000000    0.000000
      2          1           0       -1.250000    0.000000    0.000000
      3          9           0        2.650000    0.000000    0.000000
 ---------------------------------------------------------------------

 SCF Done:  E(UB3LYP) =  -100.863514424     a.u. after  137 cycles

 Alpha  occ. eigenvalues --  -24.76364  -1.22218  -0.55388  -0.46733  -0.46585
 Alpha  occ. eigenvalues --   -0.35976
 Alpha virt. eigenvalues --   -0.05035   0.23342   0.34198   0.86696   0.90787
 Alpha virt. eigenvalues --    0.92750   1.06976   1.13859   1.13868   1.19363
 Alpha virt. eigenvalues --    1.51621   1.51629   2.03363   2.30422   2.54895

  Beta  occ. eigenvalues --  -24.73235  -1.13233  -0.43629  -0.43450  -0.35848
  Beta virt. eigenvalues --   -0.26305  -0.04850   0.23464   0.34441   0.92270
  Beta virt. eigenvalues --    0.93538   0.96624   1.10707   1.13966   1.13971
  Beta virt. eigenvalues --    1.19725   1.51711   1.51719   2.03497   2.30564

 Mulliken charges and spin densities:
               1          2
     1  H   -0.001409  -0.013723
     2  H    0.000980   0.023314
     3  F    0.000429   0.990408
 Sum of Mulliken charges =  -0.00000   1.00000

 Dipole moment (field-independent basis, Debye):
    X=             -0.0395    Y=              0.0014    Z=              0.0020  Tot=              0.0396
 Quadrupole moment (field-independent basis, Debye-Ang):
   XX=             -6.1149   YY=             -7.3600   ZZ=             -7.1581
   XY=              0.2278   XZ=              0.3299   YZ=              0.2662

  Exact polarizability:     173.383      -0.100       2.188      -0.154       0.138       2.292
 Approx polarizability:      36.794       0.050       2.233       0.072       0.178       2.367

 ******    2 imaginary frequencies (negative Signs) ******

                      1                      2                      3
                      A                      A                      A
 Frequencies --  -1330.7601              -215.6912              1417.1755
 Red. masses --      1.0129                 1.1024                 1.0114
 Frc consts  --      1.0569                 0.0302                 1.1968
 IR Inten    --   6496.0711                78.2930                 0.0063

                      4
                      A
 Frequencies --   1421.8426
 Red. masses --      1.0114
 Frc consts  --      1.2047
 IR Inten    --      8.8699

 - Thermochemistry -
 -------------------
 Temperature   298.150 Kelvin.  Pressure   1.00000 Atm.
 Atom     1 has atomic number  1 and mass   1.00783

 Molecular mass:    21.01405 amu.
 Principal axes and moments of inertia in atomic units:
                           1         2         3
     Eigenvalues --     0.00000  72.60969  72.60969
           X            1.00000  -0.00000   0.00000
           Y            0.00000   1.00000   0.00000
           Z            0.00000   0.00000   1.00000
 This molecule is a prolate symmetric top.
 Rotational symmetry number  1.
 Rotational temperature (Kelvin)      1.19287
 Rotational constant (GHZ):          24.855377
    2 imaginary frequencies ignored.
 Zero-point vibrational energy      16981.1 (Joules/Mol)
                                    4.05858 (Kcal/Mol)
 Vibrational temperatures:   2039.00  2045.71
          (Kelvin)

 Zero-point correction=                           0.006468 (Hartree/Particle)
 Thermal correction to Energy=                    0.008842
 Thermal correction to Enthalpy=                  0.009786
 Thermal correction to Gibbs Free Energy=        -0.013703
 Sum of electronic and zero-point Energies=           -100.857047
 Sum of electronic and thermal Energies=              -100.854672
 Sum of electronic and thermal Enthalpies=            -100.853728
 Sum of electronic and thermal Free Energies=         -100.877218

                     E (Thermal)             CV                S
                      KCal/Mol        Cal/Mol-Kelvin    Cal/Mol-Kelvin
 Total                    5.548              5.166             49.438
 Electronic               0.000              0.000              1.377
 Translational            0.889              2.981             35.068
 Rotational               0.592              1.987             12.959
 Vibrational              4.067              0.198              0.033

 Normal termination of Gaussian 16 at Fri Aug 22 18:12:52 2025.
