 Gaussian 16, Revision C.01,
 Gaussian 16:  ES64L-G16RevC.01  3-Jul-2019

 -----------------------------------------
 # sp b3lyp/6-311g** Force nosymm scf=(qc)
 -----------------------------------------

 -------------------
 Title Card Required
 -------------------
 Symbolic Z-matrix:
 Charge =  0 Multiplicity = 2

                          Input orientation:
 ---------------------------------------------------------------------
 Center     Atomic      Atomic             Coordinates (Angstroms)
 Number     Number       Type             X           Y           Z
 ---------------------------------------------------------------------
      1          1           0        0.000000    0.000000    0.000000
      2          1           0       -0.600000    0.000000    0.000000
      3          9           0        2.800000    0.000000    0.000000
 ---------------------------------------------------------------------

 SCF Done:  E(UB3LYP) =  -100.915284398     a.u. after  211 cycles

 Alpha  occ. eigenvalues --  -24.76683  -1.22469  -0.55657  -0.47319  -0.46805
 Alpha  occ. eigenvalues --   -0.45942
 Alpha virt. eigenvalues --    0.09112   0.19268   0.52878   0.85823   0.90694
 Alpha virt. eigenvalues --    0.93854   1.09427   1.10412   1.10423   1.61211
 Alpha virt. eigenvalues --    1.83351   1.92961   1.92974   2.38273   3.64614

  Beta  occ. eigenvalues --  -24.73520  -1.13378  -0.46537  -0.43634  -0.43547
  Beta virt. eigenvalues --   -0.26274   0.09187   0.19316   0.52996   0.92191
  Beta virt. eigenvalues --    0.95276   0.95789   1.10413   1.10422   1.12937
  Beta virt. eigenvalues --    1.61228   1.83381   1.92960   1.92973   2.38281

 Mulliken charges and spin densities:
               1          2
     1  H   -0.009235  -0.002001
     2  H   -0.003110   0.000219
     3  F    0.012345   1.001781
 Sum of Mulliken charges =   0.00000   1.00000

 Dipole moment (field-independent basis, Debye):
    X=              0.1096    Y=             -0.0000    Z=              0.0000  Tot=              0.1096
 Quadrupole moment (field-independent basis, Debye-Ang):
   XX=             -5.9894   YY=             -6.7470   ZZ=             -5.8849
   XY=             -0.0000   XZ=             -0.0000   YZ=              0.0236

  Exact polarizability:       6.929      -0.000       1.883      -0.000       0.012       2.337
 Approx polarizability:       7.430      -0.000       1.966      -0.000       0.016       2.537

 ******    2 imaginary frequencies (negative Signs) ******

                      1                      2                      3
                      A                      A                      A
 Frequencies --  -2753.2534             -2751.9641               101.6656
 Red. masses --      1.0088                 1.0088                 1.1085
 Frc consts  --      4.5054                 4.5012                 0.0068
 IR Inten    --      0.0561                 0.0559                 0.2248

                      4
                      A
 Frequencies --   7042.1135
 Red. masses --      1.0078
 Frc consts  --     29.4470
 IR Inten    --      0.6879

 - Thermochemistry -
 -------------------
 Temperature   298.150 Kelvin.  Pressure   1.00000 Atm.
 Atom     1 has atomic number  1 and mass   1.00783

 Molecular mass:    21.01405 amu.
 Principal axes and moments of inertia in atomic units:
                           1         2         3
     Eigenvalues --     0.00000  63.18576  63.18576
           X            1.00000  -0.00000   0.00000
           Y            0.00000   1.00000   0.00000
           Z            0.00000   0.00000   1.00000
 This molecule is a prolate symmetric top.
 Rotational symmetry number  1.
 Rotational temperature (Kelvin)      1.37078
 Rotational constant (GHZ):          28.562469
    2 imaginary frequencies ignored.
 Zero-point vibrational energy      42729.3 (Joules/Mol)
                                   10.21254 (Kcal/Mol)
 Warning -- explicit consideration of   1 degrees of freedom as
           vibrations may cause significant error
 Vibrational temperatures:    146.27 10132.03
          (Kelvin)

 Zero-point correction=                           0.016275 (Hartree/Particle)
 Thermal correction to Energy=                    0.019367
 Thermal correction to Enthalpy=                  0.020311
 Thermal correction to Gibbs Free Energy=        -0.004658
 Sum of electronic and zero-point Energies=           -100.899010
 Sum of electronic and thermal Energies=              -100.895918
 Sum of electronic and thermal Enthalpies=            -100.894974
 Sum of electronic and thermal Free Energies=         -100.919942

                     E (Thermal)             CV                S
                      KCal/Mol        Cal/Mol-Kelvin    Cal/Mol-Kelvin
 Total                   12.153              6.916             52.550
 Electronic               0.000              0.000              1.377
 Translational            0.889              2.981             35.068
 Rotational               0.592              1.987             12.683
 Vibrational             10.672              1.948              3.422
 Vibration     1          0.604              1.948              3.422

 Normal termination of Gaussian 16 at Fri Aug 22 18:37:32 2025.
