 Gaussian 16, Revision C.01,
 Gaussian 16:  ES64L-G16RevC.01  3-Jul-2019

 -----------------------------------------
 # sp b3lyp/6-311g** Force nosymm scf=(qc)
 -----------------------------------------

 -------------------
 Title Card Required
 -------------------
 Symbolic Z-matrix:
 Charge =  0 Multiplicity = 2

                          Input orientation:
 ---------------------------------------------------------------------
 Center     Atomic      Atomic             Coordinates (Angstroms)
 Number     Number       Type             X           Y           Z
 ---------------------------------------------------------------------
      1          1           0        0.000000    0.000000    0.000000
      2          1           0       -3.850000    0.000000    0.000000
      3          9           0        2.200000    0.000000    0.000000
 ---------------------------------------------------------------------

 SCF Done:  E(UB3LYP) =  -100.776185324     a.u. after   16 cycles

 Alpha  occ. eigenvalues --  -24.67113  -1.08647  -0.38435  -0.38435  -0.36776
 Alpha  occ. eigenvalues --   -0.32981
 Alpha virt. eigenvalues --   -0.21935   0.20667   0.27407   0.91268   0.95596
 Alpha virt. eigenvalues --    0.95596   1.08152   1.21504   1.21504   1.24492
 Alpha virt. eigenvalues --    1.24497   1.24497   1.42038   2.10086   2.15816

  Beta  occ. eigenvalues --  -24.69735  -1.16045  -0.48791  -0.41035  -0.41035
  Beta virt. eigenvalues --   -0.12480  -0.04516   0.30848   0.40054   0.88345
  Beta virt. eigenvalues --    0.94514   0.94514   1.05942   1.37584   1.37584
  Beta virt. eigenvalues --    1.48002   1.48002   1.48122   1.51865   2.31969

 Mulliken charges and spin densities:
               1          2
     1  H    0.144606   0.826302
     2  H    0.000446   0.999563
     3  F   -0.145052  -0.825865
 Sum of Mulliken charges =   0.00000   1.00000

 Dipole moment (field-independent basis, Debye):
    X=             -1.6065    Y=              0.0000    Z=             -0.0000  Tot=              1.6065
 Quadrupole moment (field-independent basis, Debye-Ang):
   XX=             -9.8788   YY=             -7.5186   ZZ=             -7.5186
   XY=             -0.0000   XZ=              0.0000   YZ=              0.0000

  Exact polarizability:      27.380      -0.000       2.041       0.000      -0.000       2.041
 Approx polarizability:      38.379      -0.000       1.929       0.000      -0.000       1.929

 ******    1 imaginary frequencies (negative Signs) ******

                      1                      2                      3
                      A                      A                      A
 Frequencies --   -856.0863                48.8125               359.6301
 Red. masses --      1.0588                 1.0528                 1.0259
 Frc consts  --      0.4572                 0.0015                 0.0782
 IR Inten    --    103.4265                 0.0337                20.1879

                      4
                      A
 Frequencies --    359.6301
 Red. masses --      1.0259
 Frc consts  --      0.0782
 IR Inten    --     20.1879

 - Thermochemistry -
 -------------------
 Temperature   298.150 Kelvin.  Pressure   1.00000 Atm.
 Atom     1 has atomic number  1 and mass   1.00783

 Molecular mass:    21.01405 amu.
 Principal axes and moments of inertia in atomic units:
                           1         2         3
     Eigenvalues --     0.00000 137.40385 137.40385
           X            1.00000  -0.00000   0.00000
           Y            0.00000   1.00000   0.00000
           Z            0.00000   0.00000   1.00000
 This molecule is a prolate symmetric top.
 Rotational symmetry number  1.
 Rotational temperature (Kelvin)      0.63036
 Rotational constant (GHZ):          13.134575
    1 imaginary frequencies ignored.
 Zero-point vibrational energy       4594.1 (Joules/Mol)
                                    1.09801 (Kcal/Mol)
 Warning -- explicit consideration of   3 degrees of freedom as
           vibrations may cause significant error
 Vibrational temperatures:     70.23   517.43   517.43
          (Kelvin)

 Zero-point correction=                           0.001750 (Hartree/Particle)
 Thermal correction to Energy=                    0.005649
 Thermal correction to Enthalpy=                  0.006593
 Thermal correction to Gibbs Free Energy=        -0.020862
 Sum of electronic and zero-point Energies=           -100.774436
 Sum of electronic and thermal Energies=              -100.770536
 Sum of electronic and thermal Enthalpies=            -100.769592
 Sum of electronic and thermal Free Energies=         -100.797047

                     E (Thermal)             CV                S
                      KCal/Mol        Cal/Mol-Kelvin    Cal/Mol-Kelvin
 Total                    3.545             10.057             57.784
 Electronic               0.000              0.000              1.377
 Translational            0.889              2.981             35.068
 Rotational               0.592              1.987             14.227
 Vibrational              2.064              5.089              7.112
 Vibration     1          0.595              1.978              4.865
 Vibration     2          0.734              1.555              1.124
 Vibration     3          0.734              1.555              1.124

 Normal termination of Gaussian 16 at Fri Aug 22 17:13:23 2025.
