 Gaussian 16, Revision C.01,
 Gaussian 16:  ES64L-G16RevC.01  3-Jul-2019

 -----------------------------------------
 # sp b3lyp/6-311g** Force nosymm scf=(qc)
 -----------------------------------------

 -------------------
 Title Card Required
 -------------------
 Symbolic Z-matrix:
 Charge =  0 Multiplicity = 2

                          Input orientation:
 ---------------------------------------------------------------------
 Center     Atomic      Atomic             Coordinates (Angstroms)
 Number     Number       Type             X           Y           Z
 ---------------------------------------------------------------------
      1          1           0        0.000000    0.000000    0.000000
      2          1           0       -3.800000    0.000000    0.000000
      3          9           0        2.000000    0.000000    0.000000
 ---------------------------------------------------------------------

 SCF Done:  E(UB3LYP) =  -100.787117021     a.u. after   17 cycles

 Alpha  occ. eigenvalues --  -24.68249  -1.14567  -0.47227  -0.39780  -0.39780
 Alpha  occ. eigenvalues --   -0.33250
 Alpha virt. eigenvalues --   -0.13751   0.22380   0.31605   0.88860   0.94841
 Alpha virt. eigenvalues --    0.94841   1.05626   1.24256   1.24256   1.24265
 Alpha virt. eigenvalues --    1.35456   1.35456   1.60473   2.13707   2.29539

  Beta  occ. eigenvalues --  -24.65877  -1.07938  -0.37947  -0.37442  -0.37442
  Beta virt. eigenvalues --   -0.20748  -0.06486   0.22415   0.38033   0.90180
  Beta virt. eigenvalues --    0.95475   0.95475   1.08078   1.21943   1.21943
  Beta virt. eigenvalues --    1.46064   1.46380   1.46380   1.53330   2.11556

 Mulliken charges and spin densities:
               1          2
     1  H    0.193013  -0.744777
     2  H    0.000752   0.998903
     3  F   -0.193765   0.745873
 Sum of Mulliken charges =   0.00000   1.00000

 Dipole moment (field-independent basis, Debye):
    X=             -1.9282    Y=              0.0000    Z=             -0.0000  Tot=              1.9282
 Quadrupole moment (field-independent basis, Debye-Ang):
   XX=            -10.0821   YY=             -7.4865   ZZ=             -7.4865
   XY=             -0.0000   XZ=              0.0000   YZ=             -0.0000

  Exact polarizability:      25.076      -0.000       2.062       0.000      -0.000       2.062
 Approx polarizability:      36.758      -0.000       1.947       0.000       0.000       1.947

 ******    2 imaginary frequencies (negative Signs) ******

                      1                      2                      3
                      A                      A                      A
 Frequencies --  -1128.5957               -83.7960               481.3717
 Red. masses --      1.0577                 1.0539                 1.0272
 Frc consts  --      0.7937                 0.0044                 0.1402
 IR Inten    --    122.6383                 0.0730                35.4152

                      4
                      A
 Frequencies --    481.3717
 Red. masses --      1.0272
 Frc consts  --      0.1402
 IR Inten    --     35.4152

 - Thermochemistry -
 -------------------
 Temperature   298.150 Kelvin.  Pressure   1.00000 Atm.
 Atom     1 has atomic number  1 and mass   1.00783

 Molecular mass:    21.01405 amu.
 Principal axes and moments of inertia in atomic units:
                           1         2         3
     Eigenvalues --     0.00000 124.96528 124.96528
           X            1.00000  -0.00000   0.00000
           Y            0.00000   1.00000   0.00000
           Z            0.00000   0.00000   1.00000
 This molecule is a prolate symmetric top.
 Rotational symmetry number  1.
 Rotational temperature (Kelvin)      0.69310
 Rotational constant (GHZ):          14.441941
    2 imaginary frequencies ignored.
 Zero-point vibrational energy       5758.5 (Joules/Mol)
                                    1.37631 (Kcal/Mol)
 Warning -- explicit consideration of   2 degrees of freedom as
           vibrations may cause significant error
 Vibrational temperatures:    692.59   692.59
          (Kelvin)

 Zero-point correction=                           0.002193 (Hartree/Particle)
 Thermal correction to Energy=                    0.005030
 Thermal correction to Enthalpy=                  0.005974
 Thermal correction to Gibbs Free Energy=        -0.018683
 Sum of electronic and zero-point Energies=           -100.784924
 Sum of electronic and thermal Energies=              -100.782087
 Sum of electronic and thermal Enthalpies=            -100.781143
 Sum of electronic and thermal Free Energies=         -100.805800

                     E (Thermal)             CV                S
                      KCal/Mol        Cal/Mol-Kelvin    Cal/Mol-Kelvin
 Total                    3.157              7.551             51.896
 Electronic               0.000              0.000              1.377
 Translational            0.889              2.981             35.068
 Rotational               0.592              1.987             14.038
 Vibrational              1.675              2.583              1.413
 Vibration     1          0.838              1.291              0.706
 Vibration     2          0.838              1.291              0.706

 Normal termination of Gaussian 16 at Fri Aug 22 16:58:04 2025.
