 Gaussian 16, Revision C.01,
 Gaussian 16:  ES64L-G16RevC.01  3-Jul-2019

 -----------------------------------------
 # sp b3lyp/6-311g** Force nosymm scf=(qc)
 -----------------------------------------

 -------------------
 Title Card Required
 -------------------
 Symbolic Z-matrix:
 Charge =  0 Multiplicity = 2

                          Input orientation:
 ---------------------------------------------------------------------
 Center     Atomic      Atomic             Coordinates (Angstroms)
 Number     Number       Type             X           Y           Z
 ---------------------------------------------------------------------
      1          1           0        0.000000    0.000000    0.000000
      2          1           0       -1.000000    0.000000    0.000000
      3          9           0        3.000000    0.000000    0.000000
 ---------------------------------------------------------------------

 SCF Done:  E(UB3LYP) =  -100.906742777     a.u. after    8 cycles

 Alpha  occ. eigenvalues --  -24.76150  -1.22050  -0.55280  -0.46419  -0.46419
 Alpha  occ. eigenvalues --   -0.39288
 Alpha virt. eigenvalues --    0.00089   0.21205   0.38478   0.89551   0.90961
 Alpha virt. eigenvalues --    0.90961   1.04637   1.08804   1.08804   1.37223
 Alpha virt. eigenvalues --    1.65451   1.65451   2.22975   2.36434   2.58668

  Beta  occ. eigenvalues --  -24.73011  -1.13022  -0.43272  -0.43272  -0.39257
  Beta virt. eigenvalues --   -0.26151   0.00256   0.21335   0.38850   0.92451
  Beta virt. eigenvalues --    0.92451   0.98310   1.08853   1.08853   1.08925
  Beta virt. eigenvalues --    1.37285   1.65490   1.65490   2.23089   2.36501

 Mulliken charges and spin densities:
               1          2
     1  H   -0.009432  -0.004800
     2  H    0.009926   0.010148
     3  F   -0.000494   0.994652
 Sum of Mulliken charges =   0.00000   1.00000

 Dipole moment (field-independent basis, Debye):
    X=             -0.0633    Y=              0.0000    Z=              0.0000  Tot=              0.0633
 Quadrupole moment (field-independent basis, Debye-Ang):
   XX=             -5.5413   YY=             -7.2706   ZZ=             -7.2706
   XY=              0.0000   XZ=              0.0000   YZ=              0.0000

  Exact polarizability:      15.784      -0.000       2.060       0.000      -0.000       2.060
 Approx polarizability:      19.201      -0.000       2.113      -0.000      -0.000       2.113

 ******    1 imaginary frequencies (negative Signs) ******

                      1                      2                      3
                      A                      A                      A
 Frequencies --    -86.9593              1533.0339              1533.0339
 Red. masses --      1.1085                 1.0098                 1.0098
 Frc consts  --      0.0049                 1.3983                 1.3983
 IR Inten    --      0.8122                 0.0965                 0.0965

                      4
                      A
 Frequencies --   1779.7698
 Red. masses --      1.0078
 Frc consts  --      1.8809
 IR Inten    --      9.3931

 - Thermochemistry -
 -------------------
 Temperature   298.150 Kelvin.  Pressure   1.00000 Atm.
 Atom     1 has atomic number  1 and mass   1.00783

 Molecular mass:    21.01405 amu.
 Principal axes and moments of inertia in atomic units:
                           1         2         3
     Eigenvalues --     0.00000  81.51747  81.51747
           X            1.00000  -0.00000   0.00000
           Y            0.00000   1.00000   0.00000
           Z            0.00000   0.00000   1.00000
 This molecule is a prolate symmetric top.
 Rotational symmetry number  1.
 Rotational temperature (Kelvin)      1.06252
 Rotational constant (GHZ):          22.139317
    1 imaginary frequencies ignored.
 Zero-point vibrational energy      28984.5 (Joules/Mol)
                                    6.92747 (Kcal/Mol)
 Vibrational temperatures:   2205.69  2205.69  2560.69
          (Kelvin)

 Zero-point correction=                           0.011040 (Hartree/Particle)
 Thermal correction to Energy=                    0.013410
 Thermal correction to Enthalpy=                  0.014354
 Thermal correction to Gibbs Free Energy=        -0.009240
 Sum of electronic and zero-point Energies=           -100.895703
 Sum of electronic and thermal Energies=              -100.893333
 Sum of electronic and thermal Enthalpies=            -100.892388
 Sum of electronic and thermal Free Energies=         -100.915983

                     E (Thermal)             CV                S
                      KCal/Mol        Cal/Mol-Kelvin    Cal/Mol-Kelvin
 Total                    8.415              5.129             49.658
 Electronic               0.000              0.000              1.377
 Translational            0.889              2.981             35.068
 Rotational               0.592              1.987             13.189
 Vibrational              6.934              0.161              0.024

 Normal termination of Gaussian 16 at Fri Aug 22 19:24:00 2025.
