 Gaussian 16, Revision C.01,
 Gaussian 16:  ES64L-G16RevC.01  3-Jul-2019

 -----------------------------------------
 # sp b3lyp/6-311g** Force nosymm scf=(qc)
 -----------------------------------------

 -------------------
 Title Card Required
 -------------------
 Symbolic Z-matrix:
 Charge =  0 Multiplicity = 2

                          Input orientation:
 ---------------------------------------------------------------------
 Center     Atomic      Atomic             Coordinates (Angstroms)
 Number     Number       Type             X           Y           Z
 ---------------------------------------------------------------------
      1          1           0        0.000000    0.000000    0.000000
      2          1           0       -3.700000    0.000000    0.000000
      3          9           0        1.450000    0.000000    0.000000
 ---------------------------------------------------------------------

 SCF Done:  E(UB3LYP) =  -100.865777862     a.u. after    8 cycles

 Alpha  occ. eigenvalues --  -24.64369  -1.09958  -0.43876  -0.36565  -0.36565
 Alpha  occ. eigenvalues --   -0.33790
 Alpha virt. eigenvalues --   -0.13250   0.20513   0.27563   0.93269   0.93269
 Alpha virt. eigenvalues --    1.03520   1.12110   1.23706   1.23720   1.23720
 Alpha virt. eigenvalues --    1.31891   1.31891   1.72282   2.13106   2.19982

  Beta  occ. eigenvalues --  -24.64358  -1.09928  -0.43849  -0.36554  -0.36554
  Beta virt. eigenvalues --   -0.13454  -0.06278   0.23462   0.38341   0.93265
  Beta virt. eigenvalues --    0.93265   1.03549   1.12127   1.31842   1.31842
  Beta virt. eigenvalues --    1.46251   1.46653   1.46653   1.72290   2.19096

 Mulliken charges and spin densities:
               1          2
     1  H    0.353429  -0.002527
     2  H    0.001079   0.998859
     3  F   -0.354508   0.003669
 Sum of Mulliken charges =   0.00000   1.00000

 Dipole moment (field-independent basis, Debye):
    X=             -2.5569    Y=              0.0000    Z=             -0.0000  Tot=              2.5569
 Quadrupole moment (field-independent basis, Debye-Ang):
   XX=             -9.7511   YY=             -7.2933   ZZ=             -7.2933
   XY=              0.0000   XZ=             -0.0000   YZ=              0.0000

  Exact polarizability:      13.980       0.000       2.209      -0.000      -0.000       2.209
 Approx polarizability:      25.238      -0.000       2.138      -0.000      -0.000       2.138

 ******    2 imaginary frequencies (negative Signs) ******

                      1                      2                      3
                      A                      A                      A
 Frequencies --  -1098.0025               -59.4511              1057.5039
 Red. masses --      1.0578                 1.0537                 1.0320
 Frc consts  --      0.7514                 0.0022                 0.6800
 IR Inten    --     44.3881                 0.0802               123.1123

                      4
                      A
 Frequencies --   1057.5039
 Red. masses --      1.0320
 Frc consts  --      0.6800
 IR Inten    --    123.1123

 - Thermochemistry -
 -------------------
 Temperature   298.150 Kelvin.  Pressure   1.00000 Atm.
 Atom     1 has atomic number  1 and mass   1.00783

 Molecular mass:    21.01405 amu.
 Principal axes and moments of inertia in atomic units:
                           1         2         3
     Eigenvalues --     0.00000  95.50286  95.50286
           X            1.00000  -0.00000   0.00000
           Y            0.00000   1.00000   0.00000
           Z            0.00000   0.00000   1.00000
 This molecule is a prolate symmetric top.
 Rotational symmetry number  1.
 Rotational temperature (Kelvin)      0.90692
 Rotational constant (GHZ):          18.897247
    2 imaginary frequencies ignored.
 Zero-point vibrational energy      12650.6 (Joules/Mol)
                                    3.02356 (Kcal/Mol)
 Vibrational temperatures:   1521.51  1521.51
          (Kelvin)

 Zero-point correction=                           0.004818 (Hartree/Particle)
 Thermal correction to Energy=                    0.007238
 Thermal correction to Enthalpy=                  0.008182
 Thermal correction to Gibbs Free Energy=        -0.015621
 Sum of electronic and zero-point Energies=           -100.860960
 Sum of electronic and thermal Energies=              -100.858540
 Sum of electronic and thermal Enthalpies=            -100.857596
 Sum of electronic and thermal Free Energies=         -100.881399

                     E (Thermal)             CV                S
                      KCal/Mol        Cal/Mol-Kelvin    Cal/Mol-Kelvin
 Total                    4.542              5.605             50.097
 Electronic               0.000              0.000              1.377
 Translational            0.889              2.981             35.068
 Rotational               0.592              1.987             13.504
 Vibrational              3.061              0.637              0.148

 Normal termination of Gaussian 16 at Fri Aug 22 16:24:00 2025.
