 Gaussian 16, Revision C.01,
 Gaussian 16:  ES64L-G16RevC.01  3-Jul-2019

 -----------------------------------------
 # sp b3lyp/6-311g** Force nosymm scf=(qc)
 -----------------------------------------

 -------------------
 Title Card Required
 -------------------
 Symbolic Z-matrix:
 Charge =  0 Multiplicity = 2

                          Input orientation:
 ---------------------------------------------------------------------
 Center     Atomic      Atomic             Coordinates (Angstroms)
 Number     Number       Type             X           Y           Z
 ---------------------------------------------------------------------
      1          1           0        0.000000    0.000000    0.000000
      2          1           0       -1.000000    0.000000    0.000000
      3          9           0        0.800000    0.000000    0.000000
 ---------------------------------------------------------------------

 SCF Done:  E(UB3LYP) =  -100.920725602     a.u. after    6 cycles

 Alpha  occ. eigenvalues --  -24.64791  -1.25090  -0.61486  -0.41795  -0.41795
 Alpha  occ. eigenvalues --   -0.35058
 Alpha virt. eigenvalues --    0.15557   0.18880   0.59098   0.89916   0.89916
 Alpha virt. eigenvalues --    0.95055   1.08603   1.08603   1.45407   1.64067
 Alpha virt. eigenvalues --    1.64067   1.76034   2.05801   2.35419   3.45045

  Beta  occ. eigenvalues --  -24.64216  -1.23535  -0.57920  -0.41303  -0.41303
  Beta virt. eigenvalues --   -0.15149   0.16674   0.23672   0.64753   0.91478
  Beta virt. eigenvalues --    0.91478   0.96224   1.15307   1.15307   1.46798
  Beta virt. eigenvalues --    1.69762   1.69762   1.86626   2.07632   2.49609

 Mulliken charges and spin densities:
               1          2
     1  H    0.260696  -0.005212
     2  H   -0.008407   0.887517
     3  F   -0.252289   0.117695
 Sum of Mulliken charges =   0.00000   1.00000

 Dipole moment (field-independent basis, Debye):
    X=             -1.5364    Y=              0.0000    Z=             -0.0000  Tot=              1.5364
 Quadrupole moment (field-independent basis, Debye-Ang):
   XX=             -7.4788   YY=             -6.5588   ZZ=             -6.5588
   XY=              0.0000   XZ=              0.0000   YZ=              0.0000

  Exact polarizability:       9.941       0.000       2.579       0.000       0.000       2.579
 Approx polarizability:      10.312      -0.000       2.625       0.000       0.000       2.625

 ******    2 imaginary frequencies (negative Signs) ******

                      1                      2                      3
                      A                      A                      A
 Frequencies --  -2253.6716             -2253.6716              1845.8241
 Red. masses --      1.0209                 1.0209                 1.0556
 Frc consts  --      3.0549                 3.0549                 2.1189
 IR Inten    --     98.7465                98.7465                66.8277

                      4
                      A
 Frequencies --   6151.5248
 Red. masses --      1.0560
 Frc consts  --     23.5435
 IR Inten    --     75.2273

 - Thermochemistry -
 -------------------
 Temperature   298.150 Kelvin.  Pressure   1.00000 Atm.
 Atom     1 has atomic number  1 and mass   1.00783

 Molecular mass:    21.01405 amu.
 Principal axes and moments of inertia in atomic units:
                           1         2         3
     Eigenvalues --     0.00000  12.79733  12.79733
           X            1.00000  -0.00000   0.00000
           Y            0.00000   1.00000   0.00000
           Z            0.00000   0.00000   1.00000
 This molecule is a prolate symmetric top.
 Rotational symmetry number  1.
 Rotational temperature (Kelvin)      6.76812
 Rotational constant (GHZ):         141.024819
    2 imaginary frequencies ignored.
 Zero-point vibrational energy      47834.8 (Joules/Mol)
                                   11.43278 (Kcal/Mol)
 Vibrational temperatures:   2655.73  8850.67
          (Kelvin)

 Zero-point correction=                           0.018219 (Hartree/Particle)
 Thermal correction to Energy=                    0.020581
 Thermal correction to Enthalpy=                  0.021525
 Thermal correction to Gibbs Free Energy=        -0.000311
 Sum of electronic and zero-point Energies=           -100.902506
 Sum of electronic and thermal Energies=              -100.900145
 Sum of electronic and thermal Enthalpies=            -100.899201
 Sum of electronic and thermal Free Energies=         -100.921036

                     E (Thermal)             CV                S
                      KCal/Mol        Cal/Mol-Kelvin    Cal/Mol-Kelvin
 Total                   12.915              4.989             45.958
 Electronic               0.000              0.000              1.377
 Translational            0.889              2.981             35.068
 Rotational               0.592              1.987              9.510
 Vibrational             11.433              0.021              0.003

 Normal termination of Gaussian 16 at Fri Aug 22 15:50:24 2025.
