 Gaussian 16, Revision C.01,
 Gaussian 16:  ES64L-G16RevC.01  3-Jul-2019

 -----------------------------------------
 # sp b3lyp/6-311g** Force nosymm scf=(qc)
 -----------------------------------------

 -------------------
 Title Card Required
 -------------------
 Symbolic Z-matrix:
 Charge =  0 Multiplicity = 2

                          Input orientation:
 ---------------------------------------------------------------------
 Center     Atomic      Atomic             Coordinates (Angstroms)
 Number     Number       Type             X           Y           Z
 ---------------------------------------------------------------------
      1          1           0        0.000000    0.000000    0.000000
      2          1           0       -3.100000    0.000000    0.000000
      3          9           0        3.600000    0.000000    0.000000
 ---------------------------------------------------------------------

 SCF Done:  E(UB3LYP) =  -100.759569868     a.u. after   32 cycles

 Alpha  occ. eigenvalues --  -24.75548  -1.21499  -0.54672  -0.45903  -0.45903
 Alpha  occ. eigenvalues --   -0.32388
 Alpha virt. eigenvalues --   -0.07695   0.24826   0.36383   0.87315   0.91379
 Alpha virt. eigenvalues --    0.91379   1.01580   1.25138   1.25138   1.25683
 Alpha virt. eigenvalues --    1.44268   1.44388   1.44388   2.15617   2.39890

  Beta  occ. eigenvalues --  -24.72424  -1.12520  -0.42772  -0.42772  -0.32754
  Beta virt. eigenvalues --   -0.25568  -0.07251   0.24610   0.37087   0.92871
  Beta virt. eigenvalues --    0.92871   0.96526   1.05631   1.24720   1.24720
  Beta virt. eigenvalues --    1.25235   1.44960   1.45092   1.45092   2.15827

 Mulliken charges and spin densities:
               1          2
     1  H    0.008132  -0.984696
     2  H    0.000420   0.994164
     3  F   -0.008552   0.990532
 Sum of Mulliken charges =  -0.00000   1.00000

 Dipole moment (field-independent basis, Debye):
    X=             -0.1647    Y=              0.0000    Z=              0.0000  Tot=              0.1647
 Quadrupole moment (field-independent basis, Debye-Ang):
   XX=             -7.2016   YY=             -7.6317   ZZ=             -7.6317
   XY=              0.0000   XZ=              0.0000   YZ=             -0.0000

  Exact polarizability:      22.714      -0.000       2.043       0.000      -0.000       2.043
 Approx polarizability:      17.212       0.000       1.933       0.000      -0.000       1.933

 ******    2 imaginary frequencies (negative Signs) ******

                      1                      2                      3
                      A                      A                      A
 Frequencies --   -317.3812              -116.3267               102.6748
 Red. masses --      1.0111                 1.1046                 1.0162
 Frc consts  --      0.0600                 0.0088                 0.0063
 IR Inten    --      5.2976                 2.7904                 0.0460

                      4
                      A
 Frequencies --    102.6750
 Red. masses --      1.0162
 Frc consts  --      0.0063
 IR Inten    --      0.0460

 - Thermochemistry -
 -------------------
 Temperature   298.150 Kelvin.  Pressure   1.00000 Atm.
 Atom     1 has atomic number  1 and mass   1.00783

 Molecular mass:    21.01405 amu.
 Principal axes and moments of inertia in atomic units:
                           1         2         3
     Eigenvalues --     0.00000 189.89078 189.89078
           X            1.00000  -0.00000   0.00000
           Y            0.00000   1.00000   0.00000
           Z            0.00000   0.00000   1.00000
 This molecule is a prolate symmetric top.
 Rotational symmetry number  1.
 Rotational temperature (Kelvin)      0.45612
 Rotational constant (GHZ):           9.504101
    2 imaginary frequencies ignored.
 Zero-point vibrational energy       1228.3 (Joules/Mol)
                                    0.29356 (Kcal/Mol)
 Warning -- explicit consideration of   2 degrees of freedom as
           vibrations may cause significant error
 Vibrational temperatures:    147.73   147.73
          (Kelvin)

 Zero-point correction=                           0.000468 (Hartree/Particle)
 Thermal correction to Energy=                    0.004287
 Thermal correction to Enthalpy=                  0.005231
 Thermal correction to Gibbs Free Energy=        -0.022384
 Sum of electronic and zero-point Energies=           -100.759102
 Sum of electronic and thermal Energies=              -100.755283
 Sum of electronic and thermal Enthalpies=            -100.754338
 Sum of electronic and thermal Free Energies=         -100.781953

                     E (Thermal)             CV                S
                      KCal/Mol        Cal/Mol-Kelvin    Cal/Mol-Kelvin
 Total                    2.690              8.862             58.121
 Electronic               0.000              0.000              1.377
 Translational            0.889              2.981             35.068
 Rotational               0.592              1.987             14.869
 Vibrational              1.209              3.894              6.806
 Vibration     1          0.605              1.947              3.403
 Vibration     2          0.605              1.947              3.403

 Normal termination of Gaussian 16 at Fri Aug 22 23:07:18 2025.
