 Gaussian 16, Revision C.01,
 Gaussian 16:  ES64L-G16RevC.01  3-Jul-2019

 -----------------------------------------
 # sp b3lyp/6-311g** Force nosymm scf=(qc)
 -----------------------------------------

 -------------------
 Title Card Required
 -------------------
 Symbolic Z-matrix:
 Charge =  0 Multiplicity = 2

                          Input orientation:
 ---------------------------------------------------------------------
 Center     Atomic      Atomic             Coordinates (Angstroms)
 Number     Number       Type             X           Y           Z
 ---------------------------------------------------------------------
      1          1           0        0.000000    0.000000    0.000000
      2          1           0       -1.450000    0.000000    0.000000
      3          9           0        1.450000    0.000000    0.000000
 ---------------------------------------------------------------------

 SCF Done:  E(UB3LYP) =  -100.887929257     a.u. after   12 cycles

 Alpha  occ. eigenvalues --  -24.64786  -1.11680  -0.47887  -0.38522  -0.37212
 Alpha  occ. eigenvalues --   -0.37212
 Alpha virt. eigenvalues --   -0.05131   0.20589   0.29143   0.93198   0.93198
 Alpha virt. eigenvalues --    0.99023   1.03333   1.14162   1.14162   1.41874
 Alpha virt. eigenvalues --    1.41874   1.50863   1.87965   2.19415   2.43388

  Beta  occ. eigenvalues --  -24.63441  -1.08098  -0.42276  -0.35930  -0.35930
  Beta virt. eigenvalues --   -0.21684  -0.01685   0.23841   0.30654   0.93335
  Beta virt. eigenvalues --    0.93335   1.04179   1.06225   1.20913   1.20913
  Beta virt. eigenvalues --    1.44003   1.44003   1.55297   1.92544   2.24023

 Mulliken charges and spin densities:
               1          2
     1  H    0.250981  -0.177344
     2  H    0.071265   0.762966
     3  F   -0.322246   0.414378
 Sum of Mulliken charges =   0.00000   1.00000

 Dipole moment (field-independent basis, Debye):
    X=             -2.8108    Y=              0.0000    Z=              0.0000  Tot=              2.8108
 Quadrupole moment (field-independent basis, Debye-Ang):
   XX=             -8.1268   YY=             -7.1806   ZZ=             -7.1806
   XY=             -0.0000   XZ=             -0.0000   YZ=              0.0000

  Exact polarizability:      32.716      -0.000       2.333      -0.000       0.000       2.333
 Approx polarizability:      47.148      -0.000       2.282      -0.000      -0.000       2.282

 ******    2 imaginary frequencies (negative Signs) ******

                      1                      2                      3
                      A                      A                      A
 Frequencies --  -2631.7142              -308.7555              1093.5442
 Red. masses --      1.0233                 1.0904                 1.0179
 Frc consts  --      4.1757                 0.0612                 0.7172
 IR Inten    --    259.7245                12.4107                30.4683

                      4
                      A
 Frequencies --   1093.5442
 Red. masses --      1.0179
 Frc consts  --      0.7172
 IR Inten    --     30.4683

 - Thermochemistry -
 -------------------
 Temperature   298.150 Kelvin.  Pressure   1.00000 Atm.
 Atom     1 has atomic number  1 and mass   1.00783

 Molecular mass:    21.01405 amu.
 Principal axes and moments of inertia in atomic units:
                           1         2         3
     Eigenvalues --     0.00000  34.56842  34.56842
           X            1.00000  -0.00000   0.00000
           Y            0.00000   1.00000   0.00000
           Z            0.00000   0.00000   1.00000
 This molecule is a prolate symmetric top.
 Rotational symmetry number  1.
 Rotational temperature (Kelvin)      2.50558
 Rotational constant (GHZ):          52.207797
    2 imaginary frequencies ignored.
 Zero-point vibrational energy      13081.7 (Joules/Mol)
                                    3.12660 (Kcal/Mol)
 Vibrational temperatures:   1573.37  1573.37
          (Kelvin)

 Zero-point correction=                           0.004983 (Hartree/Particle)
 Thermal correction to Energy=                    0.007394
 Thermal correction to Enthalpy=                  0.008338
 Thermal correction to Gibbs Free Energy=        -0.014495
 Sum of electronic and zero-point Energies=           -100.882947
 Sum of electronic and thermal Energies=              -100.880535
 Sum of electronic and thermal Enthalpies=            -100.879591
 Sum of electronic and thermal Free Energies=         -100.902425

                     E (Thermal)             CV                S
                      KCal/Mol        Cal/Mol-Kelvin    Cal/Mol-Kelvin
 Total                    4.640              5.539             48.058
 Electronic               0.000              0.000              1.377
 Translational            0.889              2.981             35.068
 Rotational               0.592              1.987             11.484
 Vibrational              3.159              0.571              0.128

 Normal termination of Gaussian 16 at Fri Aug 22 16:22:19 2025.
