 Gaussian 16, Revision C.01,
 Gaussian 16:  ES64L-G16RevC.01  3-Jul-2019

 -----------------------------------------
 # sp b3lyp/6-311g** Force nosymm scf=(qc)
 -----------------------------------------

 -------------------
 Title Card Required
 -------------------
 Symbolic Z-matrix:
 Charge =  0 Multiplicity = 2

                          Input orientation:
 ---------------------------------------------------------------------
 Center     Atomic      Atomic             Coordinates (Angstroms)
 Number     Number       Type             X           Y           Z
 ---------------------------------------------------------------------
      1          1           0        0.000000    0.000000    0.000000
      2          1           0       -0.700000    0.000000    0.000000
      3          9           0        0.600000    0.000000    0.000000
 ---------------------------------------------------------------------

 SCF Done:  E(UB3LYP) =  -100.543358537     a.u. after    6 cycles

 Alpha  occ. eigenvalues --  -24.68213  -1.44372  -0.71383  -0.48226  -0.48226
 Alpha  occ. eigenvalues --   -0.28627
 Alpha virt. eigenvalues --    0.16794   0.19355   0.83761   0.84553   0.84553
 Alpha virt. eigenvalues --    0.94918   1.10743   1.10743   1.41981   1.59714
 Alpha virt. eigenvalues --    1.93591   1.93591   2.15641   3.07834   3.72763

  Beta  occ. eigenvalues --  -24.67491  -1.41954  -0.68410  -0.47631  -0.47631
  Beta virt. eigenvalues --   -0.09501   0.17407   0.25457   0.85481   0.86125
  Beta virt. eigenvalues --    0.86125   0.99468   1.16754   1.16754   1.44718
  Beta virt. eigenvalues --    1.64796   1.99295   1.99295   2.23714   3.16030

 Mulliken charges and spin densities:
               1          2
     1  H    0.269012  -0.062170
     2  H   -0.127417   0.987596
     3  F   -0.141595   0.074574
 Sum of Mulliken charges =   0.00000   1.00000

 Dipole moment (field-independent basis, Debye):
    X=             -0.4294    Y=             -0.0000    Z=             -0.0000  Tot=              0.4294
 Quadrupole moment (field-independent basis, Debye-Ang):
   XX=             -7.5261   YY=             -6.4291   ZZ=             -6.4291
   XY=             -0.0000   XZ=             -0.0000   YZ=              0.0000

  Exact polarizability:       7.586      -0.000       2.451       0.000       0.000       2.451
 Approx polarizability:       7.349      -0.000       2.549       0.000       0.000       2.549

 ******    2 imaginary frequencies (negative Signs) ******

                      1                      2                      3
                      A                      A                      A
 Frequencies --  -6151.3585             -6151.3585              4111.4547
 Red. masses --      1.0199                 1.0199                 1.0607
 Frc consts  --     22.7383                22.7383                10.5637
 IR Inten    --    152.7503               152.7503               321.7955

                      4
                      A
 Frequencies --  13344.2027
 Red. masses --      1.0509
 Frc consts  --    110.2580
 IR Inten    --     23.8653

 - Thermochemistry -
 -------------------
 Temperature   298.150 Kelvin.  Pressure   1.00000 Atm.
 Atom     1 has atomic number  1 and mass   1.00783

 Molecular mass:    21.01405 amu.
 Principal axes and moments of inertia in atomic units:
                           1         2         3
     Eigenvalues --     0.00000   6.75486   6.75486
           X            1.00000  -0.00000   0.00000
           Y            0.00000   1.00000   0.00000
           Z            0.00000   0.00000   1.00000
 This molecule is a prolate symmetric top.
 Rotational symmetry number  1.
 Rotational temperature (Kelvin)     12.82247
 Rotational constant (GHZ):         267.176837
    2 imaginary frequencies ignored.
 Zero-point vibrational energy     104408.0 (Joules/Mol)
                                   24.95412 (Kcal/Mol)
 Vibrational temperatures:   5915.47 19199.33
          (Kelvin)

 Zero-point correction=                           0.039767 (Hartree/Particle)
 Thermal correction to Energy=                    0.042127
 Thermal correction to Enthalpy=                  0.043072
 Thermal correction to Gibbs Free Energy=         0.021840
 Sum of electronic and zero-point Energies=           -100.503592
 Sum of electronic and thermal Energies=              -100.501231
 Sum of electronic and thermal Enthalpies=            -100.500287
 Sum of electronic and thermal Free Energies=         -100.521518

                     E (Thermal)             CV                S
                      KCal/Mol        Cal/Mol-Kelvin    Cal/Mol-Kelvin
 Total                   26.435              4.968             44.685
 Electronic               0.000              0.000              1.377
 Translational            0.889              2.981             35.068
 Rotational               0.592              1.987              8.240
 Vibrational             24.954              0.000              0.000

 Normal termination of Gaussian 16 at Fri Aug 22 15:40:47 2025.
