 Gaussian 16, Revision C.01,
 Gaussian 16:  ES64L-G16RevC.01  3-Jul-2019

 -----------------------------------------
 # sp b3lyp/6-311g** Force nosymm scf=(qc)
 -----------------------------------------

 -------------------
 Title Card Required
 -------------------
 Symbolic Z-matrix:
 Charge =  0 Multiplicity = 2

                          Input orientation:
 ---------------------------------------------------------------------
 Center     Atomic      Atomic             Coordinates (Angstroms)
 Number     Number       Type             X           Y           Z
 ---------------------------------------------------------------------
      1          1           0        0.000000    0.000000    0.000000
      2          1           0       -0.500000    0.000000    0.000000
      3          9           0        1.300000    0.000000    0.000000
 ---------------------------------------------------------------------

 SCF Done:  E(UB3LYP) =  -100.847728732     a.u. after    5 cycles

 Alpha  occ. eigenvalues --  -24.70689  -1.19133  -0.63087  -0.42939  -0.42939
 Alpha  occ. eigenvalues --   -0.41914
 Alpha virt. eigenvalues --    0.12863   0.19132   0.59597   0.87500   0.87500
 Alpha virt. eigenvalues --    0.95238   1.13997   1.13997   1.49767   1.62113
 Alpha virt. eigenvalues --    1.84798   1.95977   1.95977   2.48267   3.77880

  Beta  occ. eigenvalues --  -24.68031  -1.12088  -0.55276  -0.40412  -0.40412
  Beta virt. eigenvalues --   -0.20861   0.13841   0.19745   0.62567   0.88831
  Beta virt. eigenvalues --    0.88831   1.01081   1.16427   1.16427   1.53597
  Beta virt. eigenvalues --    1.65576   1.85878   1.97717   1.97717   2.52406

 Mulliken charges and spin densities:
               1          2
     1  H    0.192311  -0.014710
     2  H   -0.036143   0.250181
     3  F   -0.156168   0.764528
 Sum of Mulliken charges =   0.00000   1.00000

 Dipole moment (field-independent basis, Debye):
    X=             -0.9987    Y=              0.0000    Z=             -0.0000  Tot=              0.9987
 Quadrupole moment (field-independent basis, Debye-Ang):
   XX=             -6.8026   YY=             -6.4198   ZZ=             -6.4198
   XY=              0.0000   XZ=             -0.0000   YZ=             -0.0000

  Exact polarizability:      12.622       0.000       2.304      -0.000       0.000       2.304
 Approx polarizability:      14.893       0.000       2.368      -0.000       0.000       2.368

 ******    2 imaginary frequencies (negative Signs) ******

                      1                      2                      3
                      A                      A                      A
 Frequencies --  -4990.6409             -4990.6409              1071.8469
 Red. masses --      1.0104                 1.0104                 1.1085
 Frc consts  --     14.8270                14.8270                 0.7503
 IR Inten    --      0.6921                 0.6921                40.2676

                      4
                      A
 Frequencies --   9768.0844
 Red. masses --      1.0078
 Frc consts  --     56.6577
 IR Inten    --    397.3218

 - Thermochemistry -
 -------------------
 Temperature   298.150 Kelvin.  Pressure   1.00000 Atm.
 Atom     1 has atomic number  1 and mass   1.00783

 Molecular mass:    21.01405 amu.
 Principal axes and moments of inertia in atomic units:
                           1         2         3
     Eigenvalues --     0.00000  16.08436  16.08436
           X            1.00000  -0.00000   0.00000
           Y            0.00000   1.00000   0.00000
           Z            0.00000   0.00000   1.00000
 This molecule is a prolate symmetric top.
 Rotational symmetry number  1.
 Rotational temperature (Kelvin)      5.38498
 Rotational constant (GHZ):         112.204728
    2 imaginary frequencies ignored.
 Zero-point vibrational energy      64837.2 (Joules/Mol)
                                   15.49646 (Kcal/Mol)
 Vibrational temperatures:   1542.15 14054.09
          (Kelvin)

 Zero-point correction=                           0.024695 (Hartree/Particle)
 Thermal correction to Energy=                    0.027083
 Thermal correction to Enthalpy=                  0.028028
 Thermal correction to Gibbs Free Energy=         0.005944
 Sum of electronic and zero-point Energies=           -100.823034
 Sum of electronic and thermal Energies=              -100.820645
 Sum of electronic and thermal Enthalpies=            -100.819701
 Sum of electronic and thermal Free Energies=         -100.841785

                     E (Thermal)             CV                S
                      KCal/Mol        Cal/Mol-Kelvin    Cal/Mol-Kelvin
 Total                   16.995              5.273             46.479
 Electronic               0.000              0.000              1.377
 Translational            0.889              2.981             35.068
 Rotational               0.592              1.987              9.964
 Vibrational             15.514              0.305              0.070

 Normal termination of Gaussian 16 at Fri Aug 22 16:13:57 2025.
