 Gaussian 16, Revision C.01,
 Gaussian 16:  ES64L-G16RevC.01  3-Jul-2019

 -----------------------------------------
 # sp b3lyp/6-311g** Force nosymm scf=(qc)
 -----------------------------------------

 -------------------
 Title Card Required
 -------------------
 Symbolic Z-matrix:
 Charge =  0 Multiplicity = 2

                          Input orientation:
 ---------------------------------------------------------------------
 Center     Atomic      Atomic             Coordinates (Angstroms)
 Number     Number       Type             X           Y           Z
 ---------------------------------------------------------------------
      1          1           0        0.000000    0.000000    0.000000
      2          1           0       -0.700000    0.000000    0.000000
      3          9           0        1.800000    0.000000    0.000000
 ---------------------------------------------------------------------

 SCF Done:  E(UB3LYP) =  -100.933563296     a.u. after    6 cycles

 Alpha  occ. eigenvalues --  -24.73976  -1.20275  -0.55169  -0.45201  -0.44744
 Alpha  occ. eigenvalues --   -0.44744
 Alpha virt. eigenvalues --    0.08781   0.20175   0.45146   0.89976   0.89976
 Alpha virt. eigenvalues --    0.94787   1.08051   1.08051   1.18570   1.68400
 Alpha virt. eigenvalues --    1.84635   1.84635   1.89128   2.42871   3.50966

  Beta  occ. eigenvalues --  -24.71018  -1.11916  -0.46610  -0.41811  -0.41811
  Beta virt. eigenvalues --   -0.25012   0.09656   0.20859   0.46147   0.91256
  Beta virt. eigenvalues --    0.91256   1.02193   1.09114   1.09114   1.22010
  Beta virt. eigenvalues --    1.70216   1.85165   1.85165   1.89845   2.44029

 Mulliken charges and spin densities:
               1          2
     1  H    0.035080  -0.032111
     2  H    0.026160   0.112270
     3  F   -0.061241   0.919841
 Sum of Mulliken charges =   0.00000   1.00000

 Dipole moment (field-independent basis, Debye):
    X=             -0.6047    Y=             -0.0000    Z=             -0.0000  Tot=              0.6047
 Quadrupole moment (field-independent basis, Debye-Ang):
   XX=             -6.2669   YY=             -6.8142   ZZ=             -6.8142
   XY=             -0.0000   XZ=              0.0000   YZ=              0.0000

  Exact polarizability:      17.671       0.000       2.139      -0.000      -0.000       2.139
 Approx polarizability:      20.262       0.000       2.197      -0.000      -0.000       2.197

 ******    3 imaginary frequencies (negative Signs) ******

                      1                      2                      3
                      A                      A                      A
 Frequencies --  -1352.5564             -1352.5564               -68.3445
 Red. masses --      1.0104                 1.0104                 1.1085
 Frc consts  --      1.0891                 1.0891                 0.0031
 IR Inten    --      0.0875                 0.0875                45.0288

                      4
                      A
 Frequencies --   4978.1911
 Red. masses --      1.0078
 Frc consts  --     14.7160
 IR Inten    --    383.9262

 - Thermochemistry -
 -------------------
 Temperature   298.150 Kelvin.  Pressure   1.00000 Atm.
 Atom     1 has atomic number  1 and mass   1.00783

 Molecular mass:    21.01405 amu.
 Principal axes and moments of inertia in atomic units:
                           1         2         3
     Eigenvalues --     0.00000  30.96309  30.96309
           X            1.00000  -0.00000   0.00000
           Y            0.00000   1.00000   0.00000
           Z            0.00000   0.00000   1.00000
 This molecule is a prolate symmetric top.
 Rotational symmetry number  1.
 Rotational temperature (Kelvin)      2.79733
 Rotational constant (GHZ):          58.286859
    3 imaginary frequencies ignored.
 Zero-point vibrational energy      29776.2 (Joules/Mol)
                                    7.11668 (Kcal/Mol)
 Vibrational temperatures:   7162.51
          (Kelvin)

 Zero-point correction=                           0.011341 (Hartree/Particle)
 Thermal correction to Energy=                    0.013702
 Thermal correction to Enthalpy=                  0.014646
 Thermal correction to Gibbs Free Energy=        -0.008023
 Sum of electronic and zero-point Energies=           -100.922222
 Sum of electronic and thermal Energies=              -100.919862
 Sum of electronic and thermal Enthalpies=            -100.918917
 Sum of electronic and thermal Free Energies=         -100.941586

                     E (Thermal)             CV                S
                      KCal/Mol        Cal/Mol-Kelvin    Cal/Mol-Kelvin
 Total                    8.598              4.968             47.711
 Electronic               0.000              0.000              1.377
 Translational            0.889              2.981             35.068
 Rotational               0.592              1.987             11.265
 Vibrational              7.117              0.000              0.000

 Normal termination of Gaussian 16 at Fri Aug 22 16:42:20 2025.
