 Gaussian 16, Revision C.01,
 Gaussian 16:  ES64L-G16RevC.01  3-Jul-2019

 -----------------------------------------
 # sp b3lyp/6-311g** Force nosymm scf=(qc)
 -----------------------------------------

 -------------------
 Title Card Required
 -------------------
 Symbolic Z-matrix:
 Charge =  0 Multiplicity = 2

                          Input orientation:
 ---------------------------------------------------------------------
 Center     Atomic      Atomic             Coordinates (Angstroms)
 Number     Number       Type             X           Y           Z
 ---------------------------------------------------------------------
      1          1           0        0.000000    0.000000    0.000000
      2          1           0       -1.150000    0.000000    0.000000
      3          9           0        2.250000    0.000000    0.000000
 ---------------------------------------------------------------------

 SCF Done:  E(UB3LYP) =  -100.883283036     a.u. after   13 cycles

 Alpha  occ. eigenvalues --  -24.74205  -1.20287  -0.53573  -0.44818  -0.44818
 Alpha  occ. eigenvalues --   -0.38761
 Alpha virt. eigenvalues --   -0.03459   0.22031   0.35659   0.88686   0.91790
 Alpha virt. eigenvalues --    0.91790   1.08646   1.09944   1.09944   1.31777
 Alpha virt. eigenvalues --    1.55258   1.55258   2.10682   2.31215   2.54662

  Beta  occ. eigenvalues --  -24.71222  -1.11770  -0.41840  -0.41840  -0.38465
  Beta virt. eigenvalues --   -0.25521  -0.02511   0.22567   0.36125   0.93185
  Beta virt. eigenvalues --    0.93185   0.96385   1.10572   1.10572   1.11692
  Beta virt. eigenvalues --    1.33946   1.55744   1.55744   2.11478   2.31961

 Mulliken charges and spin densities:
               1          2
     1  H    0.009234  -0.059635
     2  H    0.035950   0.119433
     3  F   -0.045183   0.940202
 Sum of Mulliken charges =   0.00000   1.00000

 Dipole moment (field-independent basis, Debye):
    X=             -0.7002    Y=             -0.0000    Z=             -0.0000  Tot=              0.7002
 Quadrupole moment (field-independent basis, Debye-Ang):
   XX=             -6.3670   YY=             -7.3889   ZZ=             -7.3889
   XY=             -0.0000   XZ=             -0.0000   YZ=             -0.0000

  Exact polarizability:      36.850      -0.000       2.135      -0.000       0.000       2.135
 Approx polarizability:      47.784       0.000       2.144       0.000      -0.000       2.144

 ******    1 imaginary frequencies (negative Signs) ******

                      1                      2                      3
                      A                      A                      A
 Frequencies --   -724.4320               292.0628              1442.4368
 Red. masses --      1.0375                 1.0747                 1.0119
 Frc consts  --      0.3208                 0.0540                 1.2404
 IR Inten    --    485.4575                43.0433                 0.0257

                      4
                      A
 Frequencies --   1442.4368
 Red. masses --      1.0119
 Frc consts  --      1.2404
 IR Inten    --      0.0257

 - Thermochemistry -
 -------------------
 Temperature   298.150 Kelvin.  Pressure   1.00000 Atm.
 Atom     1 has atomic number  1 and mass   1.00783

 Molecular mass:    21.01405 amu.
 Principal axes and moments of inertia in atomic units:
                           1         2         3
     Eigenvalues --     0.00000  54.31448  54.31448
           X            1.00000  -0.00000   0.00000
           Y            0.00000   1.00000   0.00000
           Z            0.00000   0.00000   1.00000
 This molecule is a prolate symmetric top.
 Rotational symmetry number  1.
 Rotational temperature (Kelvin)      1.59467
 Rotational constant (GHZ):          33.227628
    1 imaginary frequencies ignored.
 Zero-point vibrational energy      19002.3 (Joules/Mol)
                                    4.54166 (Kcal/Mol)
 Warning -- explicit consideration of   1 degrees of freedom as
           vibrations may cause significant error
 Vibrational temperatures:    420.21  2075.34  2075.34
          (Kelvin)

 Zero-point correction=                           0.007238 (Hartree/Particle)
 Thermal correction to Energy=                    0.010041
 Thermal correction to Enthalpy=                  0.010985
 Thermal correction to Gibbs Free Energy=        -0.012924
 Sum of electronic and zero-point Energies=           -100.876045
 Sum of electronic and thermal Energies=              -100.873242
 Sum of electronic and thermal Enthalpies=            -100.872298
 Sum of electronic and thermal Free Energies=         -100.896207

                     E (Thermal)             CV                S
                      KCal/Mol        Cal/Mol-Kelvin    Cal/Mol-Kelvin
 Total                    6.301              6.840             50.320
 Electronic               0.000              0.000              1.377
 Translational            0.889              2.981             35.068
 Rotational               0.592              1.987             12.382
 Vibrational              4.819              1.871              1.492
 Vibration     1          0.687              1.689              1.462

 Normal termination of Gaussian 16 at Fri Aug 22 17:15:37 2025.
