 Gaussian 16, Revision C.01,
 Gaussian 16:  ES64L-G16RevC.01  3-Jul-2019

 -----------------------------------------
 # sp b3lyp/6-311g** Force nosymm scf=(qc)
 -----------------------------------------

 -------------------
 Title Card Required
 -------------------
 Symbolic Z-matrix:
 Charge =  0 Multiplicity = 2

                          Input orientation:
 ---------------------------------------------------------------------
 Center     Atomic      Atomic             Coordinates (Angstroms)
 Number     Number       Type             X           Y           Z
 ---------------------------------------------------------------------
      1          1           0        0.000000    0.000000    0.000000
      2          1           0       -0.700000    0.000000    0.000000
      3          9           0        1.700000    0.000000    0.000000
 ---------------------------------------------------------------------

 SCF Done:  E(UB3LYP) =  -100.933824365     a.u. after    6 cycles

 Alpha  occ. eigenvalues --  -24.73279  -1.19754  -0.55458  -0.44860  -0.44238
 Alpha  occ. eigenvalues --   -0.44238
 Alpha virt. eigenvalues --    0.09113   0.20091   0.44890   0.89547   0.89547
 Alpha virt. eigenvalues --    0.95998   1.08279   1.08279   1.21561   1.69649
 Alpha virt. eigenvalues --    1.84651   1.84651   1.89741   2.43956   3.42726

  Beta  occ. eigenvalues --  -24.70388  -1.11640  -0.47155  -0.41385  -0.41385
  Beta virt. eigenvalues --   -0.24576   0.10075   0.20834   0.46226   0.90780
  Beta virt. eigenvalues --    0.90780   1.03081   1.09647   1.09647   1.25048
  Beta virt. eigenvalues --    1.71787   1.85353   1.85353   1.90555   2.45450

 Mulliken charges and spin densities:
               1          2
     1  H    0.059570  -0.035705
     2  H    0.023420   0.142732
     3  F   -0.082990   0.892974
 Sum of Mulliken charges =   0.00000   1.00000

 Dipole moment (field-independent basis, Debye):
    X=             -0.7456    Y=             -0.0000    Z=             -0.0000  Tot=              0.7456
 Quadrupole moment (field-independent basis, Debye-Ang):
   XX=             -6.4384   YY=             -6.7912   ZZ=             -6.7912
   XY=              0.0000   XZ=             -0.0000   YZ=             -0.0000

  Exact polarizability:      18.255      -0.000       2.184       0.000      -0.000       2.184
 Approx polarizability:      21.568      -0.000       2.237      -0.000       0.000       2.237

 ******    3 imaginary frequencies (negative Signs) ******

                      1                      2                      3
                      A                      A                      A
 Frequencies --  -1399.7107             -1399.7107               -90.7693
 Red. masses --      1.0107                 1.0107                 1.1085
 Frc consts  --      1.1667                 1.1667                 0.0054
 IR Inten    --      0.0030                 0.0030                58.4856

                      4
                      A
 Frequencies --   4938.4935
 Red. masses --      1.0079
 Frc consts  --     14.4825
 IR Inten    --    482.1647

 - Thermochemistry -
 -------------------
 Temperature   298.150 Kelvin.  Pressure   1.00000 Atm.
 Atom     1 has atomic number  1 and mass   1.00783

 Molecular mass:    21.01405 amu.
 Principal axes and moments of inertia in atomic units:
                           1         2         3
     Eigenvalues --     0.00000  28.22990  28.22990
           X            1.00000  -0.00000   0.00000
           Y            0.00000   1.00000   0.00000
           Z            0.00000   0.00000   1.00000
 This molecule is a prolate symmetric top.
 Rotational symmetry number  1.
 Rotational temperature (Kelvin)      3.06816
 Rotational constant (GHZ):          63.930127
    3 imaginary frequencies ignored.
 Zero-point vibrational energy      29538.8 (Joules/Mol)
                                    7.05993 (Kcal/Mol)
 Vibrational temperatures:   7105.39
          (Kelvin)

 Zero-point correction=                           0.011251 (Hartree/Particle)
 Thermal correction to Energy=                    0.013611
 Thermal correction to Enthalpy=                  0.014555
 Thermal correction to Gibbs Free Energy=        -0.008026
 Sum of electronic and zero-point Energies=           -100.922574
 Sum of electronic and thermal Energies=              -100.920213
 Sum of electronic and thermal Enthalpies=            -100.919269
 Sum of electronic and thermal Free Energies=         -100.941851

                     E (Thermal)             CV                S
                      KCal/Mol        Cal/Mol-Kelvin    Cal/Mol-Kelvin
 Total                    8.541              4.968             47.527
 Electronic               0.000              0.000              1.377
 Translational            0.889              2.981             35.068
 Rotational               0.592              1.987             11.082
 Vibrational              7.060              0.000              0.000

 Normal termination of Gaussian 16 at Fri Aug 22 16:36:17 2025.
