 Gaussian 16, Revision C.01,
 Gaussian 16:  ES64L-G16RevC.01  3-Jul-2019

 -----------------------------------------
 # sp b3lyp/6-311g** Force nosymm scf=(qc)
 -----------------------------------------

 -------------------
 Title Card Required
 -------------------
 Symbolic Z-matrix:
 Charge =  0 Multiplicity = 2

                          Input orientation:
 ---------------------------------------------------------------------
 Center     Atomic      Atomic             Coordinates (Angstroms)
 Number     Number       Type             X           Y           Z
 ---------------------------------------------------------------------
      1          1           0        0.000000    0.000000    0.000000
      2          1           0       -1.250000    0.000000    0.000000
      3          9           0        2.150000    0.000000    0.000000
 ---------------------------------------------------------------------

 SCF Done:  E(UB3LYP) =  -100.867476766     a.u. after   13 cycles

 Alpha  occ. eigenvalues --  -24.72959  -1.19146  -0.52418  -0.43790  -0.43790
 Alpha  occ. eigenvalues --   -0.38343
 Alpha virt. eigenvalues --   -0.05915   0.22242   0.33712   0.87865   0.92326
 Alpha virt. eigenvalues --    0.92326   1.06170   1.11642   1.11642   1.30412
 Alpha virt. eigenvalues --    1.49481   1.49481   2.01670   2.27652   2.52934

  Beta  occ. eigenvalues --  -24.70080  -1.10959  -0.40922  -0.40922  -0.37922
  Beta virt. eigenvalues --   -0.25042  -0.04621   0.23074   0.34147   0.93649
  Beta virt. eigenvalues --    0.93649   0.94617   1.09166   1.12610   1.12610
  Beta virt. eigenvalues --    1.33482   1.50199   1.50199   2.02821   2.28729

 Mulliken charges and spin densities:
               1          2
     1  H    0.027941  -0.116393
     2  H    0.045822   0.210302
     3  F   -0.073763   0.906091
 Sum of Mulliken charges =  -0.00000   1.00000

 Dipole moment (field-independent basis, Debye):
    X=             -1.0566    Y=             -0.0000    Z=              0.0000  Tot=              1.0566
 Quadrupole moment (field-independent basis, Debye-Ang):
   XX=             -6.7585   YY=             -7.4533   ZZ=             -7.4533
   XY=             -0.0000   XZ=              0.0000   YZ=              0.0000

  Exact polarizability:      44.225      -0.000       2.139       0.000       0.000       2.139
 Approx polarizability:      62.774       0.000       2.133      -0.000      -0.000       2.133

 ******    2 imaginary frequencies (negative Signs) ******

                      1                      2                      3
                      A                      A                      A
 Frequencies --  -1424.5340              -242.7708              1361.6456
 Red. masses --      1.0137                 1.1015                 1.0127
 Frc consts  --      1.2120                 0.0382                 1.1063
 IR Inten    --    872.3321                 2.0041                 0.0082

                      4
                      A
 Frequencies --   1361.6456
 Red. masses --      1.0127
 Frc consts  --      1.1063
 IR Inten    --      0.0082

 - Thermochemistry -
 -------------------
 Temperature   298.150 Kelvin.  Pressure   1.00000 Atm.
 Atom     1 has atomic number  1 and mass   1.00783

 Molecular mass:    21.01405 amu.
 Principal axes and moments of inertia in atomic units:
                           1         2         3
     Eigenvalues --     0.00000  52.92423  52.92423
           X            1.00000  -0.00000   0.00000
           Y            0.00000   1.00000   0.00000
           Z            0.00000   0.00000   1.00000
 This molecule is a prolate symmetric top.
 Rotational symmetry number  1.
 Rotational temperature (Kelvin)      1.63656
 Rotational constant (GHZ):          34.100471
    2 imaginary frequencies ignored.
 Zero-point vibrational energy      16288.9 (Joules/Mol)
                                    3.89314 (Kcal/Mol)
 Vibrational temperatures:   1959.10  1959.10
          (Kelvin)

 Zero-point correction=                           0.006204 (Hartree/Particle)
 Thermal correction to Energy=                    0.008582
 Thermal correction to Enthalpy=                  0.009526
 Thermal correction to Gibbs Free Energy=        -0.013669
 Sum of electronic and zero-point Energies=           -100.861273
 Sum of electronic and thermal Energies=              -100.858895
 Sum of electronic and thermal Enthalpies=            -100.857951
 Sum of electronic and thermal Free Energies=         -100.881146

                     E (Thermal)             CV                S
                      KCal/Mol        Cal/Mol-Kelvin    Cal/Mol-Kelvin
 Total                    5.385              5.209             48.818
 Electronic               0.000              0.000              1.377
 Translational            0.889              2.981             35.068
 Rotational               0.592              1.987             12.331
 Vibrational              3.904              0.241              0.042

 Normal termination of Gaussian 16 at Fri Aug 22 17:06:58 2025.
