 Gaussian 16, Revision C.01,
 Gaussian 16:  ES64L-G16RevC.01  3-Jul-2019

 -----------------------------------------
 # sp b3lyp/6-311g** Force nosymm scf=(qc)
 -----------------------------------------

 -------------------
 Title Card Required
 -------------------
 Symbolic Z-matrix:
 Charge =  0 Multiplicity = 2

                          Input orientation:
 ---------------------------------------------------------------------
 Center     Atomic      Atomic             Coordinates (Angstroms)
 Number     Number       Type             X           Y           Z
 ---------------------------------------------------------------------
      1          1           0        0.000000    0.000000    0.000000
      2          1           0       -0.750000    0.000000    0.000000
      3          9           0        3.750000    0.000000    0.000000
 ---------------------------------------------------------------------

 SCF Done:  E(UB3LYP) =  -100.933757991     a.u. after    5 cycles

 Alpha  occ. eigenvalues --  -24.76243  -1.22124  -0.55327  -0.46509  -0.46482
 Alpha  occ. eigenvalues --   -0.43176
 Alpha virt. eigenvalues --    0.05741   0.19794   0.46541   0.86059   0.90935
 Alpha virt. eigenvalues --    0.92115   1.01321   1.08513   1.08516   1.55044
 Alpha virt. eigenvalues --    1.82366   1.82369   1.96431   2.37932   3.28193

  Beta  occ. eigenvalues --  -24.73087  -1.13048  -0.43409  -0.43317  -0.43111
  Beta virt. eigenvalues --   -0.25972   0.05750   0.19800   0.46577   0.92435
  Beta virt. eigenvalues --    0.93609   0.95524   1.05432   1.08513   1.08516
  Beta virt. eigenvalues --    1.55048   1.82366   1.82369   1.96443   2.37933

 Mulliken charges and spin densities:
               1          2
     1  H   -0.000362  -0.000251
     2  H   -0.001906   0.000001
     3  F    0.002268   1.000250
 Sum of Mulliken charges =   0.00000   1.00000

 Dipole moment (field-independent basis, Debye):
    X=              0.0311    Y=             -0.0000    Z=             -0.0000  Tot=              0.0311
 Quadrupole moment (field-independent basis, Debye-Ang):
   XX=             -6.2592   YY=             -6.0871   ZZ=             -6.9516
   XY=              0.0000   XZ=             -0.0000   YZ=             -0.0002

  Exact polarizability:       8.139       0.000       2.422       0.000      -0.000       1.957
 Approx polarizability:       9.415       0.000       2.615       0.000      -0.000       2.033

 ******    1 imaginary frequencies (negative Signs) ******

                      1                      2                      3
                      A                      A                      A
 Frequencies --    -59.5322               403.7071               407.0531
 Red. masses --      1.1085                 1.0087                 1.0087
 Frc consts  --      0.0023                 0.0969                 0.0985
 IR Inten    --      0.0813                 0.0000                 0.0000

                      4
                      A
 Frequencies --   4337.1755
 Red. masses --      1.0078
 Frc consts  --     11.1699
 IR Inten    --      0.0376

 - Thermochemistry -
 -------------------
 Temperature   298.150 Kelvin.  Pressure   1.00000 Atm.
 Atom     1 has atomic number  1 and mass   1.00783

 Molecular mass:    21.01405 amu.
 Principal axes and moments of inertia in atomic units:
                           1         2         3
     Eigenvalues --     0.00000 111.74292 111.74292
           X            1.00000  -0.00000   0.00000
           Y            0.00000   1.00000   0.00000
           Z            0.00000   0.00000   1.00000
 This molecule is a prolate symmetric top.
 Rotational symmetry number  1.
 Rotational temperature (Kelvin)      0.77512
 Rotational constant (GHZ):          16.150832
    1 imaginary frequencies ignored.
 Zero-point vibrational energy      30791.5 (Joules/Mol)
                                    7.35934 (Kcal/Mol)
 Warning -- explicit consideration of   2 degrees of freedom as
           vibrations may cause significant error
 Vibrational temperatures:    580.84   585.66  6240.23
          (Kelvin)

 Zero-point correction=                           0.011728 (Hartree/Particle)
 Thermal correction to Energy=                    0.014697
 Thermal correction to Enthalpy=                  0.015641
 Thermal correction to Gibbs Free Energy=        -0.009136
 Sum of electronic and zero-point Energies=           -100.922030
 Sum of electronic and thermal Energies=              -100.919061
 Sum of electronic and thermal Enthalpies=            -100.918117
 Sum of electronic and thermal Free Energies=         -100.942894

                     E (Thermal)             CV                S
                      KCal/Mol        Cal/Mol-Kelvin    Cal/Mol-Kelvin
 Total                    9.222              7.885             52.147
 Electronic               0.000              0.000              1.377
 Translational            0.889              2.981             35.068
 Rotational               0.592              1.987             13.816
 Vibrational              7.741              2.917              1.886
 Vibration     1          0.769              1.462              0.949
 Vibration     2          0.772              1.455              0.937

 Normal termination of Gaussian 16 at Sat Aug 23 00:08:48 2025.
