 Gaussian 16, Revision C.01,
 Gaussian 16:  ES64L-G16RevC.01  3-Jul-2019

 -----------------------------------------
 # sp b3lyp/6-311g** Force nosymm scf=(qc)
 -----------------------------------------

 -------------------
 Title Card Required
 -------------------
 Symbolic Z-matrix:
 Charge =  0 Multiplicity = 2

                          Input orientation:
 ---------------------------------------------------------------------
 Center     Atomic      Atomic             Coordinates (Angstroms)
 Number     Number       Type             X           Y           Z
 ---------------------------------------------------------------------
      1          1           0        0.000000    0.000000    0.000000
      2          1           0       -3.500000    0.000000    0.000000
      3          9           0        1.100000    0.000000    0.000000
 ---------------------------------------------------------------------

 SCF Done:  E(UB3LYP) =  -100.948439033     a.u. after    6 cycles

 Alpha  occ. eigenvalues --  -24.64292  -1.13864  -0.49609  -0.38098  -0.38098
 Alpha  occ. eigenvalues --   -0.33777
 Alpha virt. eigenvalues --   -0.02466   0.23160   0.31304   0.93573   0.93573
 Alpha virt. eigenvalues --    0.99603   1.23667   1.23739   1.23739   1.28747
 Alpha virt. eigenvalues --    1.35219   1.35219   1.79602   2.13997   2.31806

  Beta  occ. eigenvalues --  -24.64289  -1.13857  -0.49602  -0.38096  -0.38096
  Beta virt. eigenvalues --   -0.06554  -0.01613   0.29554   0.39066   0.93573
  Beta virt. eigenvalues --    0.93573   0.99610   1.28657   1.35214   1.35214
  Beta virt. eigenvalues --    1.49004   1.49004   1.49171   1.79628   2.31519

 Mulliken charges and spin densities:
               1          2
     1  H    0.340146   0.000374
     2  H    0.001114   0.998730
     3  F   -0.341260   0.000896
 Sum of Mulliken charges =   0.00000   1.00000

 Dipole moment (field-independent basis, Debye):
    X=             -2.1722    Y=             -0.0000    Z=             -0.0000  Tot=              2.1722
 Quadrupole moment (field-independent basis, Debye-Ang):
   XX=             -8.5398   YY=             -7.0486   ZZ=             -7.0486
   XY=             -0.0000   XZ=             -0.0000   YZ=              0.0000

  Exact polarizability:       8.040      -0.000       2.364       0.000      -0.000       2.364
 Approx polarizability:      10.514      -0.000       2.329      -0.000      -0.000       2.329

 ******    1 imaginary frequencies (negative Signs) ******

                      1                      2                      3
                      A                      A                      A
 Frequencies --    -51.7570              1184.5287              1184.5287
 Red. masses --      1.0531                 1.0355                 1.0355
 Frc consts  --      0.0017                 0.8560                 0.8560
 IR Inten    --      0.0745               157.0886               157.0886

                      4
                      A
 Frequencies --   1939.8358
 Red. masses --      1.0584
 Frc consts  --      2.3466
 IR Inten    --     78.5405

 - Thermochemistry -
 -------------------
 Temperature   298.150 Kelvin.  Pressure   1.00000 Atm.
 Atom     1 has atomic number  1 and mass   1.00783

 Molecular mass:    21.01405 amu.
 Principal axes and moments of inertia in atomic units:
                           1         2         3
     Eigenvalues --     0.00000  74.90182  74.90182
           X            1.00000  -0.00000   0.00000
           Y            0.00000   1.00000   0.00000
           Z            0.00000   0.00000   1.00000
 This molecule is a prolate symmetric top.
 Rotational symmetry number  1.
 Rotational temperature (Kelvin)      1.15637
 Rotational constant (GHZ):          24.094757
    1 imaginary frequencies ignored.
 Zero-point vibrational energy      25772.9 (Joules/Mol)
                                    6.15987 (Kcal/Mol)
 Vibrational temperatures:   1704.27  1704.27  2790.99
          (Kelvin)

 Zero-point correction=                           0.009816 (Hartree/Particle)
 Thermal correction to Energy=                    0.012213
 Thermal correction to Enthalpy=                  0.013157
 Thermal correction to Gibbs Free Energy=        -0.010388
 Sum of electronic and zero-point Energies=           -100.938623
 Sum of electronic and thermal Energies=              -100.936226
 Sum of electronic and thermal Enthalpies=            -100.935282
 Sum of electronic and thermal Free Energies=         -100.958827

                     E (Thermal)             CV                S
                      KCal/Mol        Cal/Mol-Kelvin    Cal/Mol-Kelvin
 Total                    7.664              5.413             49.556
 Electronic               0.000              0.000              1.377
 Translational            0.889              2.981             35.068
 Rotational               0.592              1.987             13.021
 Vibrational              6.183              0.445              0.090

 Normal termination of Gaussian 16 at Fri Aug 22 16:06:19 2025.
