 Gaussian 16, Revision C.01,
 Gaussian 16:  ES64L-G16RevC.01  3-Jul-2019

 -----------------------------------------
 # sp b3lyp/6-311g** Force nosymm scf=(qc)
 -----------------------------------------

 -------------------
 Title Card Required
 -------------------
 Symbolic Z-matrix:
 Charge =  0 Multiplicity = 2

                          Input orientation:
 ---------------------------------------------------------------------
 Center     Atomic      Atomic             Coordinates (Angstroms)
 Number     Number       Type             X           Y           Z
 ---------------------------------------------------------------------
      1          1           0        0.000000    0.000000    0.000000
      2          1           0       -2.000000    0.000000    0.000000
      3          9           0        2.200000    0.000000    0.000000
 ---------------------------------------------------------------------

 SCF Done:  E(UB3LYP) =  -100.790487874     a.u. after   13 cycles

 Alpha  occ. eigenvalues --  -24.69784  -1.16082  -0.48876  -0.41049  -0.41049
 Alpha  occ. eigenvalues --   -0.35742
 Alpha virt. eigenvalues --   -0.13299   0.24299   0.31624   0.88189   0.94534
 Alpha virt. eigenvalues --    0.94534   1.05136   1.22175   1.22175   1.25907
 Alpha virt. eigenvalues --    1.34290   1.34290   1.53222   2.10916   2.32848

  Beta  occ. eigenvalues --  -24.67148  -1.08638  -0.38435  -0.38435  -0.36364
  Beta virt. eigenvalues --   -0.22371  -0.11727   0.26473   0.31828   0.92391
  Beta virt. eigenvalues --    0.95662   0.95662   1.08346   1.22522   1.22522
  Beta virt. eigenvalues --    1.33521   1.36533   1.36533   1.51548   2.11518

 Mulliken charges and spin densities:
               1          2
     1  H    0.099581  -0.707057
     2  H    0.038545   0.876663
     3  F   -0.138126   0.830394
 Sum of Mulliken charges =  -0.00000   1.00000

 Dipole moment (field-independent basis, Debye):
    X=             -1.8973    Y=              0.0000    Z=             -0.0000  Tot=              1.8973
 Quadrupole moment (field-independent basis, Debye-Ang):
   XX=             -8.5410   YY=             -7.6035   ZZ=             -7.6035
   XY=              0.0000   XZ=             -0.0000   YZ=              0.0000

  Exact polarizability:      54.221       0.000       2.031      -0.000      -0.000       2.031
 Approx polarizability:      62.467      -0.000       1.943       0.000      -0.000       1.943

 ******    2 imaginary frequencies (negative Signs) ******

                      1                      2                      3
                      A                      A                      A
 Frequencies --  -1457.6329              -503.2979               598.6834
 Red. masses --      1.0130                 1.1023                 1.0168
 Frc consts  --      1.2681                 0.1645                 0.2147
 IR Inten    --    100.6781                47.8303                 5.8931

                      4
                      A
 Frequencies --    598.6834
 Red. masses --      1.0168
 Frc consts  --      0.2147
 IR Inten    --      5.8931

 - Thermochemistry -
 -------------------
 Temperature   298.150 Kelvin.  Pressure   1.00000 Atm.
 Atom     1 has atomic number  1 and mass   1.00783

 Molecular mass:    21.01405 amu.
 Principal axes and moments of inertia in atomic units:
                           1         2         3
     Eigenvalues --     0.00000  73.83573  73.83573
           X            1.00000  -0.00000   0.00000
           Y            0.00000   1.00000   0.00000
           Z            0.00000   0.00000   1.00000
 This molecule is a prolate symmetric top.
 Rotational symmetry number  1.
 Rotational temperature (Kelvin)      1.17306
 Rotational constant (GHZ):          24.442653
    2 imaginary frequencies ignored.
 Zero-point vibrational energy       7161.8 (Joules/Mol)
                                    1.71172 (Kcal/Mol)
 Warning -- explicit consideration of   2 degrees of freedom as
           vibrations may cause significant error
 Vibrational temperatures:    861.37   861.37
          (Kelvin)

 Zero-point correction=                           0.002728 (Hartree/Particle)
 Thermal correction to Energy=                    0.005410
 Thermal correction to Enthalpy=                  0.006354
 Thermal correction to Gibbs Free Energy=        -0.017565
 Sum of electronic and zero-point Energies=           -100.787760
 Sum of electronic and thermal Energies=              -100.785078
 Sum of electronic and thermal Enthalpies=            -100.784134
 Sum of electronic and thermal Free Energies=         -100.808053

                     E (Thermal)             CV                S
                      KCal/Mol        Cal/Mol-Kelvin    Cal/Mol-Kelvin
 Total                    3.395              7.037             50.342
 Electronic               0.000              0.000              1.377
 Translational            0.889              2.981             35.068
 Rotational               0.592              1.987             12.992
 Vibrational              1.913              2.069              0.904
 Vibration     1          0.957              1.035              0.452
 Vibration     2          0.957              1.035              0.452

 Normal termination of Gaussian 16 at Fri Aug 22 17:11:40 2025.
