 Gaussian 16, Revision C.01,
 Gaussian 16:  ES64L-G16RevC.01  3-Jul-2019

 -----------------------------------------
 # sp b3lyp/6-311g** Force nosymm scf=(qc)
 -----------------------------------------

 -------------------
 Title Card Required
 -------------------
 Symbolic Z-matrix:
 Charge =  0 Multiplicity = 2

                          Input orientation:
 ---------------------------------------------------------------------
 Center     Atomic      Atomic             Coordinates (Angstroms)
 Number     Number       Type             X           Y           Z
 ---------------------------------------------------------------------
      1          1           0        0.000000    0.000000    0.000000
      2          1           0       -2.100000    0.000000    0.000000
      3          9           0        1.150000    0.000000    0.000000
 ---------------------------------------------------------------------

 SCF Done:  E(UB3LYP) =  -100.938888560     a.u. after    6 cycles

 Alpha  occ. eigenvalues --  -24.63867  -1.12686  -0.48666  -0.37424  -0.37424
 Alpha  occ. eigenvalues --   -0.36224
 Alpha virt. eigenvalues --   -0.01786   0.24207   0.29615   0.93709   0.93709
 Alpha virt. eigenvalues --    1.00266   1.14883   1.21171   1.21171   1.35446
 Alpha virt. eigenvalues --    1.35446   1.43637   1.74892   2.13050   2.32464

  Beta  occ. eigenvalues --  -24.63764  -1.12428  -0.48136  -0.37331  -0.37331
  Beta virt. eigenvalues --   -0.13337   0.01062   0.29483   0.34770   0.93710
  Beta virt. eigenvalues --    0.93710   1.00610   1.23548   1.34926   1.34926
  Beta virt. eigenvalues --    1.41128   1.41128   1.53619   1.75356   2.29048

 Mulliken charges and spin densities:
               1          2
     1  H    0.332663  -0.002010
     2  H    0.020122   0.971662
     3  F   -0.352785   0.030348
 Sum of Mulliken charges =  -0.00000   1.00000

 Dipole moment (field-independent basis, Debye):
    X=             -2.4545    Y=              0.0000    Z=              0.0000  Tot=              2.4545
 Quadrupole moment (field-independent basis, Debye-Ang):
   XX=             -8.1878   YY=             -7.0596   ZZ=             -7.0596
   XY=              0.0000   XZ=              0.0000   YZ=              0.0000

  Exact polarizability:      13.651       0.000       2.394      -0.000      -0.000       2.394
 Approx polarizability:      16.410       0.000       2.361      -0.000       0.000       2.361

 ******    1 imaginary frequencies (negative Signs) ******

                      1                      2                      3
                      A                      A                      A
 Frequencies --   -249.1186              1165.6615              1165.6615
 Red. masses --      1.0443                 1.0266                 1.0266
 Frc consts  --      0.0382                 0.8218                 0.8218
 IR Inten    --     12.2111               120.5944               120.5944

                      4
                      A
 Frequencies --   1346.3525
 Red. masses --      1.0675
 Frc consts  --      1.1401
 IR Inten    --    178.9744

 - Thermochemistry -
 -------------------
 Temperature   298.150 Kelvin.  Pressure   1.00000 Atm.
 Atom     1 has atomic number  1 and mass   1.00783

 Molecular mass:    21.01405 amu.
 Principal axes and moments of inertia in atomic units:
                           1         2         3
     Eigenvalues --     0.00000  39.43255  39.43255
           X            1.00000  -0.00000   0.00000
           Y            0.00000   1.00000   0.00000
           Z            0.00000   0.00000   1.00000
 This molecule is a prolate symmetric top.
 Rotational symmetry number  1.
 Rotational temperature (Kelvin)      2.19651
 Rotational constant (GHZ):          45.767808
    1 imaginary frequencies ignored.
 Zero-point vibrational energy      21997.4 (Joules/Mol)
                                    5.25750 (Kcal/Mol)
 Vibrational temperatures:   1677.13  1677.13  1937.10
          (Kelvin)

 Zero-point correction=                           0.008378 (Hartree/Particle)
 Thermal correction to Energy=                    0.010787
 Thermal correction to Enthalpy=                  0.011731
 Thermal correction to Gibbs Free Energy=        -0.011222
 Sum of electronic and zero-point Energies=           -100.930510
 Sum of electronic and thermal Energies=              -100.928102
 Sum of electronic and thermal Enthalpies=            -100.927158
 Sum of electronic and thermal Free Energies=         -100.950111

                     E (Thermal)             CV                S
                      KCal/Mol        Cal/Mol-Kelvin    Cal/Mol-Kelvin
 Total                    6.769              5.552             48.309
 Electronic               0.000              0.000              1.377
 Translational            0.889              2.981             35.068
 Rotational               0.592              1.987             11.746
 Vibrational              5.287              0.584              0.118

 Normal termination of Gaussian 16 at Fri Aug 22 16:07:48 2025.
