 Gaussian 16, Revision C.01,
 Gaussian 16:  ES64L-G16RevC.01  3-Jul-2019

 -----------------------------------------
 # sp b3lyp/6-311g** Force nosymm scf=(qc)
 -----------------------------------------

 -------------------
 Title Card Required
 -------------------
 Symbolic Z-matrix:
 Charge =  0 Multiplicity = 2

                          Input orientation:
 ---------------------------------------------------------------------
 Center     Atomic      Atomic             Coordinates (Angstroms)
 Number     Number       Type             X           Y           Z
 ---------------------------------------------------------------------
      1          1           0        0.000000    0.000000    0.000000
      2          1           0       -2.550000    0.000000    0.000000
      3          9           0        1.550000    0.000000    0.000000
 ---------------------------------------------------------------------

 SCF Done:  E(UB3LYP) =  -100.845575725     a.u. after    9 cycles

 Alpha  occ. eigenvalues --  -24.64306  -1.09915  -0.43198  -0.36345  -0.36345
 Alpha  occ. eigenvalues --   -0.35627
 Alpha virt. eigenvalues --   -0.14273   0.22817   0.27046   0.94115   0.94115
 Alpha virt. eigenvalues --    1.02527   1.08749   1.21880   1.21880   1.24280
 Alpha virt. eigenvalues --    1.32066   1.32066   1.74998   2.12965   2.20605

  Beta  occ. eigenvalues --  -24.63757  -1.08451  -0.41817  -0.35821  -0.35821
  Beta virt. eigenvalues --   -0.16833  -0.08436   0.24598   0.35428   0.93910
  Beta virt. eigenvalues --    0.93910   1.03687   1.08882   1.29389   1.29389
  Beta virt. eigenvalues --    1.42171   1.42171   1.43124   1.74097   2.16519

 Mulliken charges and spin densities:
               1          2
     1  H    0.325894  -0.151844
     2  H    0.018299   0.978384
     3  F   -0.344193   0.173459
 Sum of Mulliken charges =  -0.00000   1.00000

 Dipole moment (field-independent basis, Debye):
    X=             -2.8350    Y=             -0.0000    Z=             -0.0000  Tot=              2.8350
 Quadrupole moment (field-independent basis, Debye-Ang):
   XX=             -9.4918   YY=             -7.3535   ZZ=             -7.3535
   XY=             -0.0000   XZ=             -0.0000   YZ=             -0.0000

  Exact polarizability:      24.562      -0.000       2.178       0.000       0.000       2.178
 Approx polarizability:      37.914      -0.000       2.101       0.000       0.000       2.101

 ******    2 imaginary frequencies (negative Signs) ******

                      1                      2                      3
                      A                      A                      A
 Frequencies --  -1730.1490              -264.6756               948.0448
 Red. masses --      1.0505                 1.0611                 1.0249
 Frc consts  --      1.8528                 0.0438                 0.5428
 IR Inten    --      3.6994                 4.3280                92.5206

                      4
                      A
 Frequencies --    948.0448
 Red. masses --      1.0249
 Frc consts  --      0.5428
 IR Inten    --     92.5206

 - Thermochemistry -
 -------------------
 Temperature   298.150 Kelvin.  Pressure   1.00000 Atm.
 Atom     1 has atomic number  1 and mass   1.00783

 Molecular mass:    21.01405 amu.
 Principal axes and moments of inertia in atomic units:
                           1         2         3
     Eigenvalues --     0.00000  63.63591  63.63591
           X            1.00000  -0.00000   0.00000
           Y            0.00000   1.00000   0.00000
           Z            0.00000   0.00000   1.00000
 This molecule is a prolate symmetric top.
 Rotational symmetry number  1.
 Rotational temperature (Kelvin)      1.36109
 Rotational constant (GHZ):          28.360422
    2 imaginary frequencies ignored.
 Zero-point vibrational energy      11341.1 (Joules/Mol)
                                    2.71060 (Kcal/Mol)
 Vibrational temperatures:   1364.03  1364.03
          (Kelvin)

 Zero-point correction=                           0.004320 (Hartree/Particle)
 Thermal correction to Energy=                    0.006770
 Thermal correction to Enthalpy=                  0.007714
 Thermal correction to Gibbs Free Energy=        -0.015744
 Sum of electronic and zero-point Energies=           -100.841256
 Sum of electronic and thermal Energies=              -100.838806
 Sum of electronic and thermal Enthalpies=            -100.837861
 Sum of electronic and thermal Free Energies=         -100.861320

                     E (Thermal)             CV                S
                      KCal/Mol        Cal/Mol-Kelvin    Cal/Mol-Kelvin
 Total                    4.248              5.843             49.373
 Electronic               0.000              0.000              1.377
 Translational            0.889              2.981             35.068
 Rotational               0.592              1.987             12.697
 Vibrational              2.767              0.875              0.231

 Normal termination of Gaussian 16 at Fri Aug 22 16:28:46 2025.
