 Gaussian 16, Revision C.01,
 Gaussian 16:  ES64L-G16RevC.01  3-Jul-2019

 -----------------------------------------
 # sp b3lyp/6-311g** Force nosymm scf=(qc)
 -----------------------------------------

 -------------------
 Title Card Required
 -------------------
 Symbolic Z-matrix:
 Charge =  0 Multiplicity = 2

                          Input orientation:
 ---------------------------------------------------------------------
 Center     Atomic      Atomic             Coordinates (Angstroms)
 Number     Number       Type             X           Y           Z
 ---------------------------------------------------------------------
      1          1           0        0.000000    0.000000    0.000000
      2          1           0       -1.250000    0.000000    0.000000
      3          9           0        2.550000    0.000000    0.000000
 ---------------------------------------------------------------------

 SCF Done:  E(UB3LYP) =  -100.863813500     a.u. after   75 cycles

 Alpha  occ. eigenvalues --  -24.75283  -1.21253  -0.54443  -0.45744  -0.45698
 Alpha  occ. eigenvalues --   -0.36841
 Alpha virt. eigenvalues --   -0.05637   0.22910   0.33920   0.88743   0.91420
 Alpha virt. eigenvalues --    0.91960   1.07795   1.13003   1.13006   1.19617
 Alpha virt. eigenvalues --    1.50783   1.50785   2.02270   2.29436   2.54164

  Beta  occ. eigenvalues --  -24.72215  -1.12458  -0.42692  -0.42628  -0.36595
  Beta virt. eigenvalues --   -0.25879  -0.05141   0.23215   0.34371   0.92875
  Beta virt. eigenvalues --    0.93086   0.97450   1.11263   1.13302   1.13303
  Beta virt. eigenvalues --    1.20855   1.51038   1.51040   2.02640   2.29842

 Mulliken charges and spin densities:
               1          2
     1  H   -0.000775  -0.042585
     2  H    0.020948   0.072385
     3  F   -0.020173   0.970200
 Sum of Mulliken charges =  -0.00000   1.00000

 Dipole moment (field-independent basis, Debye):
    X=             -0.3932    Y=             -0.0013    Z=              0.0021  Tot=              0.3932
 Quadrupole moment (field-independent basis, Debye-Ang):
   XX=             -6.1352   YY=             -7.4870   ZZ=             -7.4300
   XY=             -0.1538   XZ=              0.2532   YZ=             -0.0549

  Exact polarizability:     469.339       2.317       2.134       8.620       0.028       2.311
 Approx polarizability:      48.089      -0.025       2.130       0.041      -0.037       2.169

 ******    2 imaginary frequencies (negative Signs) ******

                      1                      2                      3
                      A                      A                      A
 Frequencies --  -2134.9197              -255.6165              1349.1997
 Red. masses --      1.0163                 1.0980                 1.0119
 Frc consts  --      2.7293                 0.0423                 1.0853
 IR Inten    --  66299.3975               109.5485               730.7028

                      4
                      A
 Frequencies --   1401.8241
 Red. masses --      1.0116
 Frc consts  --      1.1712
 IR Inten    --     25.5458

 - Thermochemistry -
 -------------------
 Temperature   298.150 Kelvin.  Pressure   1.00000 Atm.
 Atom     1 has atomic number  1 and mass   1.00783

 Molecular mass:    21.01405 amu.
 Principal axes and moments of inertia in atomic units:
                           1         2         3
     Eigenvalues --     0.00000  68.41229  68.41229
           X            1.00000  -0.00000   0.00000
           Y            0.00000   1.00000   0.00000
           Z            0.00000   0.00000   1.00000
 This molecule is a prolate symmetric top.
 Rotational symmetry number  1.
 Rotational temperature (Kelvin)      1.26606
 Rotational constant (GHZ):          26.380364
    2 imaginary frequencies ignored.
 Zero-point vibrational energy      16454.8 (Joules/Mol)
                                    3.93279 (Kcal/Mol)
 Vibrational temperatures:   1941.20  2016.91
          (Kelvin)

 Zero-point correction=                           0.006267 (Hartree/Particle)
 Thermal correction to Energy=                    0.008644
 Thermal correction to Enthalpy=                  0.009588
 Thermal correction to Gibbs Free Energy=        -0.013848
 Sum of electronic and zero-point Energies=           -100.857546
 Sum of electronic and thermal Energies=              -100.855169
 Sum of electronic and thermal Enthalpies=            -100.854225
 Sum of electronic and thermal Free Energies=         -100.877661

                     E (Thermal)             CV                S
                      KCal/Mol        Cal/Mol-Kelvin    Cal/Mol-Kelvin
 Total                    5.424              5.199             49.326
 Electronic               0.000              0.000              1.377
 Translational            0.889              2.981             35.068
 Rotational               0.592              1.987             12.841
 Vibrational              3.943              0.231              0.040

 Normal termination of Gaussian 16 at Fri Aug 22 17:52:56 2025.
