 Gaussian 16, Revision C.01,
 Gaussian 16:  ES64L-G16RevC.01  3-Jul-2019

 -----------------------------------------
 # sp b3lyp/6-311g** Force nosymm scf=(qc)
 -----------------------------------------

 -------------------
 Title Card Required
 -------------------
 Symbolic Z-matrix:
 Charge =  0 Multiplicity = 2

                          Input orientation:
 ---------------------------------------------------------------------
 Center     Atomic      Atomic             Coordinates (Angstroms)
 Number     Number       Type             X           Y           Z
 ---------------------------------------------------------------------
      1          1           0        0.000000    0.000000    0.000000
      2          1           0       -0.500000    0.000000    0.000000
      3          9           0        1.850000    0.000000    0.000000
 ---------------------------------------------------------------------

 SCF Done:  E(UB3LYP) =  -100.860477413     a.u. after    6 cycles

 Alpha  occ. eigenvalues --  -24.74949  -1.21134  -0.56749  -0.48878  -0.45518
 Alpha  occ. eigenvalues --   -0.45518
 Alpha virt. eigenvalues --    0.12014   0.19704   0.52824   0.89925   0.89925
 Alpha virt. eigenvalues --    0.94685   1.11556   1.11556   1.21981   1.66669
 Alpha virt. eigenvalues --    1.84124   1.98996   1.98996   2.48611   3.68339

  Beta  occ. eigenvalues --  -24.71884  -1.12430  -0.51122  -0.42471  -0.42471
  Beta virt. eigenvalues --   -0.25206   0.12498   0.20336   0.53839   0.91276
  Beta virt. eigenvalues --    0.91276   1.02113   1.12205   1.12205   1.25720
  Beta virt. eigenvalues --    1.67930   1.84732   1.99215   1.99215   2.49465

 Mulliken charges and spin densities:
               1          2
     1  H    0.013070  -0.020654
     2  H    0.019251   0.064540
     3  F   -0.032320   0.956114
 Sum of Mulliken charges =   0.00000   1.00000

 Dipole moment (field-independent basis, Debye):
    X=             -0.3164    Y=              0.0000    Z=             -0.0000  Tot=              0.3164
 Quadrupole moment (field-independent basis, Debye-Ang):
   XX=             -5.8765   YY=             -6.5495   ZZ=             -6.5495
   XY=              0.0000   XZ=             -0.0000   YZ=              0.0000

  Exact polarizability:      10.736      -0.000       2.016       0.000      -0.000       2.016
 Approx polarizability:      11.235       0.000       2.090      -0.000      -0.000       2.090

 ******    2 imaginary frequencies (negative Signs) ******

                      1                      2                      3
                      A                      A                      A
 Frequencies --  -4857.9983             -4857.9983               329.8709
 Red. masses --      1.0092                 1.0092                 1.1085
 Frc consts  --     14.0333                14.0333                 0.0711
 IR Inten    --      0.6650                 0.6650                17.7441

                      4
                      A
 Frequencies --   9926.1236
 Red. masses --      1.0078
 Frc consts  --     58.5052
 IR Inten    --    140.6820

 - Thermochemistry -
 -------------------
 Temperature   298.150 Kelvin.  Pressure   1.00000 Atm.
 Atom     1 has atomic number  1 and mass   1.00783

 Molecular mass:    21.01405 amu.
 Principal axes and moments of inertia in atomic units:
                           1         2         3
     Eigenvalues --     0.00000  29.14835  29.14835
           X            1.00000  -0.00000   0.00000
           Y            0.00000   1.00000   0.00000
           Z            0.00000   0.00000   1.00000
 This molecule is a prolate symmetric top.
 Rotational symmetry number  1.
 Rotational temperature (Kelvin)      2.97149
 Rotational constant (GHZ):          61.915734
    2 imaginary frequencies ignored.
 Zero-point vibrational energy      61344.5 (Joules/Mol)
                                   14.66168 (Kcal/Mol)
 Warning -- explicit consideration of   1 degrees of freedom as
           vibrations may cause significant error
 Vibrational temperatures:    474.61 14281.48
          (Kelvin)

 Zero-point correction=                           0.023365 (Hartree/Particle)
 Thermal correction to Energy=                    0.026109
 Thermal correction to Enthalpy=                  0.027054
 Thermal correction to Gibbs Free Energy=         0.003843
 Sum of electronic and zero-point Energies=           -100.837113
 Sum of electronic and thermal Energies=              -100.834368
 Sum of electronic and thermal Enthalpies=            -100.833424
 Sum of electronic and thermal Free Energies=         -100.856635

                     E (Thermal)             CV                S
                      KCal/Mol        Cal/Mol-Kelvin    Cal/Mol-Kelvin
 Total                   16.384              6.584             48.851
 Electronic               0.000              0.000              1.377
 Translational            0.889              2.981             35.068
 Rotational               0.592              1.987             11.145
 Vibrational             14.903              1.616              1.261
 Vibration     1          0.713              1.616              1.261

 Normal termination of Gaussian 16 at Fri Aug 22 16:45:24 2025.
