 Gaussian 16, Revision C.01,
 Gaussian 16:  ES64L-G16RevC.01  3-Jul-2019

 -----------------------------------------
 # sp b3lyp/6-311g** Force nosymm scf=(qc)
 -----------------------------------------

 -------------------
 Title Card Required
 -------------------
 Symbolic Z-matrix:
 Charge =  0 Multiplicity = 2

                          Input orientation:
 ---------------------------------------------------------------------
 Center     Atomic      Atomic             Coordinates (Angstroms)
 Number     Number       Type             X           Y           Z
 ---------------------------------------------------------------------
      1          1           0        0.000000    0.000000    0.000000
      2          1           0       -0.950000    0.000000    0.000000
      3          9           0        1.550000    0.000000    0.000000
 ---------------------------------------------------------------------

 SCF Done:  E(UB3LYP) =  -100.927026743     a.u. after    8 cycles

 Alpha  occ. eigenvalues --  -24.70014  -1.16941  -0.53300  -0.41676  -0.41676
 Alpha  occ. eigenvalues --   -0.41329
 Alpha virt. eigenvalues --    0.04166   0.20116   0.36318   0.89799   0.89799
 Alpha virt. eigenvalues --    0.97859   1.07355   1.07355   1.18712   1.65341
 Alpha virt. eigenvalues --    1.66884   1.66884   2.20473   2.33587   2.57066

  Beta  occ. eigenvalues --  -24.67550  -1.10162  -0.44357  -0.39275  -0.39275
  Beta virt. eigenvalues --   -0.23668   0.06247   0.21425   0.38132   0.90838
  Beta virt. eigenvalues --    0.90838   1.03949   1.10006   1.10006   1.22063
  Beta virt. eigenvalues --    1.68453   1.68453   1.68747   2.22546   2.36800

 Mulliken charges and spin densities:
               1          2
     1  H    0.132005  -0.084788
     2  H    0.044977   0.331934
     3  F   -0.176982   0.752855
 Sum of Mulliken charges =   0.00000   1.00000

 Dipole moment (field-independent basis, Debye):
    X=             -1.5333    Y=             -0.0000    Z=              0.0000  Tot=              1.5333
 Quadrupole moment (field-independent basis, Debye-Ang):
   XX=             -7.1689   YY=             -6.9998   ZZ=             -6.9998
   XY=             -0.0000   XZ=              0.0000   YZ=             -0.0000

  Exact polarizability:      27.183       0.000       2.337       0.000      -0.000       2.337
 Approx polarizability:      38.305       0.000       2.343      -0.000      -0.000       2.343

 ******    1 imaginary frequencies (negative Signs) ******

                      1                      2                      3
                      A                      A                      A
 Frequencies --  -1184.2846              1237.4863              1237.4863
 Red. masses --      1.0801                 1.0131                 1.0131
 Frc consts  --      0.8925                 0.9141                 0.9141
 IR Inten    --    568.1636                 2.2106                 2.2106

                      4
                      A
 Frequencies --   1494.3105
 Red. masses --      1.0325
 Frc consts  --      1.3584
 IR Inten    --    489.4712

 - Thermochemistry -
 -------------------
 Temperature   298.150 Kelvin.  Pressure   1.00000 Atm.
 Atom     1 has atomic number  1 and mass   1.00783

 Molecular mass:    21.01405 amu.
 Principal axes and moments of inertia in atomic units:
                           1         2         3
     Eigenvalues --     0.00000  28.30924  28.30924
           X            1.00000  -0.00000   0.00000
           Y            0.00000   1.00000   0.00000
           Z            0.00000   0.00000   1.00000
 This molecule is a prolate symmetric top.
 Rotational symmetry number  1.
 Rotational temperature (Kelvin)      3.05956
 Rotational constant (GHZ):          63.750967
    1 imaginary frequencies ignored.
 Zero-point vibrational energy      23741.6 (Joules/Mol)
                                    5.67437 (Kcal/Mol)
 Vibrational temperatures:   1780.47  1780.47  2149.98
          (Kelvin)

 Zero-point correction=                           0.009043 (Hartree/Particle)
 Thermal correction to Energy=                    0.011437
 Thermal correction to Enthalpy=                  0.012381
 Thermal correction to Gibbs Free Energy=        -0.010242
 Sum of electronic and zero-point Energies=           -100.917984
 Sum of electronic and thermal Energies=              -100.915590
 Sum of electronic and thermal Enthalpies=            -100.914646
 Sum of electronic and thermal Free Energies=         -100.937269

                     E (Thermal)             CV                S
                      KCal/Mol        Cal/Mol-Kelvin    Cal/Mol-Kelvin
 Total                    7.177              5.408             47.616
 Electronic               0.000              0.000              1.377
 Translational            0.889              2.981             35.068
 Rotational               0.592              1.987             11.087
 Vibrational              5.696              0.440              0.083

 Normal termination of Gaussian 16 at Fri Aug 22 16:27:19 2025.
