 Gaussian 16, Revision C.01,
 Gaussian 16:  ES64L-G16RevC.01  3-Jul-2019

 -----------------------------------------
 # sp b3lyp/6-311g** Force nosymm scf=(qc)
 -----------------------------------------

 -------------------
 Title Card Required
 -------------------
 Symbolic Z-matrix:
 Charge =  0 Multiplicity = 2

                          Input orientation:
 ---------------------------------------------------------------------
 Center     Atomic      Atomic             Coordinates (Angstroms)
 Number     Number       Type             X           Y           Z
 ---------------------------------------------------------------------
      1          1           0        0.000000    0.000000    0.000000
      2          1           0       -3.250000    0.000000    0.000000
      3          9           0        2.550000    0.000000    0.000000
 ---------------------------------------------------------------------

 SCF Done:  E(UB3LYP) =  -100.766772164     a.u. after   19 cycles

 Alpha  occ. eigenvalues --  -24.72028  -1.18227  -0.51134  -0.42952  -0.42952
 Alpha  occ. eigenvalues --   -0.32978
 Alpha virt. eigenvalues --   -0.10262   0.23797   0.35097   0.89869   0.93461
 Alpha virt. eigenvalues --    0.93461   1.06239   1.24543   1.24543   1.24964
 Alpha virt. eigenvalues --    1.40937   1.40937   1.44023   2.14837   2.36188

  Beta  occ. eigenvalues --  -24.69161  -1.10058  -0.40092  -0.40092  -0.35161
  Beta virt. eigenvalues --   -0.23530  -0.07225   0.24271   0.37427   0.94844
  Beta virt. eigenvalues --    0.94844   0.96741   1.08800   1.22261   1.22261
  Beta virt. eigenvalues --    1.28385   1.45169   1.45386   1.45386   2.13600

 Mulliken charges and spin densities:
               1          2
     1  H    0.081611  -0.902512
     2  H    0.001589   0.996103
     3  F   -0.083200   0.906408
 Sum of Mulliken charges =  -0.00000   1.00000

 Dipole moment (field-independent basis, Debye):
    X=             -1.1060    Y=             -0.0000    Z=              0.0000  Tot=              1.1060
 Quadrupole moment (field-independent basis, Debye-Ang):
   XX=             -9.1526   YY=             -7.5814   ZZ=             -7.5814
   XY=             -0.0000   XZ=              0.0000   YZ=              0.0000

  Exact polarizability:      32.554      -0.000       2.023       0.000       0.000       2.023
 Approx polarizability:      39.531      -0.000       1.920       0.000      -0.000       1.920

 ******    2 imaginary frequencies (negative Signs) ******

                      1                      2                      3
                      A                      A                      A
 Frequencies --   -600.2920              -160.5455               232.1737
 Red. masses --      1.0499                 1.0617                 1.0211
 Frc consts  --      0.2229                 0.0161                 0.0324
 IR Inten    --     74.7138                 1.0259                 6.2340

                      4
                      A
 Frequencies --    232.1737
 Red. masses --      1.0211
 Frc consts  --      0.0324
 IR Inten    --      6.2340

 - Thermochemistry -
 -------------------
 Temperature   298.150 Kelvin.  Pressure   1.00000 Atm.
 Atom     1 has atomic number  1 and mass   1.00783

 Molecular mass:    21.01405 amu.
 Principal axes and moments of inertia in atomic units:
                           1         2         3
     Eigenvalues --     0.00000 132.43861 132.43861
           X            1.00000  -0.00000   0.00000
           Y            0.00000   1.00000   0.00000
           Z            0.00000   0.00000   1.00000
 This molecule is a prolate symmetric top.
 Rotational symmetry number  1.
 Rotational temperature (Kelvin)      0.65399
 Rotational constant (GHZ):          13.627002
    2 imaginary frequencies ignored.
 Zero-point vibrational energy       2777.4 (Joules/Mol)
                                    0.66382 (Kcal/Mol)
 Warning -- explicit consideration of   2 degrees of freedom as
           vibrations may cause significant error
 Vibrational temperatures:    334.05   334.05
          (Kelvin)

 Zero-point correction=                           0.001058 (Hartree/Particle)
 Thermal correction to Energy=                    0.004442
 Thermal correction to Enthalpy=                  0.005387
 Thermal correction to Gibbs Free Energy=        -0.020424
 Sum of electronic and zero-point Energies=           -100.765714
 Sum of electronic and thermal Energies=              -100.762330
 Sum of electronic and thermal Enthalpies=            -100.761386
 Sum of electronic and thermal Free Energies=         -100.787196

                     E (Thermal)             CV                S
                      KCal/Mol        Cal/Mol-Kelvin    Cal/Mol-Kelvin
 Total                    2.788              8.552             54.323
 Electronic               0.000              0.000              1.377
 Translational            0.889              2.981             35.068
 Rotational               0.592              1.987             14.153
 Vibrational              1.306              3.584              3.724
 Vibration     1          0.653              1.792              1.862
 Vibration     2          0.653              1.792              1.862

 Normal termination of Gaussian 16 at Fri Aug 22 17:55:03 2025.
