 Gaussian 16, Revision C.01,
 Gaussian 16:  ES64L-G16RevC.01  3-Jul-2019

 -----------------------------------------
 # sp b3lyp/6-311g** Force nosymm scf=(qc)
 -----------------------------------------

 -------------------
 Title Card Required
 -------------------
 Symbolic Z-matrix:
 Charge =  0 Multiplicity = 2

                          Input orientation:
 ---------------------------------------------------------------------
 Center     Atomic      Atomic             Coordinates (Angstroms)
 Number     Number       Type             X           Y           Z
 ---------------------------------------------------------------------
      1          1           0        0.000000    0.000000    0.000000
      2          1           0       -1.250000    0.000000    0.000000
      3          9           0        1.750000    0.000000    0.000000
 ---------------------------------------------------------------------

 SCF Done:  E(UB3LYP) =  -100.879258247     a.u. after   13 cycles

 Alpha  occ. eigenvalues --  -24.69404  -1.15942  -0.50080  -0.40922  -0.40922
 Alpha  occ. eigenvalues --   -0.39698
 Alpha virt. eigenvalues --   -0.04886   0.21077   0.31871   0.92309   0.92309
 Alpha virt. eigenvalues --    0.92644   1.05032   1.10867   1.10867   1.46133
 Alpha virt. eigenvalues --    1.49028   1.49028   2.04654   2.25392   2.52175

  Beta  occ. eigenvalues --  -24.66964  -1.09150  -0.40107  -0.38525  -0.38525
  Beta virt. eigenvalues --   -0.23827  -0.02460   0.22823   0.32525   0.93157
  Beta virt. eigenvalues --    0.93157   0.98218   1.08213   1.13517   1.13517
  Beta virt. eigenvalues --    1.50206   1.50360   1.50360   2.07393   2.27457

 Mulliken charges and spin densities:
               1          2
     1  H    0.111276  -0.186080
     2  H    0.065047   0.426535
     3  F   -0.176323   0.759545
 Sum of Mulliken charges =  -0.00000   1.00000

 Dipole moment (field-independent basis, Debye):
    X=             -1.8848    Y=             -0.0000    Z=              0.0000  Tot=              1.8848
 Quadrupole moment (field-independent basis, Debye-Ang):
   XX=             -7.4628   YY=             -7.3098   ZZ=             -7.3098
   XY=             -0.0000   XZ=             -0.0000   YZ=              0.0000

  Exact polarizability:      40.317      -0.000       2.245       0.000      -0.000       2.245
 Approx polarizability:      62.447      -0.000       2.214       0.000       0.000       2.214

 ******    2 imaginary frequencies (negative Signs) ******

                      1                      2                      3
                      A                      A                      A
 Frequencies --  -2124.9182              -224.4408              1276.0921
 Red. masses --      1.0189                 1.0954                 1.0144
 Frc consts  --      2.7105                 0.0325                 0.9732
 IR Inten    --   1193.1973                 2.6918                 2.5540

                      4
                      A
 Frequencies --   1276.0921
 Red. masses --      1.0144
 Frc consts  --      0.9732
 IR Inten    --      2.5540

 - Thermochemistry -
 -------------------
 Temperature   298.150 Kelvin.  Pressure   1.00000 Atm.
 Atom     1 has atomic number  1 and mass   1.00783

 Molecular mass:    21.01405 amu.
 Principal axes and moments of inertia in atomic units:
                           1         2         3
     Eigenvalues --     0.00000  39.51860  39.51860
           X            1.00000  -0.00000   0.00000
           Y            0.00000   1.00000   0.00000
           Z            0.00000   0.00000   1.00000
 This molecule is a prolate symmetric top.
 Rotational symmetry number  1.
 Rotational temperature (Kelvin)      2.19173
 Rotational constant (GHZ):          45.668150
    2 imaginary frequencies ignored.
 Zero-point vibrational energy      15265.5 (Joules/Mol)
                                    3.64853 (Kcal/Mol)
 Vibrational temperatures:   1836.01  1836.01
          (Kelvin)

 Zero-point correction=                           0.005814 (Hartree/Particle)
 Thermal correction to Energy=                    0.008199
 Thermal correction to Enthalpy=                  0.009144
 Thermal correction to Gibbs Free Energy=        -0.013784
 Sum of electronic and zero-point Energies=           -100.873444
 Sum of electronic and thermal Energies=              -100.871059
 Sum of electronic and thermal Enthalpies=            -100.870115
 Sum of electronic and thermal Free Energies=         -100.893043

                     E (Thermal)             CV                S
                      KCal/Mol        Cal/Mol-Kelvin    Cal/Mol-Kelvin
 Total                    5.145              5.288             48.256
 Electronic               0.000              0.000              1.377
 Translational            0.889              2.981             35.068
 Rotational               0.592              1.987             11.750
 Vibrational              3.664              0.320              0.060

 Normal termination of Gaussian 16 at Fri Aug 22 16:39:46 2025.
