 Gaussian 16, Revision C.01,
 Gaussian 16:  ES64L-G16RevC.01  3-Jul-2019

 -----------------------------------------
 # sp b3lyp/6-311g** Force nosymm scf=(qc)
 -----------------------------------------

 -------------------
 Title Card Required
 -------------------
 Symbolic Z-matrix:
 Charge =  0 Multiplicity = 2

                          Input orientation:
 ---------------------------------------------------------------------
 Center     Atomic      Atomic             Coordinates (Angstroms)
 Number     Number       Type             X           Y           Z
 ---------------------------------------------------------------------
      1          1           0        0.000000    0.000000    0.000000
      2          1           0       -1.650000    0.000000    0.000000
      3          9           0        2.850000    0.000000    0.000000
 ---------------------------------------------------------------------

 SCF Done:  E(UB3LYP) =  -100.802085148     a.u. after   42 cycles

 Alpha  occ. eigenvalues --  -24.74362  -1.20402  -0.53494  -0.44915  -0.44915
 Alpha  occ. eigenvalues --   -0.34547
 Alpha virt. eigenvalues --   -0.11481   0.24733   0.30379   0.89968   0.92073
 Alpha virt. eigenvalues --    0.92073   1.04064   1.07370   1.21762   1.21762
 Alpha virt. eigenvalues --    1.37405   1.37405   1.69896   2.16739   2.42888

  Beta  occ. eigenvalues --  -24.71333  -1.11719  -0.41883  -0.41883  -0.34324
  Beta virt. eigenvalues --   -0.25156  -0.11102   0.25542   0.30463   0.93529
  Beta virt. eigenvalues --    0.93529   0.98219   1.05797   1.10274   1.22031
  Beta virt. eigenvalues --    1.22031   1.37754   1.37754   1.70378   2.17710

 Mulliken charges and spin densities:
               1          2
     1  H    0.009722  -0.533303
     2  H    0.024493   0.573690
     3  F   -0.034215   0.959613
 Sum of Mulliken charges =   0.00000   1.00000

 Dipole moment (field-independent basis, Debye):
    X=             -0.6902    Y=             -0.0000    Z=              0.0000  Tot=              0.6902
 Quadrupole moment (field-independent basis, Debye-Ang):
   XX=             -6.7829   YY=             -7.7329   ZZ=             -7.7329
   XY=             -0.0000   XZ=              0.0000   YZ=              0.0000

  Exact polarizability:      60.710      -0.000       2.022       0.000      -0.000       2.022
 Approx polarizability:      72.267      -0.000       1.984       0.000      -0.000       1.984

 ******    2 imaginary frequencies (negative Signs) ******

                      1                      2                      3
                      A                      A                      A
 Frequencies --  -1992.7561              -248.2892               956.0557
 Red. masses --      1.0080                 1.1084                 1.0127
 Frc consts  --      2.3583                 0.0403                 0.5454
 IR Inten    --    187.4000                30.5853                 0.0000

                      4
                      A
 Frequencies --    956.0557
 Red. masses --      1.0127
 Frc consts  --      0.5454
 IR Inten    --      0.0000

 - Thermochemistry -
 -------------------
 Temperature   298.150 Kelvin.  Pressure   1.00000 Atm.
 Atom     1 has atomic number  1 and mass   1.00783

 Molecular mass:    21.01405 amu.
 Principal axes and moments of inertia in atomic units:
                           1         2         3
     Eigenvalues --     0.00000  92.78821  92.78821
           X            1.00000  -0.00000   0.00000
           Y            0.00000   1.00000   0.00000
           Z            0.00000   0.00000   1.00000
 This molecule is a prolate symmetric top.
 Rotational symmetry number  1.
 Rotational temperature (Kelvin)      0.93346
 Rotational constant (GHZ):          19.450113
    2 imaginary frequencies ignored.
 Zero-point vibrational energy      11437.0 (Joules/Mol)
                                    2.73350 (Kcal/Mol)
 Vibrational temperatures:   1375.55  1375.55
          (Kelvin)

 Zero-point correction=                           0.004356 (Hartree/Particle)
 Thermal correction to Energy=                    0.006804
 Thermal correction to Enthalpy=                  0.007748
 Thermal correction to Gibbs Free Energy=        -0.016063
 Sum of electronic and zero-point Energies=           -100.797729
 Sum of electronic and thermal Energies=              -100.795281
 Sum of electronic and thermal Enthalpies=            -100.794337
 Sum of electronic and thermal Free Energies=         -100.818148

                     E (Thermal)             CV                S
                      KCal/Mol        Cal/Mol-Kelvin    Cal/Mol-Kelvin
 Total                    4.269              5.824             50.115
 Electronic               0.000              0.000              1.377
 Translational            0.889              2.981             35.068
 Rotational               0.592              1.987             13.446
 Vibrational              2.788              0.856              0.223

 Normal termination of Gaussian 16 at Fri Aug 22 18:52:43 2025.
