 Gaussian 16, Revision C.01,
 Gaussian 16:  ES64L-G16RevC.01  3-Jul-2019

 -----------------------------------------
 # sp b3lyp/6-311g** Force nosymm scf=(qc)
 -----------------------------------------

 -------------------
 Title Card Required
 -------------------
 Symbolic Z-matrix:
 Charge =  0 Multiplicity = 2

                          Input orientation:
 ---------------------------------------------------------------------
 Center     Atomic      Atomic             Coordinates (Angstroms)
 Number     Number       Type             X           Y           Z
 ---------------------------------------------------------------------
      1          1           0        0.000000    0.000000    0.000000
      2          1           0       -3.400000    0.000000    0.000000
      3          9           0        3.000000    0.000000    0.000000
 ---------------------------------------------------------------------

 SCF Done:  E(UB3LYP) =  -100.761177596     a.u. after   21 cycles

 Alpha  occ. eigenvalues --  -24.74086  -1.20146  -0.53205  -0.44675  -0.44675
 Alpha  occ. eigenvalues --   -0.32569
 Alpha virt. eigenvalues --   -0.08297   0.24114   0.35972   0.89394   0.92275
 Alpha virt. eigenvalues --    0.92275   1.03909   1.24941   1.24941   1.25171
 Alpha virt. eigenvalues --    1.43720   1.43720   1.44020   2.14954   2.39848

  Beta  occ. eigenvalues --  -24.71059  -1.11471  -0.41645  -0.41645  -0.33738
  Beta virt. eigenvalues --   -0.24776  -0.06750   0.24074   0.37723   0.93736
  Beta virt. eigenvalues --    0.93736   0.98084   1.07645   1.23600   1.23600
  Beta virt. eigenvalues --    1.24126   1.45604   1.45864   1.45864   2.15159

 Mulliken charges and spin densities:
               1          2
     1  H    0.036526  -0.956595
     2  H    0.000581   0.997350
     3  F   -0.037107   0.959245
 Sum of Mulliken charges =  -0.00000   1.00000

 Dipole moment (field-independent basis, Debye):
    X=             -0.5812    Y=              0.0000    Z=             -0.0000  Tot=              0.5812
 Quadrupole moment (field-independent basis, Debye-Ang):
   XX=             -8.2900   YY=             -7.6111   ZZ=             -7.6111
   XY=             -0.0000   XZ=             -0.0000   YZ=             -0.0000

  Exact polarizability:      32.273      -0.000       2.025      -0.000      -0.000       2.025
 Approx polarizability:      32.644      -0.000       1.926      -0.000       0.000       1.926

 ******    2 imaginary frequencies (negative Signs) ******

                      1                      2                      3
                      A                      A                      A
 Frequencies --   -385.8049              -130.7655               137.1183
 Red. masses --      1.0434                 1.0684                 1.0195
 Frc consts  --      0.0915                 0.0108                 0.0113
 IR Inten    --     38.8631                 1.0495                 1.2389

                      4
                      A
 Frequencies --    137.1183
 Red. masses --      1.0195
 Frc consts  --      0.0113
 IR Inten    --      1.2389

 - Thermochemistry -
 -------------------
 Temperature   298.150 Kelvin.  Pressure   1.00000 Atm.
 Atom     1 has atomic number  1 and mass   1.00783

 Molecular mass:    21.01405 amu.
 Principal axes and moments of inertia in atomic units:
                           1         2         3
     Eigenvalues --     0.00000 164.55492 164.55492
           X            1.00000  -0.00000   0.00000
           Y            0.00000   1.00000   0.00000
           Z            0.00000   0.00000   1.00000
 This molecule is a prolate symmetric top.
 Rotational symmetry number  1.
 Rotational temperature (Kelvin)      0.52635
 Rotational constant (GHZ):          10.967410
    2 imaginary frequencies ignored.
 Zero-point vibrational energy       1640.3 (Joules/Mol)
                                    0.39204 (Kcal/Mol)
 Warning -- explicit consideration of   2 degrees of freedom as
           vibrations may cause significant error
 Vibrational temperatures:    197.28   197.28
          (Kelvin)

 Zero-point correction=                           0.000625 (Hartree/Particle)
 Thermal correction to Energy=                    0.004317
 Thermal correction to Enthalpy=                  0.005261
 Thermal correction to Gibbs Free Energy=        -0.021687
 Sum of electronic and zero-point Energies=           -100.760553
 Sum of electronic and thermal Energies=              -100.756860
 Sum of electronic and thermal Enthalpies=            -100.755916
 Sum of electronic and thermal Free Energies=         -100.782865

                     E (Thermal)             CV                S
                      KCal/Mol        Cal/Mol-Kelvin    Cal/Mol-Kelvin
 Total                    2.709              8.801             56.718
 Electronic               0.000              0.000              1.377
 Translational            0.889              2.981             35.068
 Rotational               0.592              1.987             14.585
 Vibrational              1.228              3.833              5.687
 Vibration     1          0.614              1.916              2.844
 Vibration     2          0.614              1.916              2.844

 Normal termination of Gaussian 16 at Fri Aug 22 19:33:03 2025.
