 Gaussian 16, Revision C.01,
 Gaussian 16:  ES64L-G16RevC.01  3-Jul-2019

 -----------------------------------------
 # sp b3lyp/6-311g** Force nosymm scf=(qc)
 -----------------------------------------

 -------------------
 Title Card Required
 -------------------
 Symbolic Z-matrix:
 Charge =  0 Multiplicity = 2

                          Input orientation:
 ---------------------------------------------------------------------
 Center     Atomic      Atomic             Coordinates (Angstroms)
 Number     Number       Type             X           Y           Z
 ---------------------------------------------------------------------
      1          1           0        0.000000    0.000000    0.000000
      2          1           0       -2.500000    0.000000    0.000000
      3          9           0        1.800000    0.000000    0.000000
 ---------------------------------------------------------------------

 SCF Done:  E(UB3LYP) =  -100.807769850     a.u. after   17 cycles

 Alpha  occ. eigenvalues --  -24.66399  -1.12607  -0.45269  -0.38168  -0.38168
 Alpha  occ. eigenvalues --   -0.35373
 Alpha virt. eigenvalues --   -0.14480   0.23518   0.29250   0.93550   0.94934
 Alpha virt. eigenvalues --    0.94934   1.06368   1.22257   1.22257   1.25122
 Alpha virt. eigenvalues --    1.33756   1.33756   1.70024   2.13207   2.26161

  Beta  occ. eigenvalues --  -24.64485  -1.07336  -0.39075  -0.36300  -0.36300
  Beta virt. eigenvalues --   -0.19445  -0.09787   0.24269   0.34686   0.94803
  Beta virt. eigenvalues --    0.94981   0.94981   1.08494   1.24187   1.24187
  Beta virt. eigenvalues --    1.41119   1.41119   1.42507   1.65673   2.13349

 Mulliken charges and spin densities:
               1          2
     1  H    0.235984  -0.572148
     2  H    0.020393   0.970319
     3  F   -0.256377   0.601830
 Sum of Mulliken charges =   0.00000   1.00000

 Dipole moment (field-independent basis, Debye):
    X=             -2.4989    Y=              0.0000    Z=              0.0000  Tot=              2.4989
 Quadrupole moment (field-independent basis, Debye-Ang):
   XX=             -9.5042   YY=             -7.4641   ZZ=             -7.4641
   XY=              0.0000   XZ=              0.0000   YZ=              0.0000

  Exact polarizability:      33.793       0.000       2.100       0.000       0.000       2.100
 Approx polarizability:      43.962       0.000       1.996       0.000      -0.000       1.996

 ******    2 imaginary frequencies (negative Signs) ******

                      1                      2                      3
                      A                      A                      A
 Frequencies --  -1563.2957              -378.1687               663.1226
 Red. masses --      1.0492                 1.0624                 1.0224
 Frc consts  --      1.5108                 0.0895                 0.2649
 IR Inten    --     94.8185                11.6531                45.8981

                      4
                      A
 Frequencies --    663.1226
 Red. masses --      1.0224
 Frc consts  --      0.2649
 IR Inten    --     45.8981

 - Thermochemistry -
 -------------------
 Temperature   298.150 Kelvin.  Pressure   1.00000 Atm.
 Atom     1 has atomic number  1 and mass   1.00783

 Molecular mass:    21.01405 amu.
 Principal axes and moments of inertia in atomic units:
                           1         2         3
     Eigenvalues --     0.00000  71.78375  71.78375
           X            1.00000  -0.00000   0.00000
           Y            0.00000   1.00000   0.00000
           Z            0.00000   0.00000   1.00000
 This molecule is a prolate symmetric top.
 Rotational symmetry number  1.
 Rotational temperature (Kelvin)      1.20660
 Rotational constant (GHZ):          25.141361
    2 imaginary frequencies ignored.
 Zero-point vibrational energy       7932.7 (Joules/Mol)
                                    1.89596 (Kcal/Mol)
 Vibrational temperatures:    954.09   954.09
          (Kelvin)

 Zero-point correction=                           0.003021 (Hartree/Particle)
 Thermal correction to Energy=                    0.005639
 Thermal correction to Enthalpy=                  0.006583
 Thermal correction to Gibbs Free Energy=        -0.017215
 Sum of electronic and zero-point Energies=           -100.804748
 Sum of electronic and thermal Energies=              -100.802131
 Sum of electronic and thermal Enthalpies=            -100.801187
 Sum of electronic and thermal Free Energies=         -100.824985

                     E (Thermal)             CV                S
                      KCal/Mol        Cal/Mol-Kelvin    Cal/Mol-Kelvin
 Total                    3.538              6.771             50.088
 Electronic               0.000              0.000              1.377
 Translational            0.889              2.981             35.068
 Rotational               0.592              1.987             12.936
 Vibrational              2.057              1.803              0.706

 Normal termination of Gaussian 16 at Fri Aug 22 16:44:00 2025.
