 Gaussian 16, Revision C.01,
 Gaussian 16:  ES64L-G16RevC.01  3-Jul-2019

 -----------------------------------------
 # sp b3lyp/6-311g** Force nosymm scf=(qc)
 -----------------------------------------

 -------------------
 Title Card Required
 -------------------
 Symbolic Z-matrix:
 Charge =  0 Multiplicity = 2

                          Input orientation:
 ---------------------------------------------------------------------
 Center     Atomic      Atomic             Coordinates (Angstroms)
 Number     Number       Type             X           Y           Z
 ---------------------------------------------------------------------
      1          1           0        0.000000    0.000000    0.000000
      2          1           0       -3.800000    0.000000    0.000000
      3          9           0        2.150000    0.000000    0.000000
 ---------------------------------------------------------------------

 SCF Done:  E(UB3LYP) =  -100.778676226     a.u. after   16 cycles

 Alpha  occ. eigenvalues --  -24.69403  -1.15720  -0.48447  -0.40756  -0.40756
 Alpha  occ. eigenvalues --   -0.33096
 Alpha virt. eigenvalues --   -0.12634   0.22777   0.32984   0.88236   0.94610
 Alpha virt. eigenvalues --    0.94610   1.05826   1.24409   1.24409   1.24429
 Alpha virt. eigenvalues --    1.37018   1.37018   1.53689   2.13858   2.31853

  Beta  occ. eigenvalues --  -24.66829  -1.08474  -0.38207  -0.38207  -0.37049
  Beta virt. eigenvalues --   -0.21677  -0.06422   0.22953   0.38066   0.90716
  Beta virt. eigenvalues --    0.95605   0.95605   1.08127   1.21521   1.21521
  Beta virt. eigenvalues --    1.44502   1.46332   1.46408   1.46408   2.11433

 Mulliken charges and spin densities:
               1          2
     1  H    0.154889  -0.809154
     2  H    0.000636   0.998950
     3  F   -0.155525   0.810204
 Sum of Mulliken charges =  -0.00000   1.00000

 Dipole moment (field-independent basis, Debye):
    X=             -1.6808    Y=             -0.0000    Z=             -0.0000  Tot=              1.6808
 Quadrupole moment (field-independent basis, Debye-Ang):
   XX=             -9.9076   YY=             -7.5164   ZZ=             -7.5164
   XY=             -0.0000   XZ=             -0.0000   YZ=              0.0000

  Exact polarizability:      26.785      -0.000       2.045      -0.000       0.000       2.045
 Approx polarizability:      37.711      -0.000       1.932      -0.000       0.000       1.932

 ******    2 imaginary frequencies (negative Signs) ******

                      1                      2                      3
                      A                      A                      A
 Frequencies --   -920.1634               -84.9138               387.2004
 Red. masses --      1.0574                 1.0542                 1.0261
 Frc consts  --      0.5275                 0.0045                 0.0906
 IR Inten    --    110.1082                 0.0671                23.0319

                      4
                      A
 Frequencies --    387.2004
 Red. masses --      1.0261
 Frc consts  --      0.0906
 IR Inten    --     23.0319

 - Thermochemistry -
 -------------------
 Temperature   298.150 Kelvin.  Pressure   1.00000 Atm.
 Atom     1 has atomic number  1 and mass   1.00783

 Molecular mass:    21.01405 amu.
 Principal axes and moments of inertia in atomic units:
                           1         2         3
     Eigenvalues --     0.00000 132.72558 132.72558
           X            1.00000  -0.00000   0.00000
           Y            0.00000   1.00000   0.00000
           Z            0.00000   0.00000   1.00000
 This molecule is a prolate symmetric top.
 Rotational symmetry number  1.
 Rotational temperature (Kelvin)      0.65258
 Rotational constant (GHZ):          13.597539
    2 imaginary frequencies ignored.
 Zero-point vibrational energy       4631.9 (Joules/Mol)
                                    1.10706 (Kcal/Mol)
 Warning -- explicit consideration of   2 degrees of freedom as
           vibrations may cause significant error
 Vibrational temperatures:    557.10   557.10
          (Kelvin)

 Zero-point correction=                           0.001764 (Hartree/Particle)
 Thermal correction to Energy=                    0.004769
 Thermal correction to Enthalpy=                  0.005713
 Thermal correction to Gibbs Free Energy=        -0.019291
 Sum of electronic and zero-point Energies=           -100.776912
 Sum of electronic and thermal Energies=              -100.773908
 Sum of electronic and thermal Enthalpies=            -100.772963
 Sum of electronic and thermal Free Energies=         -100.797967

                     E (Thermal)             CV                S
                      KCal/Mol        Cal/Mol-Kelvin    Cal/Mol-Kelvin
 Total                    2.992              7.963             52.625
 Electronic               0.000              0.000              1.377
 Translational            0.889              2.981             35.068
 Rotational               0.592              1.987             14.158
 Vibrational              1.511              2.995              2.022
 Vibration     1          0.756              1.498              1.011
 Vibration     2          0.756              1.498              1.011

 Normal termination of Gaussian 16 at Fri Aug 22 17:09:22 2025.
