 Gaussian 16, Revision C.01,
 Gaussian 16:  ES64L-G16RevC.01  3-Jul-2019

 -----------------------------------------
 # sp b3lyp/6-311g** Force nosymm scf=(qc)
 -----------------------------------------

 -------------------
 Title Card Required
 -------------------
 Symbolic Z-matrix:
 Charge =  0 Multiplicity = 2

                          Input orientation:
 ---------------------------------------------------------------------
 Center     Atomic      Atomic             Coordinates (Angstroms)
 Number     Number       Type             X           Y           Z
 ---------------------------------------------------------------------
      1          1           0        0.000000    0.000000    0.000000
      2          1           0       -2.650000    0.000000    0.000000
      3          9           0        3.100000    0.000000    0.000000
 ---------------------------------------------------------------------

 SCF Done:  E(UB3LYP) =  -100.762953007     a.u. after   23 cycles

 Alpha  occ. eigenvalues --  -24.74476  -1.20505  -0.53595  -0.45001  -0.45001
 Alpha  occ. eigenvalues --   -0.32847
 Alpha virt. eigenvalues --   -0.09751   0.25274   0.34140   0.89126   0.92040
 Alpha virt. eigenvalues --    0.92040   1.03376   1.24753   1.24753   1.26376
 Alpha virt. eigenvalues --    1.41173   1.41173   1.42128   2.15727   2.37616

  Beta  occ. eigenvalues --  -24.71423  -1.11749  -0.41944  -0.41944  -0.33568
  Beta virt. eigenvalues --   -0.25005  -0.08664   0.25258   0.35453   0.93510
  Beta virt. eigenvalues --    0.93510   0.97994   1.07284   1.23893   1.23893
  Beta virt. eigenvalues --    1.25378   1.42924   1.42924   1.43771   2.16541

 Mulliken charges and spin densities:
               1          2
     1  H    0.025915  -0.948358
     2  H    0.003323   0.980792
     3  F   -0.029238   0.967567
 Sum of Mulliken charges =  -0.00000   1.00000

 Dipole moment (field-independent basis, Debye):
    X=             -0.5074    Y=              0.0000    Z=             -0.0000  Tot=              0.5074
 Quadrupole moment (field-independent basis, Debye-Ang):
   XX=             -7.8487   YY=             -7.6445   ZZ=             -7.6445
   XY=             -0.0000   XZ=              0.0000   YZ=              0.0000

  Exact polarizability:      39.294      -0.000       2.019       0.000       0.000       2.019
 Approx polarizability:      34.701      -0.000       1.924       0.000      -0.000       1.924

 ******    2 imaginary frequencies (negative Signs) ******

                      1                      2                      3
                      A                      A                      A
 Frequencies --   -578.7259              -206.7484               214.2506
 Red. masses --      1.0108                 1.1049                 1.0162
 Frc consts  --      0.1995                 0.0278                 0.0275
 IR Inten    --     20.5762                13.7180                 0.5450

                      4
                      A
 Frequencies --    214.2507
 Red. masses --      1.0162
 Frc consts  --      0.0275
 IR Inten    --      0.5450

 - Thermochemistry -
 -------------------
 Temperature   298.150 Kelvin.  Pressure   1.00000 Atm.
 Atom     1 has atomic number  1 and mass   1.00783

 Molecular mass:    21.01405 amu.
 Principal axes and moments of inertia in atomic units:
                           1         2         3
     Eigenvalues --     0.00000 140.05969 140.05969
           X            1.00000  -0.00000   0.00000
           Y            0.00000   1.00000   0.00000
           Z            0.00000   0.00000   1.00000
 This molecule is a prolate symmetric top.
 Rotational symmetry number  1.
 Rotational temperature (Kelvin)      0.61841
 Rotational constant (GHZ):          12.885515
    2 imaginary frequencies ignored.
 Zero-point vibrational energy       2563.0 (Joules/Mol)
                                    0.61257 (Kcal/Mol)
 Warning -- explicit consideration of   2 degrees of freedom as
           vibrations may cause significant error
 Vibrational temperatures:    308.26   308.26
          (Kelvin)

 Zero-point correction=                           0.000976 (Hartree/Particle)
 Thermal correction to Energy=                    0.004414
 Thermal correction to Enthalpy=                  0.005358
 Thermal correction to Gibbs Free Energy=        -0.020643
 Sum of electronic and zero-point Energies=           -100.761977
 Sum of electronic and thermal Energies=              -100.758539
 Sum of electronic and thermal Enthalpies=            -100.757595
 Sum of electronic and thermal Free Energies=         -100.783596

                     E (Thermal)             CV                S
                      KCal/Mol        Cal/Mol-Kelvin    Cal/Mol-Kelvin
 Total                    2.770              8.607             54.724
 Electronic               0.000              0.000              1.377
 Translational            0.889              2.981             35.068
 Rotational               0.592              1.987             14.265
 Vibrational              1.289              3.639              4.014
 Vibration     1          0.644              1.819              2.007
 Vibration     2          0.644              1.819              2.007

 Normal termination of Gaussian 16 at Fri Aug 22 19:55:22 2025.
