 Gaussian 16, Revision C.01,
 Gaussian 16:  ES64L-G16RevC.01  3-Jul-2019

 -----------------------------------------
 # sp b3lyp/6-311g** Force nosymm scf=(qc)
 -----------------------------------------

 -------------------
 Title Card Required
 -------------------
 Symbolic Z-matrix:
 Charge =  0 Multiplicity = 2

                          Input orientation:
 ---------------------------------------------------------------------
 Center     Atomic      Atomic             Coordinates (Angstroms)
 Number     Number       Type             X           Y           Z
 ---------------------------------------------------------------------
      1          1           0        0.000000    0.000000    0.000000
      2          1           0       -1.050000    0.000000    0.000000
      3          9           0        0.600000    0.000000    0.000000
 ---------------------------------------------------------------------

 SCF Done:  E(UB3LYP) =  -100.647897129     a.u. after    7 cycles

 Alpha  occ. eigenvalues --  -24.64484  -1.37687  -0.64961  -0.44714  -0.44714
 Alpha  occ. eigenvalues --   -0.34087
 Alpha virt. eigenvalues --    0.16233   0.20221   0.75012   0.88442   0.88442
 Alpha virt. eigenvalues --    0.90484   1.10564   1.10564   1.49206   1.71051
 Alpha virt. eigenvalues --    1.71051   1.75739   2.10365   2.40633   3.76161

  Beta  occ. eigenvalues --  -24.64157  -1.36623  -0.63261  -0.44460  -0.44460
  Beta virt. eigenvalues --   -0.12108   0.17004   0.27249   0.80421   0.89558
  Beta virt. eigenvalues --    0.89558   0.91469   1.19303   1.19303   1.49943
  Beta virt. eigenvalues --    1.76733   1.76733   1.81956   2.20108   2.56854

 Mulliken charges and spin densities:
               1          2
     1  H    0.245644  -0.001232
     2  H   -0.024977   0.966722
     3  F   -0.220667   0.034509
 Sum of Mulliken charges =   0.00000   1.00000

 Dipole moment (field-independent basis, Debye):
    X=             -1.0970    Y=             -0.0000    Z=              0.0000  Tot=              1.0970
 Quadrupole moment (field-independent basis, Debye-Ang):
   XX=             -7.2024   YY=             -6.4201   ZZ=             -6.4201
   XY=             -0.0000   XZ=              0.0000   YZ=              0.0000

  Exact polarizability:       6.809      -0.000       2.523      -0.000       0.000       2.523
 Approx polarizability:       6.542      -0.000       2.577      -0.000       0.000       2.577

 ******    2 imaginary frequencies (negative Signs) ******

                      1                      2                      3
                      A                      A                      A
 Frequencies --  -5729.1248             -5729.1248              1994.0507
 Red. masses --      1.0259                 1.0259                 1.0544
 Frc consts  --     19.8398                19.8398                 2.4702
 IR Inten    --    151.5079               151.5079                75.1339

                      4
                      A
 Frequencies --  13068.2859
 Red. masses --      1.0571
 Frc consts  --    106.3707
 IR Inten    --     59.9625

 - Thermochemistry -
 -------------------
 Temperature   298.150 Kelvin.  Pressure   1.00000 Atm.
 Atom     1 has atomic number  1 and mass   1.00783

 Molecular mass:    21.01405 amu.
 Principal axes and moments of inertia in atomic units:
                           1         2         3
     Eigenvalues --     0.00000  10.22012  10.22012
           X            1.00000  -0.00000   0.00000
           Y            0.00000   1.00000   0.00000
           Z            0.00000   0.00000   1.00000
 This molecule is a prolate symmetric top.
 Rotational symmetry number  1.
 Rotational temperature (Kelvin)      8.47484
 Rotational constant (GHZ):         176.587063
    2 imaginary frequencies ignored.
 Zero-point vibrational energy      90092.8 (Joules/Mol)
                                   21.53269 (Kcal/Mol)
 Vibrational temperatures:   2868.99 18802.35
          (Kelvin)

 Zero-point correction=                           0.034315 (Hartree/Particle)
 Thermal correction to Energy=                    0.036676
 Thermal correction to Enthalpy=                  0.037620
 Thermal correction to Gibbs Free Energy=         0.015997
 Sum of electronic and zero-point Energies=           -100.613583
 Sum of electronic and thermal Energies=              -100.611222
 Sum of electronic and thermal Enthalpies=            -100.610277
 Sum of electronic and thermal Free Energies=         -100.631900

                     E (Thermal)             CV                S
                      KCal/Mol        Cal/Mol-Kelvin    Cal/Mol-Kelvin
 Total                   23.014              4.980             45.509
 Electronic               0.000              0.000              1.377
 Translational            0.889              2.981             35.068
 Rotational               0.592              1.987              9.063
 Vibrational             21.533              0.012              0.001

 Normal termination of Gaussian 16 at Fri Aug 22 15:41:02 2025.
