 Gaussian 16, Revision C.01,
 Gaussian 16:  ES64L-G16RevC.01  3-Jul-2019

 -----------------------------------------
 # sp b3lyp/6-311g** Force nosymm scf=(qc)
 -----------------------------------------

 -------------------
 Title Card Required
 -------------------
 Symbolic Z-matrix:
 Charge =  0 Multiplicity = 2

                          Input orientation:
 ---------------------------------------------------------------------
 Center     Atomic      Atomic             Coordinates (Angstroms)
 Number     Number       Type             X           Y           Z
 ---------------------------------------------------------------------
      1          1           0        0.000000    0.000000    0.000000
      2          1           0       -2.150000    0.000000    0.000000
      3          9           0        1.400000    0.000000    0.000000
 ---------------------------------------------------------------------

 SCF Done:  E(UB3LYP) =  -100.880226233     a.u. after    8 cycles

 Alpha  occ. eigenvalues --  -24.63789  -1.10017  -0.44763  -0.36553  -0.36251
 Alpha  occ. eigenvalues --   -0.36251
 Alpha virt. eigenvalues --   -0.09965   0.23674   0.27001   0.93653   0.93653
 Alpha virt. eigenvalues --    1.03264   1.10745   1.20771   1.20771   1.32079
 Alpha virt. eigenvalues --    1.33651   1.33651   1.72357   2.10458   2.25166

  Beta  occ. eigenvalues --  -24.63512  -1.09296  -0.43669  -0.35991  -0.35991
  Beta virt. eigenvalues --   -0.15994  -0.05719   0.26432   0.34064   0.93592
  Beta virt. eigenvalues --    0.93592   1.03975   1.14660   1.32562   1.32562
  Beta virt. eigenvalues --    1.39933   1.39933   1.46146   1.72410   2.19659

 Mulliken charges and spin densities:
               1          2
     1  H    0.332216  -0.046127
     2  H    0.030658   0.960220
     3  F   -0.362874   0.085907
 Sum of Mulliken charges =   0.00000   1.00000

 Dipole moment (field-independent basis, Debye):
    X=             -2.8487    Y=              0.0000    Z=              0.0000  Tot=              2.8487
 Quadrupole moment (field-independent basis, Debye-Ang):
   XX=             -8.8120   YY=             -7.2464   ZZ=             -7.2464
   XY=              0.0000   XZ=              0.0000   YZ=             -0.0000

  Exact polarizability:      21.428      -0.000       2.268       0.000       0.000       2.268
 Approx polarizability:      30.506       0.000       2.209       0.000       0.000       2.209

 ******    2 imaginary frequencies (negative Signs) ******

                      1                      2                      3
                      A                      A                      A
 Frequencies --  -1329.1543              -284.2024              1059.6148
 Red. masses --      1.0390                 1.0731                 1.0239
 Frc consts  --      1.0815                 0.0511                 0.6773
 IR Inten    --    181.4750                 0.3240                92.6671

                      4
                      A
 Frequencies --   1059.6148
 Red. masses --      1.0239
 Frc consts  --      0.6773
 IR Inten    --     92.6671

 - Thermochemistry -
 -------------------
 Temperature   298.150 Kelvin.  Pressure   1.00000 Atm.
 Atom     1 has atomic number  1 and mass   1.00783

 Molecular mass:    21.01405 amu.
 Principal axes and moments of inertia in atomic units:
                           1         2         3
     Eigenvalues --     0.00000  48.18126  48.18126
           X            1.00000  -0.00000   0.00000
           Y            0.00000   1.00000   0.00000
           Z            0.00000   0.00000   1.00000
 This molecule is a prolate symmetric top.
 Rotational symmetry number  1.
 Rotational temperature (Kelvin)      1.79767
 Rotational constant (GHZ):          37.457326
    2 imaginary frequencies ignored.
 Zero-point vibrational energy      12675.8 (Joules/Mol)
                                    3.02959 (Kcal/Mol)
 Vibrational temperatures:   1524.55  1524.55
          (Kelvin)

 Zero-point correction=                           0.004828 (Hartree/Particle)
 Thermal correction to Energy=                    0.007247
 Thermal correction to Enthalpy=                  0.008191
 Thermal correction to Gibbs Free Energy=        -0.014965
 Sum of electronic and zero-point Energies=           -100.875398
 Sum of electronic and thermal Energies=              -100.872979
 Sum of electronic and thermal Enthalpies=            -100.872035
 Sum of electronic and thermal Free Energies=         -100.895191

                     E (Thermal)             CV                S
                      KCal/Mol        Cal/Mol-Kelvin    Cal/Mol-Kelvin
 Total                    4.547              5.601             48.736
 Electronic               0.000              0.000              1.377
 Translational            0.889              2.981             35.068
 Rotational               0.592              1.987             12.144
 Vibrational              3.066              0.633              0.147

 Normal termination of Gaussian 16 at Fri Aug 22 16:20:17 2025.
