 Gaussian 16, Revision C.01,
 Gaussian 16:  ES64L-G16RevC.01  3-Jul-2019

 -----------------------------------------
 # sp b3lyp/6-311g** Force nosymm scf=(qc)
 -----------------------------------------

 -------------------
 Title Card Required
 -------------------
 Symbolic Z-matrix:
 Charge =  0 Multiplicity = 2

                          Input orientation:
 ---------------------------------------------------------------------
 Center     Atomic      Atomic             Coordinates (Angstroms)
 Number     Number       Type             X           Y           Z
 ---------------------------------------------------------------------
      1          1           0        0.000000    0.000000    0.000000
      2          1           0       -3.400000    0.000000    0.000000
      3          9           0        1.500000    0.000000    0.000000
 ---------------------------------------------------------------------

 SCF Done:  E(UB3LYP) =  -100.854728981     a.u. after    7 cycles

 Alpha  occ. eigenvalues --  -24.64340  -1.09691  -0.43242  -0.36419  -0.36419
 Alpha  occ. eigenvalues --   -0.34098
 Alpha virt. eigenvalues --   -0.14439   0.20427   0.27764   0.93524   0.93524
 Alpha virt. eigenvalues --    1.03508   1.09541   1.23415   1.23415   1.23502
 Alpha virt. eigenvalues --    1.31205   1.31205   1.73172   2.13503   2.18725

  Beta  occ. eigenvalues --  -24.64298  -1.09579  -0.43141  -0.36380  -0.36380
  Beta virt. eigenvalues --   -0.14803  -0.06778   0.23391   0.38076   0.93507
  Beta virt. eigenvalues --    0.93507   1.03616   1.09560   1.31005   1.31005
  Beta virt. eigenvalues --    1.45546   1.46018   1.46018   1.73120   2.18142

 Mulliken charges and spin densities:
               1          2
     1  H    0.348256  -0.010803
     2  H    0.002439   0.997408
     3  F   -0.350695   0.013395
 Sum of Mulliken charges =  -0.00000   1.00000

 Dipole moment (field-independent basis, Debye):
    X=             -2.6249    Y=             -0.0000    Z=             -0.0000  Tot=              2.6249
 Quadrupole moment (field-independent basis, Debye-Ang):
   XX=             -9.8562   YY=             -7.3221   ZZ=             -7.3221
   XY=             -0.0000   XZ=             -0.0000   YZ=             -0.0000

  Exact polarizability:      15.870       0.000       2.188      -0.000       0.000       2.188
 Approx polarizability:      29.328       0.000       2.113       0.000       0.000       2.113

 ******    2 imaginary frequencies (negative Signs) ******

                      1                      2                      3
                      A                      A                      A
 Frequencies --  -1156.8493               -91.0735              1014.0342
 Red. masses --      1.0572                 1.0544                 1.0301
 Frc consts  --      0.8336                 0.0052                 0.6241
 IR Inten    --     47.5775                 0.2949               116.4057

                      4
                      A
 Frequencies --   1014.0342
 Red. masses --      1.0301
 Frc consts  --      0.6241
 IR Inten    --    116.4057

 - Thermochemistry -
 -------------------
 Temperature   298.150 Kelvin.  Pressure   1.00000 Atm.
 Atom     1 has atomic number  1 and mass   1.00783

 Molecular mass:    21.01405 amu.
 Principal axes and moments of inertia in atomic units:
                           1         2         3
     Eigenvalues --     0.00000  87.43999  87.43999
           X            1.00000  -0.00000   0.00000
           Y            0.00000   1.00000   0.00000
           Z            0.00000   0.00000   1.00000
 This molecule is a prolate symmetric top.
 Rotational symmetry number  1.
 Rotational temperature (Kelvin)      0.99055
 Rotational constant (GHZ):          20.639770
    2 imaginary frequencies ignored.
 Zero-point vibrational energy      12130.5 (Joules/Mol)
                                    2.89927 (Kcal/Mol)
 Vibrational temperatures:   1458.97  1458.97
          (Kelvin)

 Zero-point correction=                           0.004620 (Hartree/Particle)
 Thermal correction to Energy=                    0.007051
 Thermal correction to Enthalpy=                  0.007995
 Thermal correction to Gibbs Free Energy=        -0.015738
 Sum of electronic and zero-point Energies=           -100.850109
 Sum of electronic and thermal Energies=              -100.847678
 Sum of electronic and thermal Enthalpies=            -100.846734
 Sum of electronic and thermal Free Energies=         -100.870467

                     E (Thermal)             CV                S
                      KCal/Mol        Cal/Mol-Kelvin    Cal/Mol-Kelvin
 Total                    4.424              5.692             49.951
 Electronic               0.000              0.000              1.377
 Translational            0.889              2.981             35.068
 Rotational               0.592              1.987             13.328
 Vibrational              2.943              0.724              0.177

 Normal termination of Gaussian 16 at Fri Aug 22 16:26:33 2025.
