 Gaussian 16, Revision C.01,
 Gaussian 16:  ES64L-G16RevC.01  3-Jul-2019

 -----------------------------------------
 # sp b3lyp/6-311g** Force nosymm scf=(qc)
 -----------------------------------------

 -------------------
 Title Card Required
 -------------------
 Symbolic Z-matrix:
 Charge =  0 Multiplicity = 2

                          Input orientation:
 ---------------------------------------------------------------------
 Center     Atomic      Atomic             Coordinates (Angstroms)
 Number     Number       Type             X           Y           Z
 ---------------------------------------------------------------------
      1          1           0        0.000000    0.000000    0.000000
      2          1           0       -1.850000    0.000000    0.000000
      3          9           0        0.950000    0.000000    0.000000
 ---------------------------------------------------------------------

 SCF Done:  E(UB3LYP) =  -100.971634788     a.u. after    6 cycles

 Alpha  occ. eigenvalues --  -24.63672  -1.17145  -0.52905  -0.38865  -0.38865
 Alpha  occ. eigenvalues --   -0.36347
 Alpha virt. eigenvalues --    0.06330   0.23395   0.35687   0.94510   0.94510
 Alpha virt. eigenvalues --    0.98315   1.14259   1.20487   1.20487   1.37446
 Alpha virt. eigenvalues --    1.37446   1.51991   1.92095   2.24818   2.35763

  Beta  occ. eigenvalues --  -24.63572  -1.16892  -0.52307  -0.38778  -0.38778
  Beta virt. eigenvalues --   -0.13038   0.08576   0.32199   0.37103   0.94534
  Beta virt. eigenvalues --    0.94534   0.98725   1.23751   1.34666   1.34666
  Beta virt. eigenvalues --    1.42090   1.42090   1.58443   1.98783   2.34204

 Mulliken charges and spin densities:
               1          2
     1  H    0.290333   0.006402
     2  H    0.019740   0.967335
     3  F   -0.310072   0.026263
 Sum of Mulliken charges =   0.00000   1.00000

 Dipole moment (field-independent basis, Debye):
    X=             -2.1555    Y=             -0.0000    Z=              0.0000  Tot=              2.1555
 Quadrupole moment (field-independent basis, Debye-Ang):
   XX=             -7.6074   YY=             -6.8576   ZZ=             -6.8576
   XY=             -0.0000   XZ=              0.0000   YZ=             -0.0000

  Exact polarizability:      10.326      -0.000       2.487      -0.000       0.000       2.487
 Approx polarizability:      11.013       0.000       2.474      -0.000       0.000       2.474

                      1                      2                      3
                      A                      A                      A
 Frequencies --    240.1063               608.2499               608.2499
 Red. masses --      1.0522                 1.0276                 1.0276
 Frc consts  --      0.0357                 0.2240                 0.2240
 IR Inten    --      2.0217               132.4861               132.4861

                      4
                      A
 Frequencies --   3620.1185
 Red. masses --      1.0594
 Frc consts  --      8.1800
 IR Inten    --    199.9032

 - Thermochemistry -
 -------------------
 Temperature   298.150 Kelvin.  Pressure   1.00000 Atm.
 Atom     1 has atomic number  1 and mass   1.00783

 Molecular mass:    21.01405 amu.
 Principal axes and moments of inertia in atomic units:
                           1         2         3
     Eigenvalues --     0.00000  29.03705  29.03705
           X            1.00000  -0.00000   0.00000
           Y            0.00000   1.00000   0.00000
           Z            0.00000   0.00000   1.00000
 This molecule is a prolate symmetric top.
 Rotational symmetry number  1.
 Rotational temperature (Kelvin)      2.98288
 Rotational constant (GHZ):          62.153055
 Zero-point vibrational energy      30365.6 (Joules/Mol)
                                    7.25754 (Kcal/Mol)
 Warning -- explicit consideration of   3 degrees of freedom as
           vibrations may cause significant error
 Vibrational temperatures:    345.46   875.14   875.14  5208.54
          (Kelvin)

 Zero-point correction=                           0.011566 (Hartree/Particle)
 Thermal correction to Energy=                    0.014738
 Thermal correction to Enthalpy=                  0.015682
 Thermal correction to Gibbs Free Energy=        -0.008197
 Sum of electronic and zero-point Energies=           -100.960069
 Sum of electronic and thermal Energies=              -100.956897
 Sum of electronic and thermal Enthalpies=            -100.955953
 Sum of electronic and thermal Free Energies=         -100.979832

                     E (Thermal)             CV                S
                      KCal/Mol        Cal/Mol-Kelvin    Cal/Mol-Kelvin
 Total                    9.248              8.776             50.257
 Electronic               0.000              0.000              1.377
 Translational            0.889              2.981             35.068
 Rotational               0.592              1.987             11.138
 Vibrational              7.767              3.808              2.673
 Vibration     1          0.657              1.779              1.802
 Vibration     2          0.967              1.014              0.436
 Vibration     3          0.967              1.014              0.436

 Normal termination of Gaussian 16 at Fri Aug 22 15:58:03 2025.
