 Gaussian 16, Revision C.01,
 Gaussian 16:  ES64L-G16RevC.01  3-Jul-2019

 -----------------------------------------
 # sp b3lyp/6-311g** Force nosymm scf=(qc)
 -----------------------------------------

 -------------------
 Title Card Required
 -------------------
 Symbolic Z-matrix:
 Charge =  0 Multiplicity = 2

                          Input orientation:
 ---------------------------------------------------------------------
 Center     Atomic      Atomic             Coordinates (Angstroms)
 Number     Number       Type             X           Y           Z
 ---------------------------------------------------------------------
      1          1           0        0.000000    0.000000    0.000000
      2          1           0       -2.200000    0.000000    0.000000
      3          9           0        1.250000    0.000000    0.000000
 ---------------------------------------------------------------------

 SCF Done:  E(UB3LYP) =  -100.915137341     a.u. after    6 cycles

 Alpha  occ. eigenvalues --  -24.63910  -1.11347  -0.46880  -0.36916  -0.36916
 Alpha  occ. eigenvalues --   -0.36149
 Alpha virt. eigenvalues --   -0.05631   0.24212   0.27942   0.93424   0.93424
 Alpha virt. eigenvalues --    1.01618   1.15716   1.21290   1.21290   1.34765
 Alpha virt. eigenvalues --    1.34765   1.36774   1.71879   2.11771   2.28854

  Beta  occ. eigenvalues --  -24.63792  -1.11047  -0.46332  -0.36808  -0.36808
  Beta virt. eigenvalues --   -0.13753  -0.02362   0.27813   0.35001   0.93414
  Beta virt. eigenvalues --    0.93414   1.01923   1.22578   1.34367   1.34367
  Beta virt. eigenvalues --    1.41246   1.41246   1.48823   1.72050   2.25580

 Mulliken charges and spin densities:
               1          2
     1  H    0.341355  -0.008444
     2  H    0.020721   0.972687
     3  F   -0.362075   0.035756
 Sum of Mulliken charges =  -0.00000   1.00000

 Dipole moment (field-independent basis, Debye):
    X=             -2.5861    Y=             -0.0000    Z=              0.0000  Tot=              2.5861
 Quadrupole moment (field-independent basis, Debye-Ang):
   XX=             -8.4938   YY=             -7.1456   ZZ=             -7.1456
   XY=             -0.0000   XZ=              0.0000   YZ=             -0.0000

  Exact polarizability:      15.808       0.000       2.340       0.000       0.000       2.340
 Approx polarizability:      20.436      -0.000       2.296       0.000       0.000       2.296

 ******    1 imaginary frequencies (negative Signs) ******

                      1                      2                      3
                      A                      A                      A
 Frequencies --   -531.3746               275.8930              1152.0970
 Red. masses --      1.0092                 1.1068                 1.0260
 Frc consts  --      0.1679                 0.0496                 0.8024
 IR Inten    --    141.2281                41.4396               113.3958

                      4
                      A
 Frequencies --   1152.0970
 Red. masses --      1.0260
 Frc consts  --      0.8024
 IR Inten    --    113.3958

 - Thermochemistry -
 -------------------
 Temperature   298.150 Kelvin.  Pressure   1.00000 Atm.
 Atom     1 has atomic number  1 and mass   1.00783

 Molecular mass:    21.01405 amu.
 Principal axes and moments of inertia in atomic units:
                           1         2         3
     Eigenvalues --     0.00000  44.64776  44.64776
           X            1.00000  -0.00000   0.00000
           Y            0.00000   1.00000   0.00000
           Z            0.00000   0.00000   1.00000
 This molecule is a prolate symmetric top.
 Rotational symmetry number  1.
 Rotational temperature (Kelvin)      1.93994
 Rotational constant (GHZ):          40.421761
    1 imaginary frequencies ignored.
 Zero-point vibrational energy      15432.3 (Joules/Mol)
                                    3.68842 (Kcal/Mol)
 Warning -- explicit consideration of   1 degrees of freedom as
           vibrations may cause significant error
 Vibrational temperatures:    396.95  1657.61  1657.61
          (Kelvin)

 Zero-point correction=                           0.005878 (Hartree/Particle)
 Thermal correction to Energy=                    0.008730
 Thermal correction to Enthalpy=                  0.009674
 Thermal correction to Gibbs Free Energy=        -0.014129
 Sum of electronic and zero-point Energies=           -100.909259
 Sum of electronic and thermal Energies=              -100.906407
 Sum of electronic and thermal Enthalpies=            -100.905463
 Sum of electronic and thermal Free Energies=         -100.929266

                     E (Thermal)             CV                S
                      KCal/Mol        Cal/Mol-Kelvin    Cal/Mol-Kelvin
 Total                    5.478              7.163             50.098
 Electronic               0.000              0.000              1.377
 Translational            0.889              2.981             35.068
 Rotational               0.592              1.987             11.993
 Vibrational              3.997              2.195              1.660
 Vibration     1          0.678              1.718              1.559

 Normal termination of Gaussian 16 at Fri Aug 22 16:12:44 2025.
