 Gaussian 16, Revision C.01,
 Gaussian 16:  ES64L-G16RevC.01  3-Jul-2019

 -----------------------------------------
 # sp b3lyp/6-311g** Force nosymm scf=(qc)
 -----------------------------------------

 -------------------
 Title Card Required
 -------------------
 Symbolic Z-matrix:
 Charge =  0 Multiplicity = 2

                          Input orientation:
 ---------------------------------------------------------------------
 Center     Atomic      Atomic             Coordinates (Angstroms)
 Number     Number       Type             X           Y           Z
 ---------------------------------------------------------------------
      1          1           0        0.000000    0.000000    0.000000
      2          1           0       -2.350000    0.000000    0.000000
      3          9           0        2.400000    0.000000    0.000000
 ---------------------------------------------------------------------

 SCF Done:  E(UB3LYP) =  -100.775352704     a.u. after   17 cycles

 Alpha  occ. eigenvalues --  -24.71116  -1.17355  -0.50205  -0.42174  -0.42174
 Alpha  occ. eigenvalues --   -0.34278
 Alpha virt. eigenvalues --   -0.12587   0.24772   0.32670   0.89786   0.93958
 Alpha virt. eigenvalues --    0.93958   1.06640   1.23448   1.23448   1.27028
 Alpha virt. eigenvalues --    1.36595   1.36595   1.44534   2.13614   2.32132

  Beta  occ. eigenvalues --  -24.68333  -1.09452  -0.39404  -0.39404  -0.35659
  Beta virt. eigenvalues --   -0.23000  -0.10313   0.26089   0.33956   0.95270
  Beta virt. eigenvalues --    0.95270   0.95900   1.09308   1.22226   1.22226
  Beta virt. eigenvalues --    1.33255   1.40227   1.40227   1.43181   2.13380

 Mulliken charges and spin densities:
               1          2
     1  H    0.087011  -0.833361
     2  H    0.017149   0.954744
     3  F   -0.104160   0.878617
 Sum of Mulliken charges =  -0.00000   1.00000

 Dipole moment (field-independent basis, Debye):
    X=             -1.4598    Y=              0.0000    Z=              0.0000  Tot=              1.4598
 Quadrupole moment (field-independent basis, Debye-Ang):
   XX=             -8.8140   YY=             -7.6102   ZZ=             -7.6102
   XY=              0.0000   XZ=             -0.0000   YZ=             -0.0000

  Exact polarizability:      47.093       0.000       2.017      -0.000       0.000       2.017
 Approx polarizability:      50.702       0.000       1.920       0.000      -0.000       1.920

 ******    2 imaginary frequencies (negative Signs) ******

                      1                      2                      3
                      A                      A                      A
 Frequencies --   -967.2875              -391.9612               388.1854
 Red. masses --      1.0177                 1.0968                 1.0177
 Frc consts  --      0.5610                 0.0993                 0.0904
 IR Inten    --     54.3603                34.7472                 5.8122

                      4
                      A
 Frequencies --    388.1854
 Red. masses --      1.0177
 Frc consts  --      0.0904
 IR Inten    --      5.8122

 - Thermochemistry -
 -------------------
 Temperature   298.150 Kelvin.  Pressure   1.00000 Atm.
 Atom     1 has atomic number  1 and mass   1.00783

 Molecular mass:    21.01405 amu.
 Principal axes and moments of inertia in atomic units:
                           1         2         3
     Eigenvalues --     0.00000  93.10882  93.10882
           X            1.00000  -0.00000   0.00000
           Y            0.00000   1.00000   0.00000
           Z            0.00000   0.00000   1.00000
 This molecule is a prolate symmetric top.
 Rotational symmetry number  1.
 Rotational temperature (Kelvin)      0.93024
 Rotational constant (GHZ):          19.383139
    2 imaginary frequencies ignored.
 Zero-point vibrational energy       4643.7 (Joules/Mol)
                                    1.10988 (Kcal/Mol)
 Warning -- explicit consideration of   2 degrees of freedom as
           vibrations may cause significant error
 Vibrational temperatures:    558.51   558.51
          (Kelvin)

 Zero-point correction=                           0.001769 (Hartree/Particle)
 Thermal correction to Energy=                    0.004771
 Thermal correction to Enthalpy=                  0.005715
 Thermal correction to Gibbs Free Energy=        -0.018950
 Sum of electronic and zero-point Energies=           -100.773584
 Sum of electronic and thermal Energies=              -100.770581
 Sum of electronic and thermal Enthalpies=            -100.769637
 Sum of electronic and thermal Free Energies=         -100.794303

                     E (Thermal)             CV                S
                      KCal/Mol        Cal/Mol-Kelvin    Cal/Mol-Kelvin
 Total                    2.994              7.959             51.913
 Electronic               0.000              0.000              1.377
 Translational            0.889              2.981             35.068
 Rotational               0.592              1.987             13.453
 Vibrational              1.513              2.991              2.014
 Vibration     1          0.756              1.495              1.007
 Vibration     2          0.756              1.495              1.007

 Normal termination of Gaussian 16 at Fri Aug 22 17:32:29 2025.
