 Gaussian 16, Revision C.01,
 Gaussian 16:  ES64L-G16RevC.01  3-Jul-2019

 -----------------------------------------
 # sp b3lyp/6-311g** Force nosymm scf=(qc)
 -----------------------------------------

 -------------------
 Title Card Required
 -------------------
 Symbolic Z-matrix:
 Charge =  0 Multiplicity = 2

                          Input orientation:
 ---------------------------------------------------------------------
 Center     Atomic      Atomic             Coordinates (Angstroms)
 Number     Number       Type             X           Y           Z
 ---------------------------------------------------------------------
      1          1           0        0.000000    0.000000    0.000000
      2          1           0       -4.000000    0.000000    0.000000
      3          9           0        1.900000    0.000000    0.000000
 ---------------------------------------------------------------------

 SCF Done:  E(UB3LYP) =  -100.794662447     a.u. after   13 cycles

 Alpha  occ. eigenvalues --  -24.67443  -1.13720  -0.46343  -0.39087  -0.39087
 Alpha  occ. eigenvalues --   -0.33250
 Alpha virt. eigenvalues --   -0.14466   0.22238   0.30257   0.90272   0.94859
 Alpha virt. eigenvalues --    0.94859   1.05579   1.24235   1.24254   1.24254
 Alpha virt. eigenvalues --    1.34501   1.34501   1.65252   2.13500   2.27752

  Beta  occ. eigenvalues --  -24.65266  -1.07675  -0.38621  -0.36951  -0.36951
  Beta virt. eigenvalues --   -0.20045  -0.06245   0.22036   0.38007   0.91089
  Beta virt. eigenvalues --    0.95185   0.95185   1.07987   1.22624   1.22624
  Beta virt. eigenvalues --    1.46430   1.46635   1.46635   1.59140   2.11567

 Mulliken charges and spin densities:
               1          2
     1  H    0.223220  -0.683746
     2  H    0.000494   0.999326
     3  F   -0.223714   0.684420
 Sum of Mulliken charges =   0.00000   1.00000

 Dipole moment (field-independent basis, Debye):
    X=             -2.0952    Y=             -0.0000    Z=              0.0000  Tot=              2.0952
 Quadrupole moment (field-independent basis, Debye-Ang):
   XX=            -10.1978   YY=             -7.4622   ZZ=             -7.4622
   XY=             -0.0000   XZ=              0.0000   YZ=             -0.0000

  Exact polarizability:      23.492      -0.000       2.078       0.000       0.000       2.078
 Approx polarizability:      35.896      -0.000       1.963       0.000      -0.000       1.963

 ******    2 imaginary frequencies (negative Signs) ******

                      1                      2                      3
                      A                      A                      A
 Frequencies --  -1305.0137               -64.5660               562.8952
 Red. masses --      1.0580                 1.0535                 1.0289
 Frc consts  --      1.0616                 0.0026                 0.1921
 IR Inten    --    131.4802                 0.0331                47.4812

                      4
                      A
 Frequencies --    562.8952
 Red. masses --      1.0289
 Frc consts  --      0.1921
 IR Inten    --     47.4812

 - Thermochemistry -
 -------------------
 Temperature   298.150 Kelvin.  Pressure   1.00000 Atm.
 Atom     1 has atomic number  1 and mass   1.00783

 Molecular mass:    21.01405 amu.
 Principal axes and moments of inertia in atomic units:
                           1         2         3
     Eigenvalues --     0.00000 127.77250 127.77250
           X            1.00000  -0.00000   0.00000
           Y            0.00000   1.00000   0.00000
           Z            0.00000   0.00000   1.00000
 This molecule is a prolate symmetric top.
 Rotational symmetry number  1.
 Rotational temperature (Kelvin)      0.67788
 Rotational constant (GHZ):          14.124645
    2 imaginary frequencies ignored.
 Zero-point vibrational energy       6733.7 (Joules/Mol)
                                    1.60940 (Kcal/Mol)
 Warning -- explicit consideration of   2 degrees of freedom as
           vibrations may cause significant error
 Vibrational temperatures:    809.88   809.88
          (Kelvin)

 Zero-point correction=                           0.002565 (Hartree/Particle)
 Thermal correction to Energy=                    0.005288
 Thermal correction to Enthalpy=                  0.006233
 Thermal correction to Gibbs Free Energy=        -0.018267
 Sum of electronic and zero-point Energies=           -100.792098
 Sum of electronic and thermal Energies=              -100.789374
 Sum of electronic and thermal Enthalpies=            -100.788430
 Sum of electronic and thermal Free Energies=         -100.812929

                     E (Thermal)             CV                S
                      KCal/Mol        Cal/Mol-Kelvin    Cal/Mol-Kelvin
 Total                    3.318              7.191             51.564
 Electronic               0.000              0.000              1.377
 Translational            0.889              2.981             35.068
 Rotational               0.592              1.987             14.082
 Vibrational              1.837              2.223              1.036
 Vibration     1          0.919              1.112              0.518
 Vibration     2          0.919              1.112              0.518

 Normal termination of Gaussian 16 at Fri Aug 22 16:51:41 2025.
