 Gaussian 16, Revision C.01,
 Gaussian 16:  ES64L-G16RevC.01  3-Jul-2019

 -----------------------------------------
 # sp b3lyp/6-311g** Force nosymm scf=(qc)
 -----------------------------------------

 -------------------
 Title Card Required
 -------------------
 Symbolic Z-matrix:
 Charge =  0 Multiplicity = 2

                          Input orientation:
 ---------------------------------------------------------------------
 Center     Atomic      Atomic             Coordinates (Angstroms)
 Number     Number       Type             X           Y           Z
 ---------------------------------------------------------------------
      1          1           0        0.000000    0.000000    0.000000
      2          1           0       -3.050000    0.000000    0.000000
      3          9           0        2.750000    0.000000    0.000000
 ---------------------------------------------------------------------

 SCF Done:  E(UB3LYP) =  -100.764087804     a.u. after   21 cycles

 Alpha  occ. eigenvalues --  -24.73067  -1.19198  -0.52181  -0.43821  -0.43821
 Alpha  occ. eigenvalues --   -0.32899
 Alpha virt. eigenvalues --   -0.09749   0.24343   0.34948   0.90044   0.92878
 Alpha virt. eigenvalues --    0.92878   1.05430   1.24636   1.24636   1.25394
 Alpha virt. eigenvalues --    1.41697   1.41697   1.42825   2.15246   2.37469

  Beta  occ. eigenvalues --  -24.70114  -1.10759  -0.40870  -0.40870  -0.34457
  Beta virt. eigenvalues --   -0.24180  -0.07610   0.24649   0.36846   0.94311
  Beta virt. eigenvalues --    0.94311   0.98169   1.08813   1.22898   1.22898
  Beta virt. eigenvalues --    1.25285   1.44706   1.44783   1.44783   2.15049

 Mulliken charges and spin densities:
               1          2
     1  H    0.056891  -0.928084
     2  H    0.002047   0.993531
     3  F   -0.058938   0.934553
 Sum of Mulliken charges =  -0.00000   1.00000

 Dipole moment (field-independent basis, Debye):
    X=             -0.8600    Y=             -0.0000    Z=             -0.0000  Tot=              0.8600
 Quadrupole moment (field-independent basis, Debye-Ang):
   XX=             -8.7086   YY=             -7.6053   ZZ=             -7.6053
   XY=             -0.0000   XZ=             -0.0000   YZ=              0.0000

  Exact polarizability:      35.056      -0.000       2.020      -0.000      -0.000       2.020
 Approx polarizability:      38.590      -0.000       1.921      -0.000       0.000       1.921

 ******    2 imaginary frequencies (negative Signs) ******

                      1                      2                      3
                      A                      A                      A
 Frequencies --   -521.0912              -194.4562               195.9811
 Red. masses --      1.0384                 1.0737                 1.0192
 Frc consts  --      0.1661                 0.0239                 0.0231
 IR Inten    --     55.4628                 3.4906                 2.9471

                      4
                      A
 Frequencies --    195.9811
 Red. masses --      1.0192
 Frc consts  --      0.0231
 IR Inten    --      2.9471

 - Thermochemistry -
 -------------------
 Temperature   298.150 Kelvin.  Pressure   1.00000 Atm.
 Atom     1 has atomic number  1 and mass   1.00783

 Molecular mass:    21.01405 amu.
 Principal axes and moments of inertia in atomic units:
                           1         2         3
     Eigenvalues --     0.00000 135.67015 135.67015
           X            1.00000  -0.00000   0.00000
           Y            0.00000   1.00000   0.00000
           Z            0.00000   0.00000   1.00000
 This molecule is a prolate symmetric top.
 Rotational symmetry number  1.
 Rotational temperature (Kelvin)      0.63842
 Rotational constant (GHZ):          13.302419
    2 imaginary frequencies ignored.
 Zero-point vibrational energy       2344.5 (Joules/Mol)
                                    0.56034 (Kcal/Mol)
 Warning -- explicit consideration of   2 degrees of freedom as
           vibrations may cause significant error
 Vibrational temperatures:    281.97   281.97
          (Kelvin)

 Zero-point correction=                           0.000893 (Hartree/Particle)
 Thermal correction to Energy=                    0.004388
 Thermal correction to Enthalpy=                  0.005332
 Thermal correction to Gibbs Free Energy=        -0.020795
 Sum of electronic and zero-point Energies=           -100.763195
 Sum of electronic and thermal Energies=              -100.759700
 Sum of electronic and thermal Enthalpies=            -100.758756
 Sum of electronic and thermal Free Energies=         -100.784883

                     E (Thermal)             CV                S
                      KCal/Mol        Cal/Mol-Kelvin    Cal/Mol-Kelvin
 Total                    2.753              8.659             54.988
 Electronic               0.000              0.000              1.377
 Translational            0.889              2.981             35.068
 Rotational               0.592              1.987             14.201
 Vibrational              1.272              3.691              4.341
 Vibration     1          0.636              1.845              2.171
 Vibration     2          0.636              1.845              2.171

 Normal termination of Gaussian 16 at Fri Aug 22 18:34:44 2025.
