 Gaussian 16, Revision C.01,
 Gaussian 16:  ES64L-G16RevC.01  3-Jul-2019

 -----------------------------------------
 # sp b3lyp/6-311g** Force nosymm scf=(qc)
 -----------------------------------------

 -------------------
 Title Card Required
 -------------------
 Symbolic Z-matrix:
 Charge =  0 Multiplicity = 2

                          Input orientation:
 ---------------------------------------------------------------------
 Center     Atomic      Atomic             Coordinates (Angstroms)
 Number     Number       Type             X           Y           Z
 ---------------------------------------------------------------------
      1          1           0        0.000000    0.000000    0.000000
      2          1           0       -3.900000    0.000000    0.000000
      3          9           0        1.300000    0.000000    0.000000
 ---------------------------------------------------------------------

 SCF Done:  E(UB3LYP) =  -100.901208952     a.u. after    7 cycles

 Alpha  occ. eigenvalues --  -24.64386  -1.11123  -0.46069  -0.37082  -0.37082
 Alpha  occ. eigenvalues --   -0.33581
 Alpha virt. eigenvalues --   -0.08973   0.21449   0.27966   0.92990   0.92990
 Alpha virt. eigenvalues --    1.02054   1.21338   1.23894   1.23927   1.23927
 Alpha virt. eigenvalues --    1.33777   1.33777   1.70339   2.13282   2.24673

  Beta  occ. eigenvalues --  -24.64383  -1.11116  -0.46062  -0.37079  -0.37079
  Beta virt. eigenvalues --   -0.09291  -0.05640   0.24916   0.38570   0.92989
  Beta virt. eigenvalues --    0.92989   1.02060   1.21357   1.33769   1.33769
  Beta virt. eigenvalues --    1.47290   1.47343   1.47343   1.70358   2.23891

 Mulliken charges and spin densities:
               1          2
     1  H    0.358592  -0.000270
     2  H    0.000555   0.999410
     3  F   -0.359146   0.000860
 Sum of Mulliken charges =   0.00000   1.00000

 Dipole moment (field-independent basis, Debye):
    X=             -2.3970    Y=             -0.0000    Z=              0.0000  Tot=              2.3970
 Quadrupole moment (field-independent basis, Debye-Ang):
   XX=             -9.2566   YY=             -7.1993   ZZ=             -7.1993
   XY=             -0.0000   XZ=              0.0000   YZ=              0.0000

  Exact polarizability:      10.835      -0.000       2.278      -0.000      -0.000       2.278
 Approx polarizability:      17.032       0.000       2.221      -0.000       0.000       2.221

 ******    2 imaginary frequencies (negative Signs) ******

                      1                      2                      3
                      A                      A                      A
 Frequencies --   -602.4178               -39.4104              1166.5355
 Red. masses --      1.0577                 1.0539                 1.0346
 Frc consts  --      0.2261                 0.0010                 0.8295
 IR Inten    --     54.3265                 0.0158               138.3221

                      4
                      A
 Frequencies --   1166.5355
 Red. masses --      1.0346
 Frc consts  --      0.8295
 IR Inten    --    138.3221

 - Thermochemistry -
 -------------------
 Temperature   298.150 Kelvin.  Pressure   1.00000 Atm.
 Atom     1 has atomic number  1 and mass   1.00783

 Molecular mass:    21.01405 amu.
 Principal axes and moments of inertia in atomic units:
                           1         2         3
     Eigenvalues --     0.00000  96.10687  96.10687
           X            1.00000  -0.00000   0.00000
           Y            0.00000   1.00000   0.00000
           Z            0.00000   0.00000   1.00000
 This molecule is a prolate symmetric top.
 Rotational symmetry number  1.
 Rotational temperature (Kelvin)      0.90123
 Rotational constant (GHZ):          18.778482
    2 imaginary frequencies ignored.
 Zero-point vibrational energy      13954.9 (Joules/Mol)
                                    3.33529 (Kcal/Mol)
 Vibrational temperatures:   1678.38  1678.38
          (Kelvin)

 Zero-point correction=                           0.005315 (Hartree/Particle)
 Thermal correction to Energy=                    0.007714
 Thermal correction to Enthalpy=                  0.008658
 Thermal correction to Gibbs Free Energy=        -0.015125
 Sum of electronic and zero-point Energies=           -100.895894
 Sum of electronic and thermal Energies=              -100.893495
 Sum of electronic and thermal Enthalpies=            -100.892551
 Sum of electronic and thermal Free Energies=         -100.916334

                     E (Thermal)             CV                S
                      KCal/Mol        Cal/Mol-Kelvin    Cal/Mol-Kelvin
 Total                    4.841              5.424             50.057
 Electronic               0.000              0.000              1.377
 Translational            0.889              2.981             35.068
 Rotational               0.592              1.987             13.516
 Vibrational              3.359              0.456              0.095

 Normal termination of Gaussian 16 at Fri Aug 22 16:16:20 2025.
