 Gaussian 16, Revision C.01,
 Gaussian 16:  ES64L-G16RevC.01  3-Jul-2019

 -----------------------------------------
 # sp b3lyp/6-311g** Force nosymm scf=(qc)
 -----------------------------------------

 -------------------
 Title Card Required
 -------------------
 Symbolic Z-matrix:
 Charge =  0 Multiplicity = 2

                          Input orientation:
 ---------------------------------------------------------------------
 Center     Atomic      Atomic             Coordinates (Angstroms)
 Number     Number       Type             X           Y           Z
 ---------------------------------------------------------------------
      1          1           0        0.000000    0.000000    0.000000
      2          1           0       -0.800000    0.000000    0.000000
      3          9           0        1.800000    0.000000    0.000000
 ---------------------------------------------------------------------

 SCF Done:  E(UB3LYP) =  -100.934762068     a.u. after    7 cycles

 Alpha  occ. eigenvalues --  -24.73438  -1.19771  -0.54383  -0.44298  -0.44298
 Alpha  occ. eigenvalues --   -0.43725
 Alpha virt. eigenvalues --    0.06561   0.20395   0.41866   0.90194   0.90194
 Alpha virt. eigenvalues --    0.94482   1.07118   1.07118   1.16056   1.66151
 Alpha virt. eigenvalues --    1.77393   1.77393   2.03235   2.39166   3.04944

  Beta  occ. eigenvalues --  -24.70538  -1.11591  -0.44782  -0.41426  -0.41426
  Beta virt. eigenvalues --   -0.24940   0.07679   0.21142   0.42819   0.91442
  Beta virt. eigenvalues --    0.91442   1.01887   1.08354   1.08354   1.19269
  Beta virt. eigenvalues --    1.68281   1.78077   1.78077   2.04178   2.40468

 Mulliken charges and spin densities:
               1          2
     1  H    0.042368  -0.041699
     2  H    0.032920   0.140114
     3  F   -0.075288   0.901585
 Sum of Mulliken charges =   0.00000   1.00000

 Dipole moment (field-independent basis, Debye):
    X=             -0.7669    Y=              0.0000    Z=             -0.0000  Tot=              0.7669
 Quadrupole moment (field-independent basis, Debye-Ang):
   XX=             -6.4480   YY=             -6.9361   ZZ=             -6.9361
   XY=              0.0000   XZ=              0.0000   YZ=             -0.0000

  Exact polarizability:      21.766      -0.000       2.180       0.000       0.000       2.180
 Approx polarizability:      26.361      -0.000       2.225      -0.000       0.000       2.225

 ******    1 imaginary frequencies (negative Signs) ******

                      1                      2                      3
                      A                      A                      A
 Frequencies --   -305.1673               833.4387               833.4387
 Red. masses --      1.1083                 1.0111                 1.0111
 Frc consts  --      0.0608                 0.4138                 0.4138
 IR Inten    --     68.5852                 0.0074                 0.0074

                      4
                      A
 Frequencies --   3518.7185
 Red. masses --      1.0080
 Frc consts  --      7.3531
 IR Inten    --    516.7400

 - Thermochemistry -
 -------------------
 Temperature   298.150 Kelvin.  Pressure   1.00000 Atm.
 Atom     1 has atomic number  1 and mass   1.00783

 Molecular mass:    21.01405 amu.
 Principal axes and moments of inertia in atomic units:
                           1         2         3
     Eigenvalues --     0.00000  32.64842  32.64842
           X            1.00000  -0.00000   0.00000
           Y            0.00000   1.00000   0.00000
           Z            0.00000   0.00000   1.00000
 This molecule is a prolate symmetric top.
 Rotational symmetry number  1.
 Rotational temperature (Kelvin)      2.65293
 Rotational constant (GHZ):          55.278064
    1 imaginary frequencies ignored.
 Zero-point vibrational energy      31016.8 (Joules/Mol)
                                    7.41318 (Kcal/Mol)
 Vibrational temperatures:   1199.13  1199.13  5062.65
          (Kelvin)

 Zero-point correction=                           0.011814 (Hartree/Particle)
 Thermal correction to Energy=                    0.014313
 Thermal correction to Enthalpy=                  0.015257
 Thermal correction to Gibbs Free Energy=        -0.007635
 Sum of electronic and zero-point Energies=           -100.922948
 Sum of electronic and thermal Energies=              -100.920449
 Sum of electronic and thermal Enthalpies=            -100.919505
 Sum of electronic and thermal Free Energies=         -100.942397

                     E (Thermal)             CV                S
                      KCal/Mol        Cal/Mol-Kelvin    Cal/Mol-Kelvin
 Total                    8.981              6.162             48.180
 Electronic               0.000              0.000              1.377
 Translational            0.889              2.981             35.068
 Rotational               0.592              1.987             11.371
 Vibrational              7.500              1.194              0.364

 Normal termination of Gaussian 16 at Fri Aug 22 16:42:24 2025.
