 Gaussian 16, Revision C.01,
 Gaussian 16:  ES64L-G16RevC.01  3-Jul-2019

 -----------------------------------------
 # sp b3lyp/6-311g** Force nosymm scf=(qc)
 -----------------------------------------

 -------------------
 Title Card Required
 -------------------
 Symbolic Z-matrix:
 Charge =  0 Multiplicity = 2

                          Input orientation:
 ---------------------------------------------------------------------
 Center     Atomic      Atomic             Coordinates (Angstroms)
 Number     Number       Type             X           Y           Z
 ---------------------------------------------------------------------
      1          1           0        0.000000    0.000000    0.000000
      2          1           0       -1.150000    0.000000    0.000000
      3          9           0        3.250000    0.000000    0.000000
 ---------------------------------------------------------------------

 SCF Done:  E(UB3LYP) =  -100.881081743     a.u. after   91 cycles

 Alpha  occ. eigenvalues --  -24.76513  -1.22358  -0.55553  -0.46770  -0.46706
 Alpha  occ. eigenvalues --   -0.36823
 Alpha virt. eigenvalues --   -0.02876   0.22549   0.35256   0.85874   0.90749
 Alpha virt. eigenvalues --    0.92937   1.02380   1.11863   1.11867   1.25962
 Alpha virt. eigenvalues --    1.57163   1.57168   2.12746   2.33405   2.55383

  Beta  occ. eigenvalues --  -24.73354  -1.13277  -0.43607  -0.43539  -0.36816
  Beta virt. eigenvalues --   -0.26187  -0.02864   0.22564   0.35312   0.92248
  Beta virt. eigenvalues --    0.94510   0.95335   1.06380   1.11863   1.11867
  Beta virt. eigenvalues --    1.25972   1.57163   1.57168   2.12755   2.33408

 Mulliken charges and spin densities:
               1          2
     1  H   -0.000916  -0.000313
     2  H   -0.004344  -0.000337
     3  F    0.005260   1.000649
 Sum of Mulliken charges =   0.00000   1.00000

 Dipole moment (field-independent basis, Debye):
    X=              0.0721    Y=              0.0000    Z=             -0.0000  Tot=              0.0721
 Quadrupole moment (field-independent basis, Debye-Ang):
   XX=             -6.1990   YY=             -7.4240   ZZ=             -6.6058
   XY=              0.0000   XZ=             -0.0000   YZ=             -0.1387

  Exact polarizability:      15.250      -0.000       2.091      -0.000      -0.074       2.529
 Approx polarizability:      21.971       0.000       2.127      -0.000      -0.093       2.678

                      1                      2                      3
                      A                      A                      A
 Frequencies --     11.3703               584.2759              1502.3071
 Red. masses --      1.1085                 1.0078                 1.0101
 Frc consts  --      0.0001                 0.2027                 1.3431
 IR Inten    --      0.2815                 0.3772                 0.0006

                      4
                      A
 Frequencies --   1503.2428
 Red. masses --      1.0101
 Frc consts  --      1.3448
 IR Inten    --      0.0007

 - Thermochemistry -
 -------------------
 Temperature   298.150 Kelvin.  Pressure   1.00000 Atm.
 Atom     1 has atomic number  1 and mass   1.00783

 Molecular mass:    21.01405 amu.
 Principal axes and moments of inertia in atomic units:
                           1         2         3
     Eigenvalues --     0.00000  97.58994  97.58994
           X            1.00000  -0.00000   0.00000
           Y            0.00000   1.00000   0.00000
           Z            0.00000   0.00000   1.00000
 This molecule is a prolate symmetric top.
 Rotational symmetry number  1.
 Rotational temperature (Kelvin)      0.88753
 Rotational constant (GHZ):          18.493106
 Zero-point vibrational energy      21539.9 (Joules/Mol)
                                    5.14817 (Kcal/Mol)
 Warning -- explicit consideration of   2 degrees of freedom as
           vibrations may cause significant error
 Vibrational temperatures:     16.36   840.64  2161.48  2162.83
          (Kelvin)

 Zero-point correction=                           0.008204 (Hartree/Particle)
 Thermal correction to Energy=                    0.011662
 Thermal correction to Enthalpy=                  0.012606
 Thermal correction to Gibbs Free Energy=        -0.015070
 Sum of electronic and zero-point Energies=           -100.872878
 Sum of electronic and thermal Energies=              -100.869420
 Sum of electronic and thermal Enthalpies=            -100.868476
 Sum of electronic and thermal Free Energies=         -100.896152

                     E (Thermal)             CV                S
                      KCal/Mol        Cal/Mol-Kelvin    Cal/Mol-Kelvin
 Total                    7.318              8.168             58.249
 Electronic               0.000              0.000              1.377
 Translational            0.889              2.981             35.068
 Rotational               0.592              1.987             13.547
 Vibrational              5.837              3.200              8.257
 Vibration     1          0.593              1.987              7.756
 Vibration     2          0.941              1.065              0.478

 Normal termination of Gaussian 16 at Fri Aug 22 20:28:44 2025.
