 Gaussian 16, Revision C.01,
 Gaussian 16:  ES64L-G16RevC.01  3-Jul-2019

 -----------------------------------------
 # sp b3lyp/6-311g** Force nosymm scf=(qc)
 -----------------------------------------

 -------------------
 Title Card Required
 -------------------
 Symbolic Z-matrix:
 Charge =  0 Multiplicity = 2

                          Input orientation:
 ---------------------------------------------------------------------
 Center     Atomic      Atomic             Coordinates (Angstroms)
 Number     Number       Type             X           Y           Z
 ---------------------------------------------------------------------
      1          1           0        0.000000    0.000000    0.000000
      2          1           0       -1.000000    0.000000    0.000000
      3          9           0        1.650000    0.000000    0.000000
 ---------------------------------------------------------------------

 SCF Done:  E(UB3LYP) =  -100.917812873     a.u. after    9 cycles

 Alpha  occ. eigenvalues --  -24.70626  -1.17301  -0.52532  -0.42063  -0.42063
 Alpha  occ. eigenvalues --   -0.41313
 Alpha virt. eigenvalues --    0.02115   0.20439   0.35434   0.90431   0.90431
 Alpha virt. eigenvalues --    0.96702   1.07445   1.07445   1.13306   1.61514
 Alpha virt. eigenvalues --    1.63578   1.63578   2.20805   2.31603   2.57341

  Beta  occ. eigenvalues --  -24.68061  -1.10176  -0.42966  -0.39547  -0.39547
  Beta virt. eigenvalues --   -0.24075   0.04169   0.21696   0.36735   0.91470
  Beta virt. eigenvalues --    0.91470   1.03351   1.09750   1.09750   1.16179
  Beta virt. eigenvalues --    1.64875   1.64937   1.64937   2.22828   2.34664

 Mulliken charges and spin densities:
               1          2
     1  H    0.104214  -0.092981
     2  H    0.050105   0.301708
     3  F   -0.154320   0.791274
 Sum of Mulliken charges =   0.00000   1.00000

 Dipole moment (field-independent basis, Debye):
    X=             -1.4616    Y=             -0.0000    Z=             -0.0000  Tot=              1.4616
 Quadrupole moment (field-independent basis, Debye-Ang):
   XX=             -7.1019   YY=             -7.0884   ZZ=             -7.0884
   XY=             -0.0000   XZ=             -0.0000   YZ=              0.0000

  Exact polarizability:      30.005       0.000       2.296      -0.000      -0.000       2.296
 Approx polarizability:      42.634       0.000       2.299       0.000      -0.000       2.299

 ******    1 imaginary frequencies (negative Signs) ******

                      1                      2                      3
                      A                      A                      A
 Frequencies --  -1174.6747              1143.5508              1333.5452
 Red. masses --      1.0695                 1.0424                 1.0130
 Frc consts  --      0.8695                 0.8031                 1.0614
 IR Inten    --    712.8522               375.1391                 1.2057

                      4
                      A
 Frequencies --   1333.5452
 Red. masses --      1.0130
 Frc consts  --      1.0614
 IR Inten    --      1.2057

 - Thermochemistry -
 -------------------
 Temperature   298.150 Kelvin.  Pressure   1.00000 Atm.
 Atom     1 has atomic number  1 and mass   1.00783

 Molecular mass:    21.01405 amu.
 Principal axes and moments of inertia in atomic units:
                           1         2         3
     Eigenvalues --     0.00000  31.88084  31.88084
           X            1.00000  -0.00000   0.00000
           Y            0.00000   1.00000   0.00000
           Z            0.00000   0.00000   1.00000
 This molecule is a prolate symmetric top.
 Rotational symmetry number  1.
 Rotational temperature (Kelvin)      2.71680
 Rotational constant (GHZ):          56.608967
    1 imaginary frequencies ignored.
 Zero-point vibrational energy      22792.7 (Joules/Mol)
                                    5.44759 (Kcal/Mol)
 Vibrational temperatures:   1645.31  1918.67  1918.67
          (Kelvin)

 Zero-point correction=                           0.008681 (Hartree/Particle)
 Thermal correction to Energy=                    0.011082
 Thermal correction to Enthalpy=                  0.012026
 Thermal correction to Gibbs Free Energy=        -0.010717
 Sum of electronic and zero-point Energies=           -100.909132
 Sum of electronic and thermal Energies=              -100.906731
 Sum of electronic and thermal Enthalpies=            -100.905786
 Sum of electronic and thermal Free Energies=         -100.928530

                     E (Thermal)             CV                S
                      KCal/Mol        Cal/Mol-Kelvin    Cal/Mol-Kelvin
 Total                    6.954              5.478             47.868
 Electronic               0.000              0.000              1.377
 Translational            0.889              2.981             35.068
 Rotational               0.592              1.987             11.323
 Vibrational              5.473              0.510              0.100

 Normal termination of Gaussian 16 at Fri Aug 22 16:33:21 2025.
