 Gaussian 16, Revision C.01,
 Gaussian 16:  ES64L-G16RevC.01  3-Jul-2019

 -----------------------------------------
 # sp b3lyp/6-311g** Force nosymm scf=(qc)
 -----------------------------------------

 -------------------
 Title Card Required
 -------------------
 Symbolic Z-matrix:
 Charge =  0 Multiplicity = 2

                          Input orientation:
 ---------------------------------------------------------------------
 Center     Atomic      Atomic             Coordinates (Angstroms)
 Number     Number       Type             X           Y           Z
 ---------------------------------------------------------------------
      1          1           0        0.000000    0.000000    0.000000
      2          1           0       -0.600000    0.000000    0.000000
      3          9           0        1.550000    0.000000    0.000000
 ---------------------------------------------------------------------

 SCF Done:  E(UB3LYP) =  -100.913021853     a.u. after    5 cycles

 Alpha  occ. eigenvalues --  -24.72607  -1.19473  -0.57722  -0.45022  -0.43864
 Alpha  occ. eigenvalues --   -0.43864
 Alpha virt. eigenvalues --    0.11287   0.19717   0.49699   0.88668   0.88668
 Alpha virt. eigenvalues --    0.96741   1.10461   1.10461   1.31661   1.67650
 Alpha virt. eigenvalues --    1.84018   1.91789   1.91789   2.47898   3.67530

  Beta  occ. eigenvalues --  -24.69764  -1.11606  -0.50305  -0.41085  -0.41085
  Beta virt. eigenvalues --   -0.23652   0.12121   0.20438   0.51659   0.89889
  Beta virt. eigenvalues --    0.89889   1.03354   1.12144   1.12144   1.35412
  Beta virt. eigenvalues --    1.70061   1.84901   1.92665   1.92665   2.50068

 Mulliken charges and spin densities:
               1          2
     1  H    0.101483  -0.028673
     2  H    0.004277   0.164893
     3  F   -0.105759   0.863780
 Sum of Mulliken charges =   0.00000   1.00000

 Dipole moment (field-independent basis, Debye):
    X=             -0.8030    Y=              0.0000    Z=              0.0000  Tot=              0.8030
 Quadrupole moment (field-independent basis, Debye-Ang):
   XX=             -6.5272   YY=             -6.6249   ZZ=             -6.6249
   XY=              0.0000   XZ=              0.0000   YZ=             -0.0000

  Exact polarizability:      15.354      -0.000       2.213      -0.000       0.000       2.213
 Approx polarizability:      17.988       0.000       2.271      -0.000       0.000       2.271

 ******    2 imaginary frequencies (negative Signs) ******

                      1                      2                      3
                      A                      A                      A
 Frequencies --  -2905.9856             -2905.9856               423.8318
 Red. masses --      1.0104                 1.0104                 1.1085
 Frc consts  --      5.0273                 5.0273                 0.1173
 IR Inten    --      0.0191                 0.0191                55.7621

                      4
                      A
 Frequencies --   6892.6909
 Red. masses --      1.0078
 Frc consts  --     28.2112
 IR Inten    --    467.4721

 - Thermochemistry -
 -------------------
 Temperature   298.150 Kelvin.  Pressure   1.00000 Atm.
 Atom     1 has atomic number  1 and mass   1.00783

 Molecular mass:    21.01405 amu.
 Principal axes and moments of inertia in atomic units:
                           1         2         3
     Eigenvalues --     0.00000  22.92005  22.92005
           X            1.00000  -0.00000   0.00000
           Y            0.00000   1.00000   0.00000
           Z            0.00000   0.00000   1.00000
 This molecule is a prolate symmetric top.
 Rotational symmetry number  1.
 Rotational temperature (Kelvin)      3.77896
 Rotational constant (GHZ):          78.740731
    2 imaginary frequencies ignored.
 Zero-point vibrational energy      43762.5 (Joules/Mol)
                                   10.45949 (Kcal/Mol)
 Warning -- explicit consideration of   1 degrees of freedom as
           vibrations may cause significant error
 Vibrational temperatures:    609.80  9917.04
          (Kelvin)

 Zero-point correction=                           0.016668 (Hartree/Particle)
 Thermal correction to Energy=                    0.019316
 Thermal correction to Enthalpy=                  0.020260
 Thermal correction to Gibbs Free Energy=        -0.002543
 Sum of electronic and zero-point Energies=           -100.896354
 Sum of electronic and thermal Energies=              -100.893706
 Sum of electronic and thermal Enthalpies=            -100.892762
 Sum of electronic and thermal Free Energies=         -100.915565

                     E (Thermal)             CV                S
                      KCal/Mol        Cal/Mol-Kelvin    Cal/Mol-Kelvin
 Total                   12.121              6.386             47.992
 Electronic               0.000              0.000              1.377
 Translational            0.889              2.981             35.068
 Rotational               0.592              1.987             10.668
 Vibrational             10.640              1.418              0.879
 Vibration     1          0.786              1.418              0.879

 Normal termination of Gaussian 16 at Fri Aug 22 16:27:03 2025.
