 Gaussian 16, Revision C.01,
 Gaussian 16:  ES64L-G16RevC.01  3-Jul-2019

 -----------------------------------------
 # sp b3lyp/6-311g** Force nosymm scf=(qc)
 -----------------------------------------

 -------------------
 Title Card Required
 -------------------
 Symbolic Z-matrix:
 Charge =  0 Multiplicity = 2

                          Input orientation:
 ---------------------------------------------------------------------
 Center     Atomic      Atomic             Coordinates (Angstroms)
 Number     Number       Type             X           Y           Z
 ---------------------------------------------------------------------
      1          1           0        0.000000    0.000000    0.000000
      2          1           0       -2.650000    0.000000    0.000000
      3          9           0        3.200000    0.000000    0.000000
 ---------------------------------------------------------------------

 SCF Done:  E(UB3LYP) =  -100.762491161     a.u. after   27 cycles

 Alpha  occ. eigenvalues --  -24.74774  -1.20782  -0.53894  -0.45251  -0.45251
 Alpha  occ. eigenvalues --   -0.32767
 Alpha virt. eigenvalues --   -0.09538   0.25343   0.34285   0.88725   0.91858
 Alpha virt. eigenvalues --    0.91858   1.02872   1.24833   1.24833   1.26402
 Alpha virt. eigenvalues --    1.41483   1.41483   1.42368   2.15799   2.37732

  Beta  occ. eigenvalues --  -24.71702  -1.11963  -0.42174  -0.42174  -0.33374
  Beta virt. eigenvalues --   -0.25169  -0.08625   0.25243   0.35479   0.93334
  Beta virt. eigenvalues --    0.93334   0.97679   1.06811   1.24107   1.24107
  Beta virt. eigenvalues --    1.25537   1.42952   1.42952   1.43787   2.16567

 Mulliken charges and spin densities:
               1          2
     1  H    0.020577  -0.954771
     2  H    0.002804   0.980716
     3  F   -0.023381   0.974055
 Sum of Mulliken charges =  -0.00000   1.00000

 Dipole moment (field-independent basis, Debye):
    X=             -0.4196    Y=             -0.0000    Z=             -0.0000  Tot=              0.4196
 Quadrupole moment (field-independent basis, Debye-Ang):
   XX=             -7.6664   YY=             -7.6476   ZZ=             -7.6476
   XY=             -0.0000   XZ=             -0.0000   YZ=              0.0000

  Exact polarizability:      37.785      -0.000       2.020      -0.000      -0.000       2.020
 Approx polarizability:      31.900      -0.000       1.926      -0.000       0.000       1.926

 ******    2 imaginary frequencies (negative Signs) ******

                      1                      2                      3
                      A                      A                      A
 Frequencies --   -567.6331              -188.1919               208.1629
 Red. masses --      1.0098                 1.1061                 1.0158
 Frc consts  --      0.1917                 0.0231                 0.0259
 IR Inten    --     15.9662                11.8083                 0.3381

                      4
                      A
 Frequencies --    208.1629
 Red. masses --      1.0158
 Frc consts  --      0.0259
 IR Inten    --      0.3381

 - Thermochemistry -
 -------------------
 Temperature   298.150 Kelvin.  Pressure   1.00000 Atm.
 Atom     1 has atomic number  1 and mass   1.00783

 Molecular mass:    21.01405 amu.
 Principal axes and moments of inertia in atomic units:
                           1         2         3
     Eigenvalues --     0.00000 145.88398 145.88398
           X            1.00000  -0.00000   0.00000
           Y            0.00000   1.00000   0.00000
           Z            0.00000   0.00000   1.00000
 This molecule is a prolate symmetric top.
 Rotational symmetry number  1.
 Rotational temperature (Kelvin)      0.59372
 Rotational constant (GHZ):          12.371072
    2 imaginary frequencies ignored.
 Zero-point vibrational energy       2490.2 (Joules/Mol)
                                    0.59517 (Kcal/Mol)
 Warning -- explicit consideration of   2 degrees of freedom as
           vibrations may cause significant error
 Vibrational temperatures:    299.50   299.50
          (Kelvin)

 Zero-point correction=                           0.000948 (Hartree/Particle)
 Thermal correction to Energy=                    0.004405
 Thermal correction to Enthalpy=                  0.005349
 Thermal correction to Gibbs Free Energy=        -0.020741
 Sum of electronic and zero-point Energies=           -100.761543
 Sum of electronic and thermal Energies=              -100.758086
 Sum of electronic and thermal Enthalpies=            -100.757142
 Sum of electronic and thermal Free Energies=         -100.783232

                     E (Thermal)             CV                S
                      KCal/Mol        Cal/Mol-Kelvin    Cal/Mol-Kelvin
 Total                    2.764              8.624             54.910
 Electronic               0.000              0.000              1.377
 Translational            0.889              2.981             35.068
 Rotational               0.592              1.987             14.346
 Vibrational              1.283              3.656              4.119
 Vibration     1          0.641              1.828              2.060
 Vibration     2          0.641              1.828              2.060

 Normal termination of Gaussian 16 at Fri Aug 22 20:23:56 2025.
