 Gaussian 16, Revision C.01,
 Gaussian 16:  ES64L-G16RevC.01  3-Jul-2019

 -----------------------------------------
 # sp b3lyp/6-311g** Force nosymm scf=(qc)
 -----------------------------------------

 -------------------
 Title Card Required
 -------------------
 Symbolic Z-matrix:
 Charge =  0 Multiplicity = 2

                          Input orientation:
 ---------------------------------------------------------------------
 Center     Atomic      Atomic             Coordinates (Angstroms)
 Number     Number       Type             X           Y           Z
 ---------------------------------------------------------------------
      1          1           0        0.000000    0.000000    0.000000
      2          1           0       -3.150000    0.000000    0.000000
      3          9           0        3.900000    0.000000    0.000000
 ---------------------------------------------------------------------

 SCF Done:  E(UB3LYP) =  -100.759180681     a.u. after   33 cycles

 Alpha  occ. eigenvalues --  -24.75832  -1.21763  -0.54957  -0.46143  -0.46143
 Alpha  occ. eigenvalues --   -0.32318
 Alpha virt. eigenvalues --   -0.07356   0.24815   0.36920   0.86691   0.91200
 Alpha virt. eigenvalues --    0.91200   1.01155   1.25203   1.25203   1.25668
 Alpha virt. eigenvalues --    1.44734   1.44898   1.44898   2.15600   2.40099

  Beta  occ. eigenvalues --  -24.72690  -1.12728  -0.42993  -0.42993  -0.32529
  Beta virt. eigenvalues --   -0.25709  -0.07111   0.24649   0.37257   0.92698
  Beta virt. eigenvalues --    0.92698   0.96043   1.05272   1.24973   1.24973
  Beta virt. eigenvalues --    1.25421   1.45106   1.45267   1.45267   2.15633

 Mulliken charges and spin densities:
               1          2
     1  H    0.003126  -0.991099
     2  H    0.000202   0.994814
     3  F   -0.003328   0.996285
 Sum of Mulliken charges =   0.00000   1.00000

 Dipole moment (field-independent basis, Debye):
    X=             -0.0702    Y=              0.0000    Z=             -0.0000  Tot=              0.0702
 Quadrupole moment (field-independent basis, Debye-Ang):
   XX=             -6.9215   YY=             -7.6313   ZZ=             -7.6313
   XY=              0.0000   XZ=             -0.0000   YZ=              0.0000

  Exact polarizability:      14.340       0.000       2.031      -0.000      -0.000       2.031
 Approx polarizability:      10.670       0.000       1.935      -0.000      -0.000       1.935

 ******    2 imaginary frequencies (negative Signs) ******

                      1                      2                      3
                      A                      A                      A
 Frequencies --   -281.6623               -78.7562                98.4094
 Red. masses --      1.0086                 1.1076                 1.0156
 Frc consts  --      0.0471                 0.0040                 0.0058
 IR Inten    --      1.1040                 0.8739                 0.0088

                      4
                      A
 Frequencies --     98.4094
 Red. masses --      1.0156
 Frc consts  --      0.0058
 IR Inten    --      0.0088

 - Thermochemistry -
 -------------------
 Temperature   298.150 Kelvin.  Pressure   1.00000 Atm.
 Atom     1 has atomic number  1 and mass   1.00783

 Molecular mass:    21.01405 amu.
 Principal axes and moments of inertia in atomic units:
                           1         2         3
     Eigenvalues --     0.00000 212.92464 212.92464
           X            1.00000  -0.00000   0.00000
           Y            0.00000   1.00000   0.00000
           Z            0.00000   0.00000   1.00000
 This molecule is a prolate symmetric top.
 Rotational symmetry number  1.
 Rotational temperature (Kelvin)      0.40678
 Rotational constant (GHZ):           8.475962
    2 imaginary frequencies ignored.
 Zero-point vibrational energy       1177.2 (Joules/Mol)
                                    0.28137 (Kcal/Mol)
 Warning -- explicit consideration of   2 degrees of freedom as
           vibrations may cause significant error
 Vibrational temperatures:    141.59   141.59
          (Kelvin)

 Zero-point correction=                           0.000448 (Hartree/Particle)
 Thermal correction to Energy=                    0.004284
 Thermal correction to Enthalpy=                  0.005228
 Thermal correction to Gibbs Free Energy=        -0.022573
 Sum of electronic and zero-point Energies=           -100.758732
 Sum of electronic and thermal Energies=              -100.754896
 Sum of electronic and thermal Enthalpies=            -100.753952
 Sum of electronic and thermal Free Energies=         -100.781754

                     E (Thermal)             CV                S
                      KCal/Mol        Cal/Mol-Kelvin    Cal/Mol-Kelvin
 Total                    2.688              8.869             58.514
 Electronic               0.000              0.000              1.377
 Translational            0.889              2.981             35.068
 Rotational               0.592              1.987             15.097
 Vibrational              1.207              3.901              6.971
 Vibration     1          0.604              1.950              3.486
 Vibration     2          0.604              1.950              3.486

 Normal termination of Gaussian 16 at Sat Aug 23 01:26:30 2025.
