 Gaussian 16, Revision C.01,
 Gaussian 16:  ES64L-G16RevC.01  3-Jul-2019

 -----------------------------------------
 # sp b3lyp/6-311g** Force nosymm scf=(qc)
 -----------------------------------------

 -------------------
 Title Card Required
 -------------------
 Symbolic Z-matrix:
 Charge =  0 Multiplicity = 2

                          Input orientation:
 ---------------------------------------------------------------------
 Center     Atomic      Atomic             Coordinates (Angstroms)
 Number     Number       Type             X           Y           Z
 ---------------------------------------------------------------------
      1          1           0        0.000000    0.000000    0.000000
      2          1           0       -2.000000    0.000000    0.000000
      3          9           0        3.050000    0.000000    0.000000
 ---------------------------------------------------------------------

 SCF Done:  E(UB3LYP) =  -100.775991904     a.u. after   27 cycles

 Alpha  occ. eigenvalues --  -24.74524  -1.20547  -0.53643  -0.45041  -0.45041
 Alpha  occ. eigenvalues --   -0.33627
 Alpha virt. eigenvalues --   -0.11633   0.25537   0.31860   0.89421   0.92005
 Alpha virt. eigenvalues --    0.92005   1.03659   1.16850   1.24337   1.24337
 Alpha virt. eigenvalues --    1.36958   1.36958   1.50439   2.12553   2.36681

  Beta  occ. eigenvalues --  -24.71472  -1.11795  -0.41986  -0.41986  -0.33763
  Beta virt. eigenvalues --   -0.25087  -0.11074   0.25901   0.32406   0.93474
  Beta virt. eigenvalues --    0.93474   0.98220   1.07593   1.16827   1.24135
  Beta virt. eigenvalues --    1.24135   1.37805   1.37805   1.51098   2.13689

 Mulliken charges and spin densities:
               1          2
     1  H    0.015189  -0.827840
     2  H    0.013725   0.860778
     3  F   -0.028914   0.967062
 Sum of Mulliken charges =  -0.00000   1.00000

 Dipole moment (field-independent basis, Debye):
    X=             -0.5829    Y=             -0.0000    Z=              0.0000  Tot=              0.5829
 Quadrupole moment (field-independent basis, Debye-Ang):
   XX=             -7.2448   YY=             -7.7129   ZZ=             -7.7129
   XY=              0.0000   XZ=             -0.0000   YZ=              0.0000

  Exact polarizability:      57.600       0.000       2.006      -0.000       0.000       2.006
 Approx polarizability:      52.428       0.000       1.933      -0.000      -0.000       1.933

 ******    2 imaginary frequencies (negative Signs) ******

                      1                      2                      3
                      A                      A                      A
 Frequencies --  -1365.4074              -227.7758               551.7071
 Red. masses --      1.0080                 1.1083                 1.0136
 Frc consts  --      1.1072                 0.0339                 0.1818
 IR Inten    --     36.0574                25.6350                 0.0797

                      4
                      A
 Frequencies --    551.7071
 Red. masses --      1.0136
 Frc consts  --      0.1818
 IR Inten    --      0.0797

 - Thermochemistry -
 -------------------
 Temperature   298.150 Kelvin.  Pressure   1.00000 Atm.
 Atom     1 has atomic number  1 and mass   1.00783

 Molecular mass:    21.01405 amu.
 Principal axes and moments of inertia in atomic units:
                           1         2         3
     Eigenvalues --     0.00000 113.93875 113.93875
           X            1.00000  -0.00000   0.00000
           Y            0.00000   1.00000   0.00000
           Z            0.00000   0.00000   1.00000
 This molecule is a prolate symmetric top.
 Rotational symmetry number  1.
 Rotational temperature (Kelvin)      0.76018
 Rotational constant (GHZ):          15.839573
    2 imaginary frequencies ignored.
 Zero-point vibrational energy       6599.9 (Joules/Mol)
                                    1.57741 (Kcal/Mol)
 Warning -- explicit consideration of   2 degrees of freedom as
           vibrations may cause significant error
 Vibrational temperatures:    793.78   793.78
          (Kelvin)

 Zero-point correction=                           0.002514 (Hartree/Particle)
 Thermal correction to Energy=                    0.005251
 Thermal correction to Enthalpy=                  0.006196
 Thermal correction to Gibbs Free Energy=        -0.018217
 Sum of electronic and zero-point Energies=           -100.773478
 Sum of electronic and thermal Energies=              -100.770741
 Sum of electronic and thermal Enthalpies=            -100.769796
 Sum of electronic and thermal Free Energies=         -100.794209

                     E (Thermal)             CV                S
                      KCal/Mol        Cal/Mol-Kelvin    Cal/Mol-Kelvin
 Total                    3.295              7.240             51.381
 Electronic               0.000              0.000              1.377
 Translational            0.889              2.981             35.068
 Rotational               0.592              1.987             13.854
 Vibrational              1.814              2.272              1.081
 Vibration     1          0.907              1.136              0.541
 Vibration     2          0.907              1.136              0.541

 Normal termination of Gaussian 16 at Fri Aug 22 19:43:34 2025.
