 Gaussian 16, Revision C.01,
 Gaussian 16:  ES64L-G16RevC.01  3-Jul-2019

 -----------------------------------------
 # sp b3lyp/6-311g** Force nosymm scf=(qc)
 -----------------------------------------

 -------------------
 Title Card Required
 -------------------
 Symbolic Z-matrix:
 Charge =  0 Multiplicity = 2

                          Input orientation:
 ---------------------------------------------------------------------
 Center     Atomic      Atomic             Coordinates (Angstroms)
 Number     Number       Type             X           Y           Z
 ---------------------------------------------------------------------
      1          1           0        0.000000    0.000000    0.000000
      2          1           0       -1.950000    0.000000    0.000000
      3          9           0        3.950000    0.000000    0.000000
 ---------------------------------------------------------------------

 SCF Done:  E(UB3LYP) =  -100.776604873     a.u. after  100 cycles

 Alpha  occ. eigenvalues --  -24.76132  -1.22039  -0.55245  -0.46412  -0.46402
 Alpha  occ. eigenvalues --   -0.32760
 Alpha virt. eigenvalues --   -0.10554   0.26116   0.32572   0.86113   0.90991
 Alpha virt. eigenvalues --    0.91303   1.00917   1.15604   1.25223   1.25223
 Alpha virt. eigenvalues --    1.38197   1.38200   1.53747   2.13644   2.37128

  Beta  occ. eigenvalues --  -24.72978  -1.12968  -0.43252  -0.43239  -0.32739
  Beta virt. eigenvalues --   -0.25898  -0.10607   0.26111   0.32571   0.92493
  Beta virt. eigenvalues --    0.92775   0.95581   1.05059   1.15590   1.25233
  Beta virt. eigenvalues --    1.25236   1.38166   1.38166   1.53743   2.13808

 Mulliken charges and spin densities:
               1          2
     1  H    0.000506  -0.829290
     2  H   -0.001125   0.829316
     3  F    0.000619   0.999973
 Sum of Mulliken charges =   0.00000   1.00000

 Dipole moment (field-independent basis, Debye):
    X=              0.0180    Y=             -0.0000    Z=             -0.0000  Tot=              0.0180
 Quadrupole moment (field-independent basis, Debye-Ang):
   XX=             -6.9536   YY=             -6.8917   ZZ=             -7.7199
   XY=              0.0000   XZ=              0.0000   YZ=              0.1244

  Exact polarizability:      22.069      -0.000       2.467       0.000       0.067       2.021
 Approx polarizability:      26.619       0.000       2.515       0.000       0.084       1.956

 ******    2 imaginary frequencies (negative Signs) ******

                      1                      2                      3
                      A                      A                      A
 Frequencies --  -1442.9683               -48.1935               604.7437
 Red. masses --      1.0078                 1.1085                 1.0116
 Frc consts  --      1.2364                 0.0015                 0.2180
 IR Inten    --      0.0010                 0.0245                 0.0007

                      4
                      A
 Frequencies --    605.0316
 Red. masses --      1.0116
 Frc consts  --      0.2182
 IR Inten    --      0.0005

 - Thermochemistry -
 -------------------
 Temperature   298.150 Kelvin.  Pressure   1.00000 Atm.
 Atom     1 has atomic number  1 and mass   1.00783

 Molecular mass:    21.01405 amu.
 Principal axes and moments of inertia in atomic units:
                           1         2         3
     Eigenvalues --     0.00000 164.68826 164.68826
           X            1.00000  -0.00000   0.00000
           Y            0.00000   1.00000   0.00000
           Z            0.00000   0.00000   1.00000
 This molecule is a prolate symmetric top.
 Rotational symmetry number  1.
 Rotational temperature (Kelvin)      0.52593
 Rotational constant (GHZ):          10.958530
    2 imaginary frequencies ignored.
 Zero-point vibrational energy       7236.1 (Joules/Mol)
                                    1.72946 (Kcal/Mol)
 Warning -- explicit consideration of   2 degrees of freedom as
           vibrations may cause significant error
 Vibrational temperatures:    870.09   870.51
          (Kelvin)

 Zero-point correction=                           0.002756 (Hartree/Particle)
 Thermal correction to Energy=                    0.005431
 Thermal correction to Enthalpy=                  0.006375
 Thermal correction to Gibbs Free Energy=        -0.018291
 Sum of electronic and zero-point Energies=           -100.773849
 Sum of electronic and thermal Energies=              -100.771174
 Sum of electronic and thermal Enthalpies=            -100.770230
 Sum of electronic and thermal Free Energies=         -100.794896

                     E (Thermal)             CV                S
                      KCal/Mol        Cal/Mol-Kelvin    Cal/Mol-Kelvin
 Total                    3.408              7.011             51.915
 Electronic               0.000              0.000              1.377
 Translational            0.889              2.981             35.068
 Rotational               0.592              1.987             14.586
 Vibrational              1.927              2.043              0.883
 Vibration     1          0.963              1.022              0.442
 Vibration     2          0.964              1.021              0.441

 Normal termination of Gaussian 16 at Sat Aug 23 01:36:39 2025.
