 Gaussian 16, Revision C.01,
 Gaussian 16:  ES64L-G16RevC.01  3-Jul-2019

 -----------------------------------------
 # sp b3lyp/6-311g** Force nosymm scf=(qc)
 -----------------------------------------

 -------------------
 Title Card Required
 -------------------
 Symbolic Z-matrix:
 Charge =  0 Multiplicity = 2

                          Input orientation:
 ---------------------------------------------------------------------
 Center     Atomic      Atomic             Coordinates (Angstroms)
 Number     Number       Type             X           Y           Z
 ---------------------------------------------------------------------
      1          1           0        0.000000    0.000000    0.000000
      2          1           0       -2.150000    0.000000    0.000000
      3          9           0        2.350000    0.000000    0.000000
 ---------------------------------------------------------------------

 SCF Done:  E(UB3LYP) =  -100.780730188     a.u. after   17 cycles

 Alpha  occ. eigenvalues --  -24.70805  -1.17058  -0.49894  -0.41909  -0.41909
 Alpha  occ. eigenvalues --   -0.34877
 Alpha virt. eigenvalues --   -0.13005   0.24700   0.32226   0.89451   0.94115
 Alpha virt. eigenvalues --    0.94115   1.06231   1.22985   1.22985   1.26123
 Alpha virt. eigenvalues --    1.35323   1.35323   1.46800   2.11757   2.32307

  Beta  occ. eigenvalues --  -24.68053  -1.09251  -0.39171  -0.39171  -0.35781
  Beta virt. eigenvalues --   -0.22872  -0.11204   0.26437   0.32843   0.95134
  Beta virt. eigenvalues --    0.95394   0.95394   1.09018   1.22409   1.22409
  Beta virt. eigenvalues --    1.32421   1.38216   1.38216   1.45502   2.12023

 Mulliken charges and spin densities:
               1          2
     1  H    0.084608  -0.787170
     2  H    0.026699   0.918726
     3  F   -0.111308   0.868443
 Sum of Mulliken charges =   0.00000   1.00000

 Dipole moment (field-independent basis, Debye):
    X=             -1.5988    Y=             -0.0000    Z=              0.0000  Tot=              1.5988
 Quadrupole moment (field-independent basis, Debye-Ang):
   XX=             -8.6091   YY=             -7.6207   ZZ=             -7.6207
   XY=             -0.0000   XZ=              0.0000   YZ=             -0.0000

  Exact polarizability:      52.769      -0.000       2.017       0.000      -0.000       2.017
 Approx polarizability:      57.025       0.000       1.926       0.000       0.000       1.926

 ******    2 imaginary frequencies (negative Signs) ******

                      1                      2                      3
                      A                      A                      A
 Frequencies --  -1199.2149              -437.3100               483.3683
 Red. masses --      1.0130                 1.1024                 1.0169
 Frc consts  --      0.8583                 0.1242                 0.1400
 IR Inten    --     61.2499                46.6650                 4.7930

                      4
                      A
 Frequencies --    483.3683
 Red. masses --      1.0169
 Frc consts  --      0.1400
 IR Inten    --      4.7930

 - Thermochemistry -
 -------------------
 Temperature   298.150 Kelvin.  Pressure   1.00000 Atm.
 Atom     1 has atomic number  1 and mass   1.00783

 Molecular mass:    21.01405 amu.
 Principal axes and moments of inertia in atomic units:
                           1         2         3
     Eigenvalues --     0.00000  84.65630  84.65630
           X            1.00000  -0.00000   0.00000
           Y            0.00000   1.00000   0.00000
           Z            0.00000   0.00000   1.00000
 This molecule is a prolate symmetric top.
 Rotational symmetry number  1.
 Rotational temperature (Kelvin)      1.02312
 Rotational constant (GHZ):          21.318451
    2 imaginary frequencies ignored.
 Zero-point vibrational energy       5782.4 (Joules/Mol)
                                    1.38202 (Kcal/Mol)
 Warning -- explicit consideration of   2 degrees of freedom as
           vibrations may cause significant error
 Vibrational temperatures:    695.46   695.46
          (Kelvin)

 Zero-point correction=                           0.002202 (Hartree/Particle)
 Thermal correction to Energy=                    0.005036
 Thermal correction to Enthalpy=                  0.005980
 Thermal correction to Gibbs Free Energy=        -0.018304
 Sum of electronic and zero-point Energies=           -100.778528
 Sum of electronic and thermal Energies=              -100.775694
 Sum of electronic and thermal Enthalpies=            -100.774750
 Sum of electronic and thermal Free Energies=         -100.799035

                     E (Thermal)             CV                S
                      KCal/Mol        Cal/Mol-Kelvin    Cal/Mol-Kelvin
 Total                    3.160              7.542             51.112
 Electronic               0.000              0.000              1.377
 Translational            0.889              2.981             35.068
 Rotational               0.592              1.987             13.264
 Vibrational              1.679              2.574              1.402
 Vibration     1          0.840              1.287              0.701
 Vibration     2          0.840              1.287              0.701

 Normal termination of Gaussian 16 at Fri Aug 22 17:26:28 2025.
