 Gaussian 16, Revision C.01,
 Gaussian 16:  ES64L-G16RevC.01  3-Jul-2019

 -----------------------------------------
 # sp b3lyp/6-311g** Force nosymm scf=(qc)
 -----------------------------------------

 -------------------
 Title Card Required
 -------------------
 Symbolic Z-matrix:
 Charge =  0 Multiplicity = 2

                          Input orientation:
 ---------------------------------------------------------------------
 Center     Atomic      Atomic             Coordinates (Angstroms)
 Number     Number       Type             X           Y           Z
 ---------------------------------------------------------------------
      1          1           0        0.000000    0.000000    0.000000
      2          1           0       -2.950000    0.000000    0.000000
      3          9           0        1.000000    0.000000    0.000000
 ---------------------------------------------------------------------

 SCF Done:  E(UB3LYP) =  -100.966286830     a.u. after    6 cycles

 Alpha  occ. eigenvalues --  -24.64147  -1.16026  -0.51634  -0.38770  -0.38770
 Alpha  occ. eigenvalues --   -0.34277
 Alpha virt. eigenvalues --    0.00913   0.24852   0.34225   0.94070   0.94070
 Alpha virt. eigenvalues --    0.98598   1.22598   1.23256   1.23256   1.32038
 Alpha virt. eigenvalues --    1.35964   1.35964   1.90600   2.14425   2.34214

  Beta  occ. eigenvalues --  -24.64140  -1.16007  -0.51608  -0.38763  -0.38763
  Beta virt. eigenvalues --   -0.07777   0.02204   0.34121   0.38278   0.94071
  Beta virt. eigenvalues --    0.94071   0.98600   1.30198   1.35956   1.35956
  Beta virt. eigenvalues --    1.47671   1.47671   1.49214   1.90767   2.34166

 Mulliken charges and spin densities:
               1          2
     1  H    0.318185   0.001426
     2  H    0.003007   0.996125
     3  F   -0.321192   0.002449
 Sum of Mulliken charges =   0.00000   1.00000

 Dipole moment (field-independent basis, Debye):
    X=             -2.0676    Y=             -0.0000    Z=             -0.0000  Tot=              2.0676
 Quadrupole moment (field-independent basis, Debye-Ang):
   XX=             -8.1133   YY=             -6.9609   ZZ=             -6.9609
   XY=             -0.0000   XZ=             -0.0000   YZ=              0.0000

  Exact polarizability:       7.623       0.000       2.409      -0.000       0.000       2.409
 Approx polarizability:       9.016      -0.000       2.384      -0.000       0.000       2.384

 ******    1 imaginary frequencies (negative Signs) ******

                      1                      2                      3
                      A                      A                      A
 Frequencies --    -76.0460               975.5824               975.5824
 Red. masses --      1.0531                 1.0343                 1.0343
 Frc consts  --      0.0036                 0.5800                 0.5800
 IR Inten    --      0.2984               163.1886               163.1886

                      4
                      A
 Frequencies --   3023.1187
 Red. masses --      1.0585
 Frc consts  --      5.6994
 IR Inten    --    101.6368

 - Thermochemistry -
 -------------------
 Temperature   298.150 Kelvin.  Pressure   1.00000 Atm.
 Atom     1 has atomic number  1 and mass   1.00783

 Molecular mass:    21.01405 amu.
 Principal axes and moments of inertia in atomic units:
                           1         2         3
     Eigenvalues --     0.00000  55.52324  55.52324
           X            1.00000  -0.00000   0.00000
           Y            0.00000   1.00000   0.00000
           Z            0.00000   0.00000   1.00000
 This molecule is a prolate symmetric top.
 Rotational symmetry number  1.
 Rotational temperature (Kelvin)      1.55996
 Rotational constant (GHZ):          32.504250
    1 imaginary frequencies ignored.
 Zero-point vibrational energy      29752.8 (Joules/Mol)
                                    7.11110 (Kcal/Mol)
 Vibrational temperatures:   1403.65  1403.65  4349.59
          (Kelvin)

 Zero-point correction=                           0.011332 (Hartree/Particle)
 Thermal correction to Energy=                    0.013774
 Thermal correction to Enthalpy=                  0.014718
 Thermal correction to Gibbs Free Energy=        -0.008601
 Sum of electronic and zero-point Energies=           -100.954955
 Sum of electronic and thermal Energies=              -100.952513
 Sum of electronic and thermal Enthalpies=            -100.951569
 Sum of electronic and thermal Free Energies=         -100.974887

                     E (Thermal)             CV                S
                      KCal/Mol        Cal/Mol-Kelvin    Cal/Mol-Kelvin
 Total                    8.643              5.778             49.078
 Electronic               0.000              0.000              1.377
 Translational            0.889              2.981             35.068
 Rotational               0.592              1.987             12.426
 Vibrational              7.162              0.810              0.206

 Normal termination of Gaussian 16 at Fri Aug 22 16:01:11 2025.
