 Gaussian 16, Revision C.01,
 Gaussian 16:  ES64L-G16RevC.01  3-Jul-2019

 -----------------------------------------
 # sp b3lyp/6-311g** Force nosymm scf=(qc)
 -----------------------------------------

 -------------------
 Title Card Required
 -------------------
 Symbolic Z-matrix:
 Charge =  0 Multiplicity = 2

                          Input orientation:
 ---------------------------------------------------------------------
 Center     Atomic      Atomic             Coordinates (Angstroms)
 Number     Number       Type             X           Y           Z
 ---------------------------------------------------------------------
      1          1           0        0.000000    0.000000    0.000000
      2          1           0       -1.400000    0.000000    0.000000
      3          9           0        0.950000    0.000000    0.000000
 ---------------------------------------------------------------------

 SCF Done:  E(UB3LYP) =  -100.969751130     a.u. after    6 cycles

 Alpha  occ. eigenvalues --  -24.63605  -1.17343  -0.54415  -0.38881  -0.38881
 Alpha  occ. eigenvalues --   -0.36985
 Alpha virt. eigenvalues --    0.10195   0.20503   0.37708   0.93922   0.93922
 Alpha virt. eigenvalues --    0.98293   1.13794   1.13794   1.24399   1.44649
 Alpha virt. eigenvalues --    1.44649   1.53902   2.07907   2.27589   2.60902

  Beta  occ. eigenvalues --  -24.63283  -1.16534  -0.52260  -0.38601  -0.38601
  Beta virt. eigenvalues --   -0.15976   0.12266   0.25955   0.41915   0.94256
  Beta virt. eigenvalues --    0.94256   0.98967   1.23633   1.23633   1.32148
  Beta virt. eigenvalues --    1.50140   1.50140   1.57606   2.20658   2.30938

 Mulliken charges and spin densities:
               1          2
     1  H    0.281763   0.000260
     2  H    0.030626   0.918916
     3  F   -0.312389   0.080824
 Sum of Mulliken charges =   0.00000   1.00000

 Dipole moment (field-independent basis, Debye):
    X=             -2.1707    Y=             -0.0000    Z=             -0.0000  Tot=              2.1707
 Quadrupole moment (field-independent basis, Debye-Ang):
   XX=             -7.5699   YY=             -6.7719   ZZ=             -6.7719
   XY=             -0.0000   XZ=             -0.0000   YZ=             -0.0000

  Exact polarizability:      12.151       0.000       2.542      -0.000       0.000       2.542
 Approx polarizability:      13.042      -0.000       2.546      -0.000       0.000       2.546

                      1                      2                      3
                      A                      A                      A
 Frequencies --    402.3790               402.3790               585.6791
 Red. masses --      1.0233                 1.0233                 1.0489
 Frc consts  --      0.0976                 0.0976                 0.2120
 IR Inten    --    100.3391               100.3391                 1.2815

                      4
                      A
 Frequencies --   3451.5204
 Red. masses --      1.0627
 Frc consts  --      7.4592
 IR Inten    --    177.5442

 - Thermochemistry -
 -------------------
 Temperature   298.150 Kelvin.  Pressure   1.00000 Atm.
 Atom     1 has atomic number  1 and mass   1.00783

 Molecular mass:    21.01405 amu.
 Principal axes and moments of inertia in atomic units:
                           1         2         3
     Eigenvalues --     0.00000  21.24394  21.24394
           X            1.00000  -0.00000   0.00000
           Y            0.00000   1.00000   0.00000
           Z            0.00000   0.00000   1.00000
 This molecule is a prolate symmetric top.
 Rotational symmetry number  1.
 Rotational temperature (Kelvin)      4.07711
 Rotational constant (GHZ):          84.953222
 Zero-point vibrational energy      28961.3 (Joules/Mol)
                                    6.92193 (Kcal/Mol)
 Warning -- explicit consideration of   3 degrees of freedom as
           vibrations may cause significant error
 Vibrational temperatures:    578.93   578.93   842.66  4965.97
          (Kelvin)

 Zero-point correction=                           0.011031 (Hartree/Particle)
 Thermal correction to Energy=                    0.014173
 Thermal correction to Enthalpy=                  0.015118
 Thermal correction to Gibbs Free Energy=        -0.008328
 Sum of electronic and zero-point Energies=           -100.958720
 Sum of electronic and thermal Energies=              -100.955578
 Sum of electronic and thermal Enthalpies=            -100.954634
 Sum of electronic and thermal Free Energies=         -100.978079

                     E (Thermal)             CV                S
                      KCal/Mol        Cal/Mol-Kelvin    Cal/Mol-Kelvin
 Total                    8.894              8.960             49.345
 Electronic               0.000              0.000              1.377
 Translational            0.889              2.981             35.068
 Rotational               0.592              1.987             10.517
 Vibrational              7.413              3.992              2.383
 Vibration     1          0.768              1.465              0.954
 Vibration     2          0.768              1.465              0.954
 Vibration     3          0.943              1.062              0.475

 Normal termination of Gaussian 16 at Fri Aug 22 15:57:45 2025.
