 Gaussian 16, Revision C.01,
 Gaussian 16:  ES64L-G16RevC.01  3-Jul-2019

 -----------------------------------------
 # sp b3lyp/6-311g** Force nosymm scf=(qc)
 -----------------------------------------

 -------------------
 Title Card Required
 -------------------
 Symbolic Z-matrix:
 Charge =  0 Multiplicity = 2

                          Input orientation:
 ---------------------------------------------------------------------
 Center     Atomic      Atomic             Coordinates (Angstroms)
 Number     Number       Type             X           Y           Z
 ---------------------------------------------------------------------
      1          1           0        0.000000    0.000000    0.000000
      2          1           0       -3.850000    0.000000    0.000000
      3          9           0        3.200000    0.000000    0.000000
 ---------------------------------------------------------------------

 SCF Done:  E(UB3LYP) =  -100.759788300     a.u. after   21 cycles

 Alpha  occ. eigenvalues --  -24.74712  -1.20726  -0.53833  -0.45200  -0.45200
 Alpha  occ. eigenvalues --   -0.32390
 Alpha virt. eigenvalues --   -0.07163   0.23997   0.36586   0.88637   0.91896
 Alpha virt. eigenvalues --    0.91896   1.02861   1.25108   1.25108   1.25145
 Alpha virt. eigenvalues --    1.45221   1.45221   1.45550   2.14528   2.41455

  Beta  occ. eigenvalues --  -24.71641  -1.11915  -0.42125  -0.42125  -0.33283
  Beta virt. eigenvalues --   -0.25123  -0.06024   0.23774   0.38139   0.93372
  Beta virt. eigenvalues --    0.93372   0.97542   1.06720   1.24081   1.24081
  Beta virt. eigenvalues --    1.24172   1.46479   1.46632   1.46632   2.14763

 Mulliken charges and spin densities:
               1          2
     1  H    0.024345  -0.972332
     2  H    0.000129   0.999117
     3  F   -0.024474   0.973215
 Sum of Mulliken charges =  -0.00000   1.00000

 Dipole moment (field-independent basis, Debye):
    X=             -0.4048    Y=             -0.0000    Z=             -0.0000  Tot=              0.4048
 Quadrupole moment (field-independent basis, Debye-Ang):
   XX=             -7.9414   YY=             -7.6125   ZZ=             -7.6125
   XY=             -0.0000   XZ=             -0.0000   YZ=             -0.0000

  Exact polarizability:      29.087      -0.000       2.030      -0.000      -0.000       2.030
 Approx polarizability:      26.831      -0.000       1.930      -0.000       0.000       1.930

 ******    2 imaginary frequencies (negative Signs) ******

                      1                      2                      3
                      A                      A                      A
 Frequencies --   -295.8550               -80.1234                97.3817
 Red. masses --      1.0499                 1.0617                 1.0203
 Frc consts  --      0.0541                 0.0040                 0.0057
 IR Inten    --     26.4372                 0.1993                 0.5587

                      4
                      A
 Frequencies --     97.3817
 Red. masses --      1.0203
 Frc consts  --      0.0057
 IR Inten    --      0.5587

 - Thermochemistry -
 -------------------
 Temperature   298.150 Kelvin.  Pressure   1.00000 Atm.
 Atom     1 has atomic number  1 and mass   1.00783

 Molecular mass:    21.01405 amu.
 Principal axes and moments of inertia in atomic units:
                           1         2         3
     Eigenvalues --     0.00000 197.59906 197.59906
           X            1.00000  -0.00000   0.00000
           Y            0.00000   1.00000   0.00000
           Z            0.00000   0.00000   1.00000
 This molecule is a prolate symmetric top.
 Rotational symmetry number  1.
 Rotational temperature (Kelvin)      0.43833
 Rotational constant (GHZ):           9.133349
    2 imaginary frequencies ignored.
 Zero-point vibrational energy       1164.9 (Joules/Mol)
                                    0.27843 (Kcal/Mol)
 Warning -- explicit consideration of   2 degrees of freedom as
           vibrations may cause significant error
 Vibrational temperatures:    140.11   140.11
          (Kelvin)

 Zero-point correction=                           0.000444 (Hartree/Particle)
 Thermal correction to Energy=                    0.004283
 Thermal correction to Enthalpy=                  0.005228
 Thermal correction to Gibbs Free Energy=        -0.022523
 Sum of electronic and zero-point Energies=           -100.759345
 Sum of electronic and thermal Energies=              -100.755505
 Sum of electronic and thermal Enthalpies=            -100.754561
 Sum of electronic and thermal Free Energies=         -100.782311

                     E (Thermal)             CV                S
                      KCal/Mol        Cal/Mol-Kelvin    Cal/Mol-Kelvin
 Total                    2.688              8.870             58.406
 Electronic               0.000              0.000              1.377
 Translational            0.889              2.981             35.068
 Rotational               0.592              1.987             14.948
 Vibrational              1.207              3.902              7.012
 Vibration     1          0.603              1.951              3.506
 Vibration     2          0.603              1.951              3.506

 Normal termination of Gaussian 16 at Fri Aug 22 20:25:17 2025.
