 Gaussian 16, Revision C.01,
 Gaussian 16:  ES64L-G16RevC.01  3-Jul-2019

 -----------------------------------------
 # sp b3lyp/6-311g** Force nosymm scf=(qc)
 -----------------------------------------

 -------------------
 Title Card Required
 -------------------
 Symbolic Z-matrix:
 Charge =  0 Multiplicity = 2

                          Input orientation:
 ---------------------------------------------------------------------
 Center     Atomic      Atomic             Coordinates (Angstroms)
 Number     Number       Type             X           Y           Z
 ---------------------------------------------------------------------
      1          1           0        0.000000    0.000000    0.000000
      2          1           0       -0.750000    0.000000    0.000000
      3          9           0        2.100000    0.000000    0.000000
 ---------------------------------------------------------------------

 SCF Done:  E(UB3LYP) =  -100.934508532     a.u. after    5 cycles

 Alpha  occ. eigenvalues --  -24.75232  -1.21258  -0.54921  -0.45682  -0.45682
 Alpha  occ. eigenvalues --   -0.44340
 Alpha virt. eigenvalues --    0.06864   0.20298   0.45615   0.90836   0.90836
 Alpha virt. eigenvalues --    0.90840   1.07402   1.07402   1.14307   1.59598
 Alpha virt. eigenvalues --    1.81189   1.81189   1.95898   2.39610   3.27625

  Beta  occ. eigenvalues --  -24.72170  -1.12509  -0.44527  -0.42625  -0.42625
  Beta virt. eigenvalues --   -0.25809   0.07585   0.20802   0.45988   0.92239
  Beta virt. eigenvalues --    0.92239   0.98884   1.07892   1.07892   1.18021
  Beta virt. eigenvalues --    1.60658   1.81447   1.81447   1.96320   2.40151

 Mulliken charges and spin densities:
               1          2
     1  H   -0.002807  -0.021006
     2  H    0.026825   0.058046
     3  F   -0.024018   0.962960
 Sum of Mulliken charges =   0.00000   1.00000

 Dipole moment (field-independent basis, Debye):
    X=             -0.3356    Y=              0.0000    Z=              0.0000  Tot=              0.3356
 Quadrupole moment (field-independent basis, Debye-Ang):
   XX=             -5.9101   YY=             -6.9236   ZZ=             -6.9236
   XY=              0.0000   XZ=              0.0000   YZ=              0.0000

  Exact polarizability:      16.704      -0.000       2.061       0.000       0.000       2.061
 Approx polarizability:      18.250       0.000       2.124      -0.000      -0.000       2.124

 ******    3 imaginary frequencies (negative Signs) ******

                      1                      2                      3
                      A                      A                      A
 Frequencies --   -305.1487              -305.1487              -176.2589
 Red. masses --      1.0101                 1.0101                 1.1085
 Frc consts  --      0.0554                 0.0554                 0.0203
 IR Inten    --      0.2458                 0.2458                19.1032

                      4
                      A
 Frequencies --   4279.0334
 Red. masses --      1.0078
 Frc consts  --     10.8725
 IR Inten    --    176.7896

 - Thermochemistry -
 -------------------
 Temperature   298.150 Kelvin.  Pressure   1.00000 Atm.
 Atom     1 has atomic number  1 and mass   1.00783

 Molecular mass:    21.01405 amu.
 Principal axes and moments of inertia in atomic units:
                           1         2         3
     Eigenvalues --     0.00000  40.87527  40.87527
           X            1.00000  -0.00000   0.00000
           Y            0.00000   1.00000   0.00000
           Z            0.00000   0.00000   1.00000
 This molecule is a prolate symmetric top.
 Rotational symmetry number  1.
 Rotational temperature (Kelvin)      2.11898
 Rotational constant (GHZ):          44.152394
    3 imaginary frequencies ignored.
 Zero-point vibrational energy      25594.3 (Joules/Mol)
                                    6.11719 (Kcal/Mol)
 Vibrational temperatures:   6156.57
          (Kelvin)

 Zero-point correction=                           0.009748 (Hartree/Particle)
 Thermal correction to Energy=                    0.012109
 Thermal correction to Enthalpy=                  0.013053
 Thermal correction to Gibbs Free Energy=        -0.009878
 Sum of electronic and zero-point Energies=           -100.924760
 Sum of electronic and thermal Energies=              -100.922400
 Sum of electronic and thermal Enthalpies=            -100.921456
 Sum of electronic and thermal Free Energies=         -100.944387

                     E (Thermal)             CV                S
                      KCal/Mol        Cal/Mol-Kelvin    Cal/Mol-Kelvin
 Total                    7.598              4.968             48.263
 Electronic               0.000              0.000              1.377
 Translational            0.889              2.981             35.068
 Rotational               0.592              1.987             11.817
 Vibrational              6.117              0.000              0.000

 Normal termination of Gaussian 16 at Fri Aug 22 17:02:42 2025.
