 Gaussian 16, Revision C.01,
 Gaussian 16:  ES64L-G16RevC.01  3-Jul-2019

 -----------------------------------------
 # sp b3lyp/6-311g** Force nosymm scf=(qc)
 -----------------------------------------

 -------------------
 Title Card Required
 -------------------
 Symbolic Z-matrix:
 Charge =  0 Multiplicity = 2

                          Input orientation:
 ---------------------------------------------------------------------
 Center     Atomic      Atomic             Coordinates (Angstroms)
 Number     Number       Type             X           Y           Z
 ---------------------------------------------------------------------
      1          1           0        0.000000    0.000000    0.000000
      2          1           0       -1.950000    0.000000    0.000000
      3          9           0        1.800000    0.000000    0.000000
 ---------------------------------------------------------------------

 SCF Done:  E(UB3LYP) =  -100.817825558     a.u. after   14 cycles

 Alpha  occ. eigenvalues --  -24.66389  -1.12688  -0.45598  -0.38178  -0.38178
 Alpha  occ. eigenvalues --   -0.37229
 Alpha virt. eigenvalues --   -0.13203   0.23389   0.29620   0.90708   0.94980
 Alpha virt. eigenvalues --    0.94980   1.04693   1.20532   1.20532   1.30047
 Alpha virt. eigenvalues --    1.33968   1.33968   1.69031   2.11430   2.30336

  Beta  occ. eigenvalues --  -24.64396  -1.07191  -0.38661  -0.36231  -0.36231
  Beta virt. eigenvalues --   -0.20598  -0.10740   0.25623   0.31338   0.92994
  Beta virt. eigenvalues --    0.95167   0.95167   1.08155   1.24772   1.24772
  Beta virt. eigenvalues --    1.35874   1.35874   1.40817   1.67189   2.12904

 Mulliken charges and spin densities:
               1          2
     1  H    0.196288  -0.510026
     2  H    0.051622   0.884225
     3  F   -0.247910   0.625801
 Sum of Mulliken charges =   0.00000   1.00000

 Dipole moment (field-independent basis, Debye):
    X=             -2.6725    Y=             -0.0000    Z=              0.0000  Tot=              2.6725
 Quadrupole moment (field-independent basis, Debye-Ang):
   XX=             -8.7713   YY=             -7.4732   ZZ=             -7.4732
   XY=             -0.0000   XZ=              0.0000   YZ=              0.0000

  Exact polarizability:      44.284      -0.000       2.115       0.000       0.000       2.115
 Approx polarizability:      56.476      -0.000       2.024       0.000      -0.000       2.024

 ******    2 imaginary frequencies (negative Signs) ******

                      1                      2                      3
                      A                      A                      A
 Frequencies --  -1843.9854              -602.2741               758.0700
 Red. masses --      1.0276                 1.0856                 1.0189
 Frc consts  --      2.0586                 0.2320                 0.3450
 IR Inten    --    136.3593                17.1174                24.3141

                      4
                      A
 Frequencies --    758.0700
 Red. masses --      1.0189
 Frc consts  --      0.3450
 IR Inten    --     24.3141

 - Thermochemistry -
 -------------------
 Temperature   298.150 Kelvin.  Pressure   1.00000 Atm.
 Atom     1 has atomic number  1 and mass   1.00783

 Molecular mass:    21.01405 amu.
 Principal axes and moments of inertia in atomic units:
                           1         2         3
     Eigenvalues --     0.00000  56.95512  56.95512
           X            1.00000  -0.00000   0.00000
           Y            0.00000   1.00000   0.00000
           Z            0.00000   0.00000   1.00000
 This molecule is a prolate symmetric top.
 Rotational symmetry number  1.
 Rotational temperature (Kelvin)      1.52074
 Rotational constant (GHZ):          31.687075
    2 imaginary frequencies ignored.
 Zero-point vibrational energy       9068.5 (Joules/Mol)
                                    2.16743 (Kcal/Mol)
 Vibrational temperatures:   1090.69  1090.69
          (Kelvin)

 Zero-point correction=                           0.003454 (Hartree/Particle)
 Thermal correction to Energy=                    0.005997
 Thermal correction to Enthalpy=                  0.006941
 Thermal correction to Gibbs Free Energy=        -0.016535
 Sum of electronic and zero-point Energies=           -100.814372
 Sum of electronic and thermal Energies=              -100.811828
 Sum of electronic and thermal Enthalpies=            -100.810884
 Sum of electronic and thermal Free Energies=         -100.834361

                     E (Thermal)             CV                S
                      KCal/Mol        Cal/Mol-Kelvin    Cal/Mol-Kelvin
 Total                    3.763              6.413             49.410
 Electronic               0.000              0.000              1.377
 Translational            0.889              2.981             35.068
 Rotational               0.592              1.987             12.476
 Vibrational              2.282              1.445              0.489

 Normal termination of Gaussian 16 at Fri Aug 22 16:43:28 2025.
