 Gaussian 16, Revision C.01,
 Gaussian 16:  ES64L-G16RevC.01  3-Jul-2019

 -----------------------------------------
 # sp b3lyp/6-311g** Force nosymm scf=(qc)
 -----------------------------------------

 -------------------
 Title Card Required
 -------------------
 Symbolic Z-matrix:
 Charge =  0 Multiplicity = 2

                          Input orientation:
 ---------------------------------------------------------------------
 Center     Atomic      Atomic             Coordinates (Angstroms)
 Number     Number       Type             X           Y           Z
 ---------------------------------------------------------------------
      1          1           0        0.000000    0.000000    0.000000
      2          1           0       -3.450000    0.000000    0.000000
      3          9           0        3.600000    0.000000    0.000000
 ---------------------------------------------------------------------

 SCF Done:  E(UB3LYP) =  -100.759019625     a.u. after   29 cycles

 Alpha  occ. eigenvalues --  -24.75538  -1.21489  -0.54661  -0.45894  -0.45894
 Alpha  occ. eigenvalues --   -0.32323
 Alpha virt. eigenvalues --   -0.06982   0.24365   0.37112   0.87311   0.91387
 Alpha virt. eigenvalues --    0.91387   1.01585   1.25183   1.25183   1.25363
 Alpha virt. eigenvalues --    1.45162   1.45325   1.45325   2.15113   2.41057

  Beta  occ. eigenvalues --  -24.72414  -1.12512  -0.42763  -0.42763  -0.32721
  Beta virt. eigenvalues --   -0.25560  -0.06549   0.24144   0.37866   0.92879
  Beta virt. eigenvalues --    0.92879   0.96514   1.05630   1.24731   1.24731
  Beta virt. eigenvalues --    1.24891   1.45793   1.46028   1.46028   2.15263

 Mulliken charges and spin densities:
               1          2
     1  H    0.008533  -0.988003
     2  H    0.000169   0.997596
     3  F   -0.008702   0.990407
 Sum of Mulliken charges =  -0.00000   1.00000

 Dipole moment (field-independent basis, Debye):
    X=             -0.1641    Y=              0.0000    Z=              0.0000  Tot=              0.1641
 Quadrupole moment (field-independent basis, Debye-Ang):
   XX=             -7.2541   YY=             -7.6234   ZZ=             -7.6234
   XY=             -0.0000   XZ=             -0.0000   YZ=              0.0000

  Exact polarizability:      21.102      -0.000       2.042      -0.000      -0.000       2.042
 Approx polarizability:      16.116      -0.000       1.934      -0.000      -0.000       1.934

 ******    2 imaginary frequencies (negative Signs) ******

                      1                      2                      3
                      A                      A                      A
 Frequencies --   -237.4533              -101.1232                68.8855
 Red. masses --      1.0209                 1.0931                 1.0174
 Frc consts  --      0.0339                 0.0066                 0.0028
 IR Inten    --      6.6875                 1.3903                 0.0565

                      4
                      A
 Frequencies --     68.8857
 Red. masses --      1.0174
 Frc consts  --      0.0028
 IR Inten    --      0.0565

 - Thermochemistry -
 -------------------
 Temperature   298.150 Kelvin.  Pressure   1.00000 Atm.
 Atom     1 has atomic number  1 and mass   1.00783

 Molecular mass:    21.01405 amu.
 Principal axes and moments of inertia in atomic units:
                           1         2         3
     Eigenvalues --     0.00000 205.94536 205.94536
           X            1.00000  -0.00000   0.00000
           Y            0.00000   1.00000   0.00000
           Z            0.00000   0.00000   1.00000
 This molecule is a prolate symmetric top.
 Rotational symmetry number  1.
 Rotational temperature (Kelvin)      0.42057
 Rotational constant (GHZ):           8.763204
    2 imaginary frequencies ignored.
 Zero-point vibrational energy        824.1 (Joules/Mol)
                                    0.19695 (Kcal/Mol)
 Warning -- explicit consideration of   2 degrees of freedom as
           vibrations may cause significant error
 Vibrational temperatures:     99.11    99.11
          (Kelvin)

 Zero-point correction=                           0.000314 (Hartree/Particle)
 Thermal correction to Energy=                    0.004266
 Thermal correction to Enthalpy=                  0.005210
 Thermal correction to Gibbs Free Energy=        -0.023224
 Sum of electronic and zero-point Energies=           -100.758706
 Sum of electronic and thermal Energies=              -100.754753
 Sum of electronic and thermal Enthalpies=            -100.753809
 Sum of electronic and thermal Free Energies=         -100.782244

                     E (Thermal)             CV                S
                      KCal/Mol        Cal/Mol-Kelvin    Cal/Mol-Kelvin
 Total                    2.677              8.906             59.846
 Electronic               0.000              0.000              1.377
 Translational            0.889              2.981             35.068
 Rotational               0.592              1.987             15.031
 Vibrational              1.196              3.938              8.370
 Vibration     1          0.598              1.969              4.185
 Vibration     2          0.598              1.969              4.185

 Normal termination of Gaussian 16 at Fri Aug 22 23:07:49 2025.
