 Gaussian 16, Revision C.01,
 Gaussian 16:  ES64L-G16RevC.01  3-Jul-2019

 -----------------------------------------
 # sp b3lyp/6-311g** Force nosymm scf=(qc)
 -----------------------------------------

 -------------------
 Title Card Required
 -------------------
 Symbolic Z-matrix:
 Charge =  0 Multiplicity = 2

                          Input orientation:
 ---------------------------------------------------------------------
 Center     Atomic      Atomic             Coordinates (Angstroms)
 Number     Number       Type             X           Y           Z
 ---------------------------------------------------------------------
      1          1           0        0.000000    0.000000    0.000000
      2          1           0       -0.650000    0.000000    0.000000
      3          9           0        3.500000    0.000000    0.000000
 ---------------------------------------------------------------------

 SCF Done:  E(UB3LYP) =  -100.926747726     a.u. after   51 cycles

 Alpha  occ. eigenvalues --  -24.76344  -1.22197  -0.55398  -0.46611  -0.46551
 Alpha  occ. eigenvalues --   -0.45316
 Alpha virt. eigenvalues --    0.07634   0.19197   0.49891   0.86014   0.90890
 Alpha virt. eigenvalues --    0.93043   1.02263   1.09520   1.09523   1.59461
 Alpha virt. eigenvalues --    1.85041   1.89320   1.89324   2.37576   3.64829

  Beta  occ. eigenvalues --  -24.73186  -1.13118  -0.45361  -0.43398  -0.43385
  Beta virt. eigenvalues --   -0.26035   0.07655   0.19208   0.49961   0.92389
  Beta virt. eigenvalues --    0.94594   0.95477   1.06257   1.09519   1.09523
  Beta virt. eigenvalues --    1.59470   1.85068   1.89320   1.89324   2.37577

 Mulliken charges and spin densities:
               1          2
     1  H   -0.002556  -0.000581
     2  H   -0.001851   0.000069
     3  F    0.004407   1.000512
 Sum of Mulliken charges =   0.00000   1.00000

 Dipole moment (field-independent basis, Debye):
    X=              0.0493    Y=              0.0000    Z=             -0.0000  Tot=              0.0493
 Quadrupole moment (field-independent basis, Debye-Ang):
   XX=             -6.1541   YY=             -6.3809   ZZ=             -6.3809
   XY=              0.0000   XZ=             -0.0000   YZ=             -0.4321

  Exact polarizability:       7.053      -0.000       2.132       0.000      -0.232       2.132
 Approx polarizability:       7.797      -0.000       2.271       0.000      -0.291       2.271

 ******    2 imaginary frequencies (negative Signs) ******

                      1                      2                      3
                      A                      A                      A
 Frequencies --  -1952.9063             -1952.7517                 8.5150
 Red. masses --      1.0086                 1.0086                 1.1085
 Frc consts  --      2.2663                 2.2659                 0.0000
 IR Inten    --      0.0033                 0.0033                 0.1346

                      4
                      A
 Frequencies --   5976.0236
 Red. masses --      1.0078
 Frc consts  --     21.2061
 IR Inten    --      0.0572

 - Thermochemistry -
 -------------------
 Temperature   298.150 Kelvin.  Pressure   1.00000 Atm.
 Atom     1 has atomic number  1 and mass   1.00783

 Molecular mass:    21.01405 amu.
 Principal axes and moments of inertia in atomic units:
                           1         2         3
     Eigenvalues --     0.00000  95.97039  95.97039
           X            1.00000  -0.00000   0.00000
           Y            0.00000   1.00000   0.00000
           Z            0.00000   0.00000   1.00000
 This molecule is a prolate symmetric top.
 Rotational symmetry number  1.
 Rotational temperature (Kelvin)      0.90251
 Rotational constant (GHZ):          18.805188
    2 imaginary frequencies ignored.
 Zero-point vibrational energy      35795.5 (Joules/Mol)
                                    8.55533 (Kcal/Mol)
 Warning -- explicit consideration of   1 degrees of freedom as
           vibrations may cause significant error
 Vibrational temperatures:     12.25  8598.17
          (Kelvin)

 Zero-point correction=                           0.013634 (Hartree/Particle)
 Thermal correction to Energy=                    0.016919
 Thermal correction to Enthalpy=                  0.017863
 Thermal correction to Gibbs Free Energy=        -0.009832
 Sum of electronic and zero-point Energies=           -100.913114
 Sum of electronic and thermal Energies=              -100.909829
 Sum of electronic and thermal Enthalpies=            -100.908884
 Sum of electronic and thermal Free Energies=         -100.936579

                     E (Thermal)             CV                S
                      KCal/Mol        Cal/Mol-Kelvin    Cal/Mol-Kelvin
 Total                   10.617              6.955             58.289
 Electronic               0.000              0.000              1.377
 Translational            0.889              2.981             35.068
 Rotational               0.592              1.987             13.513
 Vibrational              9.136              1.987              8.330
 Vibration     1          0.593              1.987              8.330

 Normal termination of Gaussian 16 at Fri Aug 22 21:48:06 2025.
