 Gaussian 16, Revision C.01,
 Gaussian 16:  ES64L-G16RevC.01  3-Jul-2019

 -----------------------------------------
 # sp b3lyp/6-311g** Force nosymm scf=(qc)
 -----------------------------------------

 -------------------
 Title Card Required
 -------------------
 Symbolic Z-matrix:
 Charge =  0 Multiplicity = 2

                          Input orientation:
 ---------------------------------------------------------------------
 Center     Atomic      Atomic             Coordinates (Angstroms)
 Number     Number       Type             X           Y           Z
 ---------------------------------------------------------------------
      1          1           0        0.000000    0.000000    0.000000
      2          1           0       -1.350000    0.000000    0.000000
      3          9           0        1.600000    0.000000    0.000000
 ---------------------------------------------------------------------

 SCF Done:  E(UB3LYP) =  -100.877667318     a.u. after   12 cycles

 Alpha  occ. eigenvalues --  -24.66950  -1.13649  -0.48619  -0.39281  -0.38916
 Alpha  occ. eigenvalues --   -0.38916
 Alpha virt. eigenvalues --   -0.05698   0.20732   0.30255   0.92753   0.92753
 Alpha virt. eigenvalues --    0.95514   1.03862   1.12615   1.12615   1.44914
 Alpha virt. eigenvalues --    1.44914   1.48234   1.96553   2.21867   2.48232

  Beta  occ. eigenvalues --  -24.64962  -1.08215  -0.40886  -0.36986  -0.36986
  Beta virt. eigenvalues --   -0.22913  -0.02730   0.23224   0.31104   0.93187
  Beta virt. eigenvalues --    0.93187   1.00474   1.07139   1.16933   1.16933
  Beta virt. eigenvalues --    1.46453   1.46453   1.52779   2.00081   2.24765

 Mulliken charges and spin densities:
               1          2
     1  H    0.179996  -0.223511
     2  H    0.071728   0.607276
     3  F   -0.251725   0.616235
 Sum of Mulliken charges =  -0.00000   1.00000

 Dipole moment (field-independent basis, Debye):
    X=             -2.4264    Y=              0.0000    Z=             -0.0000  Tot=              2.4264
 Quadrupole moment (field-independent basis, Debye-Ang):
   XX=             -7.8700   YY=             -7.2647   ZZ=             -7.2647
   XY=              0.0000   XZ=             -0.0000   YZ=              0.0000

  Exact polarizability:      38.504       0.000       2.287      -0.000       0.000       2.287
 Approx polarizability:      59.353       0.000       2.237      -0.000      -0.000       2.237

 ******    2 imaginary frequencies (negative Signs) ******

                      1                      2                      3
                      A                      A                      A
 Frequencies --  -2558.1374              -356.9539              1157.8484
 Red. masses --      1.0205                 1.0936                 1.0160
 Frc consts  --      3.9347                 0.0821                 0.8025
 IR Inten    --    855.5771                 4.9706                11.0219

                      4
                      A
 Frequencies --   1157.8484
 Red. masses --      1.0160
 Frc consts  --      0.8025
 IR Inten    --     11.0219

 - Thermochemistry -
 -------------------
 Temperature   298.150 Kelvin.  Pressure   1.00000 Atm.
 Atom     1 has atomic number  1 and mass   1.00783

 Molecular mass:    21.01405 amu.
 Principal axes and moments of inertia in atomic units:
                           1         2         3
     Eigenvalues --     0.00000  36.96044  36.96044
           X            1.00000  -0.00000   0.00000
           Y            0.00000   1.00000   0.00000
           Z            0.00000   0.00000   1.00000
 This molecule is a prolate symmetric top.
 Rotational symmetry number  1.
 Rotational temperature (Kelvin)      2.34342
 Rotational constant (GHZ):          48.828998
    2 imaginary frequencies ignored.
 Zero-point vibrational energy      13850.9 (Joules/Mol)
                                    3.31045 (Kcal/Mol)
 Vibrational temperatures:   1665.89  1665.89
          (Kelvin)

 Zero-point correction=                           0.005276 (Hartree/Particle)
 Thermal correction to Energy=                    0.007676
 Thermal correction to Enthalpy=                  0.008620
 Thermal correction to Gibbs Free Energy=        -0.014263
 Sum of electronic and zero-point Energies=           -100.872392
 Sum of electronic and thermal Energies=              -100.869992
 Sum of electronic and thermal Enthalpies=            -100.869047
 Sum of electronic and thermal Free Energies=         -100.891930

                     E (Thermal)             CV                S
                      KCal/Mol        Cal/Mol-Kelvin    Cal/Mol-Kelvin
 Total                    4.817              5.436             48.161
 Electronic               0.000              0.000              1.377
 Translational            0.889              2.981             35.068
 Rotational               0.592              1.987             11.617
 Vibrational              3.335              0.468              0.098

 Normal termination of Gaussian 16 at Fri Aug 22 16:30:34 2025.
