 Gaussian 16, Revision C.01,
 Gaussian 16:  ES64L-G16RevC.01  3-Jul-2019

 -----------------------------------------
 # sp b3lyp/6-311g** Force nosymm scf=(qc)
 -----------------------------------------

 -------------------
 Title Card Required
 -------------------
 Symbolic Z-matrix:
 Charge =  0 Multiplicity = 2

                          Input orientation:
 ---------------------------------------------------------------------
 Center     Atomic      Atomic             Coordinates (Angstroms)
 Number     Number       Type             X           Y           Z
 ---------------------------------------------------------------------
      1          1           0        0.000000    0.000000    0.000000
      2          1           0       -3.650000    0.000000    0.000000
      3          9           0        0.600000    0.000000    0.000000
 ---------------------------------------------------------------------

 SCF Done:  E(UB3LYP) =  -100.687903812     a.u. after    6 cycles

 Alpha  occ. eigenvalues --  -24.62730  -1.34730  -0.61025  -0.42981  -0.42981
 Alpha  occ. eigenvalues --   -0.33243
 Alpha virt. eigenvalues --    0.07377   0.24828   0.58050   0.92121   0.92121
 Alpha virt. eigenvalues --    0.93148   1.24096   1.24264   1.24264   1.33640
 Alpha virt. eigenvalues --    1.50263   1.50263   1.95438   2.14573   3.36526

  Beta  occ. eigenvalues --  -24.62730  -1.34729  -0.61025  -0.42981  -0.42981
  Beta virt. eigenvalues --   -0.05175   0.07712   0.39198   0.58047   0.92120
  Beta virt. eigenvalues --    0.92120   0.93144   1.33215   1.49621   1.50178
  Beta virt. eigenvalues --    1.50178   1.50263   1.50263   1.95405   2.45239

 Mulliken charges and spin densities:
               1          2
     1  H    0.238182   0.000415
     2  H    0.000553   0.999355
     3  F   -0.238735   0.000230
 Sum of Mulliken charges =   0.00000   1.00000

 Dipole moment (field-independent basis, Debye):
    X=             -1.4375    Y=              0.0000    Z=              0.0000  Tot=              1.4375
 Quadrupole moment (field-independent basis, Debye-Ang):
   XX=             -6.9814   YY=             -6.5521   ZZ=             -6.5521
   XY=              0.0000   XZ=              0.0000   YZ=             -0.0000

  Exact polarizability:       3.335      -0.000       2.437       0.000       0.000       2.437
 Approx polarizability:       3.576      -0.000       2.415      -0.000       0.000       2.415

 ******    3 imaginary frequencies (negative Signs) ******

                      1                      2                      3
                      A                      A                      A
 Frequencies --  -5889.1402             -5889.1402               -32.9640
 Red. masses --      1.0444                 1.0444                 1.0532
 Frc consts  --     21.3405                21.3405                 0.0007
 IR Inten    --    241.4329               241.4329                 0.0162

                      4
                      A
 Frequencies --  13070.5990
 Red. masses --      1.0583
 Frc consts  --    106.5257
 IR Inten    --     96.8949

 - Thermochemistry -
 -------------------
 Temperature   298.150 Kelvin.  Pressure   1.00000 Atm.
 Atom     1 has atomic number  1 and mass   1.00783

 Molecular mass:    21.01405 amu.
 Principal axes and moments of inertia in atomic units:
                           1         2         3
     Eigenvalues --     0.00000  62.24259  62.24259
           X            1.00000  -0.00000   0.00000
           Y            0.00000   1.00000   0.00000
           Z            0.00000   0.00000   1.00000
 This molecule is a prolate symmetric top.
 Rotational symmetry number  1.
 Rotational temperature (Kelvin)      1.39155
 Rotational constant (GHZ):          28.995279
    3 imaginary frequencies ignored.
 Zero-point vibrational energy      78179.5 (Joules/Mol)
                                   18.68536 (Kcal/Mol)
 Vibrational temperatures:  18805.68
          (Kelvin)

 Zero-point correction=                           0.029777 (Hartree/Particle)
 Thermal correction to Energy=                    0.032137
 Thermal correction to Enthalpy=                  0.033082
 Thermal correction to Gibbs Free Energy=         0.009753
 Sum of electronic and zero-point Energies=           -100.658127
 Sum of electronic and thermal Energies=              -100.655766
 Sum of electronic and thermal Enthalpies=            -100.654822
 Sum of electronic and thermal Free Energies=         -100.678150

                     E (Thermal)             CV                S
                      KCal/Mol        Cal/Mol-Kelvin    Cal/Mol-Kelvin
 Total                   20.167              4.968             49.098
 Electronic               0.000              0.000              1.377
 Translational            0.889              2.981             35.068
 Rotational               0.592              1.987             12.653
 Vibrational             18.685              0.000              0.000

 Normal termination of Gaussian 16 at Fri Aug 22 15:42:46 2025.
