 Gaussian 16, Revision C.01,
 Gaussian 16:  ES64L-G16RevC.01  3-Jul-2019

 -----------------------------------------
 # sp b3lyp/6-311g** Force nosymm scf=(qc)
 -----------------------------------------

 -------------------
 Title Card Required
 -------------------
 Symbolic Z-matrix:
 Charge =  0 Multiplicity = 2

                          Input orientation:
 ---------------------------------------------------------------------
 Center     Atomic      Atomic             Coordinates (Angstroms)
 Number     Number       Type             X           Y           Z
 ---------------------------------------------------------------------
      1          1           0        0.000000    0.000000    0.000000
      2          1           0       -2.850000    0.000000    0.000000
      3          9           0        1.800000    0.000000    0.000000
 ---------------------------------------------------------------------

 SCF Done:  E(UB3LYP) =  -100.797999599     a.u. after   12 cycles

 Alpha  occ. eigenvalues --  -24.63821  -1.08267  -0.39895  -0.35558  -0.35558
 Alpha  occ. eigenvalues --   -0.35089
 Alpha virt. eigenvalues --   -0.20183   0.20861   0.27007   0.93662   0.95901
 Alpha virt. eigenvalues --    0.95901   1.08312   1.22321   1.22321   1.23258
 Alpha virt. eigenvalues --    1.26031   1.26031   1.66098   2.13113   2.15780

  Beta  occ. eigenvalues --  -24.63862  -1.08380  -0.39798  -0.35598  -0.35598
  Beta virt. eigenvalues --   -0.20423  -0.08589   0.24063   0.36278   0.93883
  Beta virt. eigenvalues --    0.95932   0.95932   1.08393   1.26518   1.26518
  Beta virt. eigenvalues --    1.43396   1.43499   1.43499   1.66586   2.16397

 Mulliken charges and spin densities:
               1          2
     1  H    0.303776   0.029019
     2  H    0.015156   0.984177
     3  F   -0.318931  -0.013196
 Sum of Mulliken charges =   0.00000   1.00000

 Dipole moment (field-independent basis, Debye):
    X=             -3.0567    Y=              0.0000    Z=             -0.0000  Tot=              3.0567
 Quadrupole moment (field-independent basis, Debye-Ang):
   XX=            -10.5719   YY=             -7.4647   ZZ=             -7.4647
   XY=              0.0000   XZ=             -0.0000   YZ=             -0.0000

  Exact polarizability:      30.556       0.000       2.069      -0.000      -0.000       2.069
 Approx polarizability:      67.043      -0.000       1.979      -0.000      -0.000       1.979

 ******    2 imaginary frequencies (negative Signs) ******

                      1                      2                      3
                      A                      A                      A
 Frequencies --  -1199.7465              -205.4574               788.2737
 Red. masses --      1.0530                 1.0586                 1.0243
 Frc consts  --      0.8930                 0.0263                 0.3750
 IR Inten    --    115.6640                 6.3327                83.4045

                      4
                      A
 Frequencies --    788.2737
 Red. masses --      1.0243
 Frc consts  --      0.3750
 IR Inten    --     83.4045

 - Thermochemistry -
 -------------------
 Temperature   298.150 Kelvin.  Pressure   1.00000 Atm.
 Atom     1 has atomic number  1 and mass   1.00783

 Molecular mass:    21.01405 amu.
 Principal axes and moments of inertia in atomic units:
                           1         2         3
     Eigenvalues --     0.00000  82.29947  82.29947
           X            1.00000  -0.00000   0.00000
           Y            0.00000   1.00000   0.00000
           Z            0.00000   0.00000   1.00000
 This molecule is a prolate symmetric top.
 Rotational symmetry number  1.
 Rotational temperature (Kelvin)      1.05242
 Rotational constant (GHZ):          21.928953
    2 imaginary frequencies ignored.
 Zero-point vibrational energy       9429.8 (Joules/Mol)
                                    2.25379 (Kcal/Mol)
 Vibrational temperatures:   1134.15  1134.15
          (Kelvin)

 Zero-point correction=                           0.003592 (Hartree/Particle)
 Thermal correction to Energy=                    0.006116
 Thermal correction to Enthalpy=                  0.007060
 Thermal correction to Gibbs Free Energy=        -0.016738
 Sum of electronic and zero-point Energies=           -100.794408
 Sum of electronic and thermal Energies=              -100.791884
 Sum of electronic and thermal Enthalpies=            -100.790940
 Sum of electronic and thermal Free Energies=         -100.814738

                     E (Thermal)             CV                S
                      KCal/Mol        Cal/Mol-Kelvin    Cal/Mol-Kelvin
 Total                    3.838              6.309             50.088
 Electronic               0.000              0.000              1.377
 Translational            0.889              2.981             35.068
 Rotational               0.592              1.987             13.208
 Vibrational              2.357              1.341              0.434

 Normal termination of Gaussian 16 at Fri Aug 22 16:44:19 2025.
