 Gaussian 16, Revision C.01,
 Gaussian 16:  ES64L-G16RevC.01  3-Jul-2019

 -----------------------------------------
 # sp b3lyp/6-311g** Force nosymm scf=(qc)
 -----------------------------------------

 -------------------
 Title Card Required
 -------------------
 Symbolic Z-matrix:
 Charge =  0 Multiplicity = 2

                          Input orientation:
 ---------------------------------------------------------------------
 Center     Atomic      Atomic             Coordinates (Angstroms)
 Number     Number       Type             X           Y           Z
 ---------------------------------------------------------------------
      1          1           0        0.000000    0.000000    0.000000
      2          1           0       -3.400000    0.000000    0.000000
      3          9           0        3.200000    0.000000    0.000000
 ---------------------------------------------------------------------

 SCF Done:  E(UB3LYP) =  -100.760103554     a.u. after   25 cycles

 Alpha  occ. eigenvalues --  -24.74722  -1.20735  -0.53843  -0.45208  -0.45208
 Alpha  occ. eigenvalues --   -0.32466
 Alpha virt. eigenvalues --   -0.07733   0.24250   0.36305   0.88670   0.91890
 Alpha virt. eigenvalues --    0.91890   1.02877   1.25043   1.25043   1.25265
 Alpha virt. eigenvalues --    1.44353   1.44353   1.44522   2.15053   2.40603

  Beta  occ. eigenvalues --  -24.71652  -1.11923  -0.42133  -0.42133  -0.33300
  Beta virt. eigenvalues --   -0.25131  -0.06700   0.24074   0.37740   0.93365
  Beta virt. eigenvalues --    0.93365   0.97581   1.06749   1.24077   1.24077
  Beta virt. eigenvalues --    1.24328   1.45638   1.45890   1.45890   2.15396

 Mulliken charges and spin densities:
               1          2
     1  H    0.023878  -0.970678
     2  H    0.000416   0.997329
     3  F   -0.024294   0.973348
 Sum of Mulliken charges =  -0.00000   1.00000

 Dipole moment (field-independent basis, Debye):
    X=             -0.4063    Y=             -0.0000    Z=             -0.0000  Tot=              0.4063
 Quadrupole moment (field-independent basis, Debye-Ang):
   XX=             -7.8958   YY=             -7.6181   ZZ=             -7.6181
   XY=              0.0000   XZ=              0.0000   YZ=             -0.0000

  Exact polarizability:      30.286       0.000       2.028       0.000      -0.000       2.028
 Approx polarizability:      27.563       0.000       1.929       0.000       0.000       1.929

 ******    2 imaginary frequencies (negative Signs) ******

                      1                      2                      3
                      A                      A                      A
 Frequencies --   -322.0697              -125.0598               110.5730
 Red. masses --      1.0361                 1.0762                 1.0187
 Frc consts  --      0.0633                 0.0099                 0.0073
 IR Inten    --     25.3011                 1.4927                 0.5203

                      4
                      A
 Frequencies --    110.5730
 Red. masses --      1.0187
 Frc consts  --      0.0073
 IR Inten    --      0.5203

 - Thermochemistry -
 -------------------
 Temperature   298.150 Kelvin.  Pressure   1.00000 Atm.
 Atom     1 has atomic number  1 and mass   1.00783

 Molecular mass:    21.01405 amu.
 Principal axes and moments of inertia in atomic units:
                           1         2         3
     Eigenvalues --     0.00000 177.04949 177.04949
           X            1.00000  -0.00000   0.00000
           Y            0.00000   1.00000   0.00000
           Z            0.00000   0.00000   1.00000
 This molecule is a prolate symmetric top.
 Rotational symmetry number  1.
 Rotational temperature (Kelvin)      0.48921
 Rotational constant (GHZ):          10.193428
    2 imaginary frequencies ignored.
 Zero-point vibrational energy       1322.7 (Joules/Mol)
                                    0.31614 (Kcal/Mol)
 Warning -- explicit consideration of   2 degrees of freedom as
           vibrations may cause significant error
 Vibrational temperatures:    159.09   159.09
          (Kelvin)

 Zero-point correction=                           0.000504 (Hartree/Particle)
 Thermal correction to Energy=                    0.004293
 Thermal correction to Enthalpy=                  0.005238
 Thermal correction to Gibbs Free Energy=        -0.022174
 Sum of electronic and zero-point Energies=           -100.759600
 Sum of electronic and thermal Energies=              -100.755810
 Sum of electronic and thermal Enthalpies=            -100.754866
 Sum of electronic and thermal Free Energies=         -100.782278

                     E (Thermal)             CV                S
                      KCal/Mol        Cal/Mol-Kelvin    Cal/Mol-Kelvin
 Total                    2.694              8.849             57.693
 Electronic               0.000              0.000              1.377
 Translational            0.889              2.981             35.068
 Rotational               0.592              1.987             14.730
 Vibrational              1.213              3.881              6.518
 Vibration     1          0.606              1.941              3.259
 Vibration     2          0.606              1.941              3.259

 Normal termination of Gaussian 16 at Fri Aug 22 20:24:48 2025.
