 Gaussian 16, Revision C.01,
 Gaussian 16:  ES64L-G16RevC.01  3-Jul-2019

 -----------------------------------------
 # sp b3lyp/6-311g** Force nosymm scf=(qc)
 -----------------------------------------

 -------------------
 Title Card Required
 -------------------
 Symbolic Z-matrix:
 Charge =  0 Multiplicity = 2

                          Input orientation:
 ---------------------------------------------------------------------
 Center     Atomic      Atomic             Coordinates (Angstroms)
 Number     Number       Type             X           Y           Z
 ---------------------------------------------------------------------
      1          1           0        0.000000    0.000000    0.000000
      2          1           0       -1.650000    0.000000    0.000000
      3          9           0        3.250000    0.000000    0.000000
 ---------------------------------------------------------------------

 SCF Done:  E(UB3LYP) =  -100.800504133     a.u. after   40 cycles

 Alpha  occ. eigenvalues --  -24.75498  -1.21456  -0.54625  -0.45873  -0.45873
 Alpha  occ. eigenvalues --   -0.33821
 Alpha virt. eigenvalues --   -0.11024   0.25171   0.30166   0.88499   0.91374
 Alpha virt. eigenvalues --    0.91374   1.02517   1.06258   1.22513   1.22513
 Alpha virt. eigenvalues --    1.38116   1.38116   1.70593   2.17515   2.42831

  Beta  occ. eigenvalues --  -24.72391  -1.12527  -0.42759  -0.42759  -0.33736
  Beta virt. eigenvalues --   -0.25688  -0.10849   0.25309   0.30490   0.92859
  Beta virt. eigenvalues --    0.92859   0.97510   1.06301   1.06619   1.22613
  Beta virt. eigenvalues --    1.22613   1.38268   1.38268   1.70835   2.18121

 Mulliken charges and spin densities:
               1          2
     1  H   -0.000319  -0.539818
     2  H    0.012374   0.554625
     3  F   -0.012056   0.985193
 Sum of Mulliken charges =   0.00000   1.00000

 Dipole moment (field-independent basis, Debye):
    X=             -0.2963    Y=              0.0000    Z=              0.0000  Tot=              0.2963
 Quadrupole moment (field-independent basis, Debye-Ang):
   XX=             -6.1990   YY=             -7.7580   ZZ=             -7.7580
   XY=              0.0000   XZ=              0.0001   YZ=              0.0000

  Exact polarizability:      49.204      -0.000       2.014      -0.000      -0.000       2.014
 Approx polarizability:      57.609       0.000       1.987       0.000       0.000       1.987

 ******    2 imaginary frequencies (negative Signs) ******

                      1                      2                      3
                      A                      A                      A
 Frequencies --  -1994.0831              -155.5379               969.1927
 Red. masses --      1.0078                 1.1085                 1.0118
 Frc consts  --      2.3612                 0.0158                 0.5600
 IR Inten    --     61.9460                10.9833                 0.0225

                      4
                      A
 Frequencies --    969.1927
 Red. masses --      1.0118
 Frc consts  --      0.5600
 IR Inten    --      0.0225

 - Thermochemistry -
 -------------------
 Temperature   298.150 Kelvin.  Pressure   1.00000 Atm.
 Atom     1 has atomic number  1 and mass   1.00783

 Molecular mass:    21.01405 amu.
 Principal axes and moments of inertia in atomic units:
                           1         2         3
     Eigenvalues --     0.00000 112.96174 112.96174
           X            1.00000  -0.00000   0.00000
           Y            0.00000   1.00000   0.00000
           Z            0.00000   0.00000   1.00000
 This molecule is a prolate symmetric top.
 Rotational symmetry number  1.
 Rotational temperature (Kelvin)      0.76675
 Rotational constant (GHZ):          15.976571
    2 imaginary frequencies ignored.
 Zero-point vibrational energy      11594.1 (Joules/Mol)
                                    2.77106 (Kcal/Mol)
 Vibrational temperatures:   1394.45  1394.45
          (Kelvin)

 Zero-point correction=                           0.004416 (Hartree/Particle)
 Thermal correction to Energy=                    0.006859
 Thermal correction to Enthalpy=                  0.007804
 Thermal correction to Gibbs Free Energy=        -0.016188
 Sum of electronic and zero-point Energies=           -100.796088
 Sum of electronic and thermal Energies=              -100.793645
 Sum of electronic and thermal Enthalpies=            -100.792701
 Sum of electronic and thermal Free Energies=         -100.816692

                     E (Thermal)             CV                S
                      KCal/Mol        Cal/Mol-Kelvin    Cal/Mol-Kelvin
 Total                    4.304              5.792             50.494
 Electronic               0.000              0.000              1.377
 Translational            0.889              2.981             35.068
 Rotational               0.592              1.987             13.837
 Vibrational              2.823              0.824              0.212

 Normal termination of Gaussian 16 at Fri Aug 22 20:33:49 2025.
