 Gaussian 16, Revision C.01,
 Gaussian 16:  ES64L-G16RevC.01  3-Jul-2019

 -----------------------------------------
 # sp b3lyp/6-311g** Force nosymm scf=(qc)
 -----------------------------------------

 -------------------
 Title Card Required
 -------------------
 Symbolic Z-matrix:
 Charge =  0 Multiplicity = 2

                          Input orientation:
 ---------------------------------------------------------------------
 Center     Atomic      Atomic             Coordinates (Angstroms)
 Number     Number       Type             X           Y           Z
 ---------------------------------------------------------------------
      1          1           0        0.000000    0.000000    0.000000
      2          1           0       -1.250000    0.000000    0.000000
      3          9           0        0.600000    0.000000    0.000000
 ---------------------------------------------------------------------

 SCF Done:  E(UB3LYP) =  -100.668781150     a.u. after    6 cycles

 Alpha  occ. eigenvalues --  -24.63505  -1.36103  -0.63074  -0.43776  -0.43776
 Alpha  occ. eigenvalues --   -0.35250
 Alpha virt. eigenvalues --    0.15378   0.20869   0.66919   0.90333   0.90333
 Alpha virt. eigenvalues --    0.91168   1.13434   1.13434   1.47479   1.61520
 Alpha virt. eigenvalues --    1.61520   1.73356   1.96156   2.31684   3.77060

  Beta  occ. eigenvalues --  -24.63309  -1.35476  -0.62037  -0.43630  -0.43630
  Beta virt. eigenvalues --   -0.12131   0.16299   0.28556   0.72448   0.90908
  Beta virt. eigenvalues --    0.90908   0.91585   1.24607   1.24607   1.48510
  Beta virt. eigenvalues --    1.66649   1.66649   1.83317   1.99914   2.52469

 Mulliken charges and spin densities:
               1          2
     1  H    0.233981   0.010618
     2  H   -0.001004   0.970049
     3  F   -0.232977   0.019334
 Sum of Mulliken charges =   0.00000   1.00000

 Dipole moment (field-independent basis, Debye):
    X=             -1.3020    Y=              0.0000    Z=              0.0000  Tot=              1.3020
 Quadrupole moment (field-independent basis, Debye-Ang):
   XX=             -7.0260   YY=             -6.4422   ZZ=             -6.4422
   XY=              0.0000   XZ=              0.0000   YZ=             -0.0000

  Exact polarizability:       6.536      -0.000       2.529       0.000       0.000       2.529
 Approx polarizability:       6.248       0.000       2.563       0.000       0.000       2.563

 ******    2 imaginary frequencies (negative Signs) ******

                      1                      2                      3
                      A                      A                      A
 Frequencies --  -5715.6876             -5715.6876              1398.3516
 Red. masses --      1.0287                 1.0287                 1.0538
 Frc consts  --     19.8008                19.8008                 1.2140
 IR Inten    --    160.5587               160.5587                27.7577

                      4
                      A
 Frequencies --  13067.2537
 Red. masses --      1.0578
 Frc consts  --    106.4166
 IR Inten    --     87.6055

 - Thermochemistry -
 -------------------
 Temperature   298.150 Kelvin.  Pressure   1.00000 Atm.
 Atom     1 has atomic number  1 and mass   1.00783

 Molecular mass:    21.01405 amu.
 Principal axes and moments of inertia in atomic units:
                           1         2         3
     Eigenvalues --     0.00000  12.57718  12.57718
           X            1.00000  -0.00000   0.00000
           Y            0.00000   1.00000   0.00000
           Z            0.00000   0.00000   1.00000
 This molecule is a prolate symmetric top.
 Rotational symmetry number  1.
 Rotational temperature (Kelvin)      6.88659
 Rotational constant (GHZ):         143.493348
    2 imaginary frequencies ignored.
 Zero-point vibrational energy      86523.5 (Joules/Mol)
                                   20.67962 (Kcal/Mol)
 Vibrational temperatures:   2011.92 18800.86
          (Kelvin)

 Zero-point correction=                           0.032955 (Hartree/Particle)
 Thermal correction to Energy=                    0.035323
 Thermal correction to Enthalpy=                  0.036267
 Thermal correction to Gibbs Free Energy=         0.014440
 Sum of electronic and zero-point Energies=           -100.635826
 Sum of electronic and thermal Energies=              -100.633458
 Sum of electronic and thermal Enthalpies=            -100.632514
 Sum of electronic and thermal Free Energies=         -100.654341

                     E (Thermal)             CV                S
                      KCal/Mol        Cal/Mol-Kelvin    Cal/Mol-Kelvin
 Total                   22.166              5.074             45.939
 Electronic               0.000              0.000              1.377
 Translational            0.889              2.981             35.068
 Rotational               0.592              1.987              9.475
 Vibrational             20.684              0.106              0.018

 Normal termination of Gaussian 16 at Fri Aug 22 15:41:11 2025.
