 Gaussian 16, Revision C.01,
 Gaussian 16:  ES64L-G16RevC.01  3-Jul-2019

 -----------------------------------------
 # sp b3lyp/6-311g** Force nosymm scf=(qc)
 -----------------------------------------

 -------------------
 Title Card Required
 -------------------
 Symbolic Z-matrix:
 Charge =  0 Multiplicity = 2

                          Input orientation:
 ---------------------------------------------------------------------
 Center     Atomic      Atomic             Coordinates (Angstroms)
 Number     Number       Type             X           Y           Z
 ---------------------------------------------------------------------
      1          1           0        0.000000    0.000000    0.000000
      2          1           0       -1.850000    0.000000    0.000000
      3          9           0        2.200000    0.000000    0.000000
 ---------------------------------------------------------------------

 SCF Done:  E(UB3LYP) =  -100.797508067     a.u. after   14 cycles

 Alpha  occ. eigenvalues --  -24.69999  -1.16293  -0.49127  -0.41235  -0.41235
 Alpha  occ. eigenvalues --   -0.36170
 Alpha virt. eigenvalues --   -0.13021   0.24000   0.31377   0.87201   0.94395
 Alpha virt. eigenvalues --    0.94395   1.03970   1.21552   1.21552   1.23856
 Alpha virt. eigenvalues --    1.34208   1.34208   1.58591   2.11794   2.35475

  Beta  occ. eigenvalues --  -24.67344  -1.08792  -0.38601  -0.38601  -0.36311
  Beta virt. eigenvalues --   -0.22720  -0.11825   0.26420   0.30966   0.91338
  Beta virt. eigenvalues --    0.95545   0.95545   1.07585   1.22441   1.22441
  Beta virt. eigenvalues --    1.29529   1.35565   1.35565   1.58418   2.12528

 Mulliken charges and spin densities:
               1          2
     1  H    0.087216  -0.643315
     2  H    0.045888   0.807055
     3  F   -0.133104   0.836260
 Sum of Mulliken charges =  -0.00000   1.00000

 Dipole moment (field-independent basis, Debye):
    X=             -1.8802    Y=              0.0000    Z=              0.0000  Tot=              1.8802
 Quadrupole moment (field-independent basis, Debye-Ang):
   XX=             -8.2624   YY=             -7.6133   ZZ=             -7.6133
   XY=              0.0000   XZ=              0.0000   YZ=             -0.0000

  Exact polarizability:      57.127       0.000       2.036       0.000       0.000       2.036
 Approx polarizability:      70.087      -0.000       1.959      -0.000       0.000       1.959

 ******    2 imaginary frequencies (negative Signs) ******

                      1                      2                      3
                      A                      A                      A
 Frequencies --  -1700.5602              -501.7536               714.2874
 Red. masses --      1.0109                 1.1048                 1.0160
 Frc consts  --      1.7224                 0.1639                 0.3054
 IR Inten    --    172.4310                48.0172                 3.6727

                      4
                      A
 Frequencies --    714.2874
 Red. masses --      1.0160
 Frc consts  --      0.3054
 IR Inten    --      3.6727

 - Thermochemistry -
 -------------------
 Temperature   298.150 Kelvin.  Pressure   1.00000 Atm.
 Atom     1 has atomic number  1 and mass   1.00783

 Molecular mass:    21.01405 amu.
 Principal axes and moments of inertia in atomic units:
                           1         2         3
     Eigenvalues --     0.00000  69.70948  69.70948
           X            1.00000  -0.00000   0.00000
           Y            0.00000   1.00000   0.00000
           Z            0.00000   0.00000   1.00000
 This molecule is a prolate symmetric top.
 Rotational symmetry number  1.
 Rotational temperature (Kelvin)      1.24250
 Rotational constant (GHZ):          25.889465
    2 imaginary frequencies ignored.
 Zero-point vibrational energy       8544.8 (Joules/Mol)
                                    2.04225 (Kcal/Mol)
 Vibrational temperatures:   1027.70  1027.70
          (Kelvin)

 Zero-point correction=                           0.003255 (Hartree/Particle)
 Thermal correction to Energy=                    0.005829
 Thermal correction to Enthalpy=                  0.006773
 Thermal correction to Gibbs Free Energy=        -0.016937
 Sum of electronic and zero-point Energies=           -100.794254
 Sum of electronic and thermal Energies=              -100.791679
 Sum of electronic and thermal Enthalpies=            -100.790735
 Sum of electronic and thermal Free Energies=         -100.814445

                     E (Thermal)             CV                S
                      KCal/Mol        Cal/Mol-Kelvin    Cal/Mol-Kelvin
 Total                    3.658              6.572             49.903
 Electronic               0.000              0.000              1.377
 Translational            0.889              2.981             35.068
 Rotational               0.592              1.987             12.878
 Vibrational              2.177              1.604              0.579

 Normal termination of Gaussian 16 at Fri Aug 22 17:11:31 2025.
