 Gaussian 16, Revision C.01,
 Gaussian 16:  ES64L-G16RevC.01  3-Jul-2019

 -----------------------------------------
 # sp b3lyp/6-311g** Force nosymm scf=(qc)
 -----------------------------------------

 -------------------
 Title Card Required
 -------------------
 Symbolic Z-matrix:
 Charge =  0 Multiplicity = 2

                          Input orientation:
 ---------------------------------------------------------------------
 Center     Atomic      Atomic             Coordinates (Angstroms)
 Number     Number       Type             X           Y           Z
 ---------------------------------------------------------------------
      1          1           0        0.000000    0.000000    0.000000
      2          1           0       -2.450000    0.000000    0.000000
      3          9           0        2.150000    0.000000    0.000000
 ---------------------------------------------------------------------

 SCF Done:  E(UB3LYP) =  -100.782854098     a.u. after   17 cycles

 Alpha  occ. eigenvalues --  -24.69319  -1.15629  -0.48363  -0.40666  -0.40666
 Alpha  occ. eigenvalues --   -0.34627
 Alpha virt. eigenvalues --   -0.13310   0.24297   0.31852   0.88982   0.94695
 Alpha virt. eigenvalues --    0.94695   1.06377   1.23045   1.23045   1.26470
 Alpha virt. eigenvalues --    1.35793   1.35793   1.52920   2.13779   2.30044

  Beta  occ. eigenvalues --  -24.66748  -1.08389  -0.38120  -0.38120  -0.36859
  Beta virt. eigenvalues --   -0.21745  -0.10051   0.25447   0.34401   0.92438
  Beta virt. eigenvalues --    0.95705   0.95705   1.08856   1.21931   1.21931
  Beta virt. eigenvalues --    1.40881   1.40881   1.42544   1.45391   2.13086

 Mulliken charges and spin densities:
               1          2
     1  H    0.136474  -0.775199
     2  H    0.017579   0.965781
     3  F   -0.154053   0.809418
 Sum of Mulliken charges =   0.00000   1.00000

 Dipole moment (field-independent basis, Debye):
    X=             -1.8617    Y=             -0.0000    Z=              0.0000  Tot=              1.8617
 Quadrupole moment (field-independent basis, Debye-Ang):
   XX=             -9.2309   YY=             -7.5588   ZZ=             -7.5588
   XY=             -0.0000   XZ=              0.0000   YZ=              0.0000

  Exact polarizability:      41.016      -0.000       2.037       0.000      -0.000       2.037
 Approx polarizability:      47.633      -0.000       1.933       0.000      -0.000       1.933

 ******    2 imaginary frequencies (negative Signs) ******

                      1                      2                      3
                      A                      A                      A
 Frequencies --  -1061.1798              -407.2743               440.6250
 Red. masses --      1.0340                 1.0784                 1.0196
 Frc consts  --      0.6861                 0.1054                 0.1166
 IR Inten    --     80.1470                21.6225                15.0968

                      4
                      A
 Frequencies --    440.6250
 Red. masses --      1.0196
 Frc consts  --      0.1166
 IR Inten    --     15.0968

 - Thermochemistry -
 -------------------
 Temperature   298.150 Kelvin.  Pressure   1.00000 Atm.
 Atom     1 has atomic number  1 and mass   1.00783

 Molecular mass:    21.01405 amu.
 Principal axes and moments of inertia in atomic units:
                           1         2         3
     Eigenvalues --     0.00000  84.92704  84.92704
           X            1.00000  -0.00000   0.00000
           Y            0.00000   1.00000   0.00000
           Z            0.00000   0.00000   1.00000
 This molecule is a prolate symmetric top.
 Rotational symmetry number  1.
 Rotational temperature (Kelvin)      1.01986
 Rotational constant (GHZ):          21.250491
    2 imaginary frequencies ignored.
 Zero-point vibrational energy       5271.0 (Joules/Mol)
                                    1.25981 (Kcal/Mol)
 Warning -- explicit consideration of   2 degrees of freedom as
           vibrations may cause significant error
 Vibrational temperatures:    633.96   633.96
          (Kelvin)

 Zero-point correction=                           0.002008 (Hartree/Particle)
 Thermal correction to Energy=                    0.004912
 Thermal correction to Enthalpy=                  0.005856
 Thermal correction to Gibbs Free Energy=        -0.018549
 Sum of electronic and zero-point Energies=           -100.780846
 Sum of electronic and thermal Energies=              -100.777942
 Sum of electronic and thermal Enthalpies=            -100.776998
 Sum of electronic and thermal Free Energies=         -100.801403

                     E (Thermal)             CV                S
                      KCal/Mol        Cal/Mol-Kelvin    Cal/Mol-Kelvin
 Total                    3.082              7.731             51.365
 Electronic               0.000              0.000              1.377
 Translational            0.889              2.981             35.068
 Rotational               0.592              1.987             13.270
 Vibrational              1.601              2.763              1.649
 Vibration     1          0.801              1.382              0.825
 Vibration     2          0.801              1.382              0.825

 Normal termination of Gaussian 16 at Fri Aug 22 17:08:05 2025.
