 Gaussian 16, Revision C.01,
 Gaussian 16:  ES64L-G16RevC.01  3-Jul-2019

 -----------------------------------------
 # sp b3lyp/6-311g** Force nosymm scf=(qc)
 -----------------------------------------

 -------------------
 Title Card Required
 -------------------
 Symbolic Z-matrix:
 Charge =  0 Multiplicity = 2

                          Input orientation:
 ---------------------------------------------------------------------
 Center     Atomic      Atomic             Coordinates (Angstroms)
 Number     Number       Type             X           Y           Z
 ---------------------------------------------------------------------
      1          1           0        0.000000    0.000000    0.000000
      2          1           0       -3.900000    0.000000    0.000000
      3          9           0        0.800000    0.000000    0.000000
 ---------------------------------------------------------------------

 SCF Done:  E(UB3LYP) =  -100.950279664     a.u. after    6 cycles

 Alpha  occ. eigenvalues --  -24.63682  -1.23048  -0.56194  -0.40657  -0.40657
 Alpha  occ. eigenvalues --   -0.33268
 Alpha virt. eigenvalues --    0.05074   0.24197   0.45973   0.94198   0.94198
 Alpha virt. eigenvalues --    0.96993   1.24147   1.24237   1.24237   1.29227
 Alpha virt. eigenvalues --    1.39808   1.39808   2.02087   2.14382   2.53053

  Beta  occ. eigenvalues --  -24.63681  -1.23047  -0.56193  -0.40656  -0.40656
  Beta virt. eigenvalues --   -0.04891   0.05257   0.39012   0.46036   0.94198
  Beta virt. eigenvalues --    0.94198   0.96990   1.29112   1.39808   1.39808
  Beta virt. eigenvalues --    1.50701   1.50854   1.50854   2.02271   2.44747

 Mulliken charges and spin densities:
               1          2
     1  H    0.275090   0.000312
     2  H    0.000365   0.999587
     3  F   -0.275455   0.000101
 Sum of Mulliken charges =   0.00000   1.00000

 Dipole moment (field-independent basis, Debye):
    X=             -1.7354    Y=             -0.0000    Z=             -0.0000  Tot=              1.7354
 Quadrupole moment (field-independent basis, Debye-Ang):
   XX=             -7.6355   YY=             -6.7693   ZZ=             -6.7693
   XY=             -0.0000   XZ=             -0.0000   YZ=              0.0000

  Exact polarizability:       4.424      -0.000       2.439       0.000      -0.000       2.439
 Approx polarizability:       5.021      -0.000       2.419       0.000      -0.000       2.419

 ******    3 imaginary frequencies (negative Signs) ******

                      1                      2                      3
                      A                      A                      A
 Frequencies --  -1985.5476             -1985.5476               -28.3536
 Red. masses --      1.0416                 1.0416                 1.0532
 Frc consts  --      2.4195                 2.4195                 0.0005
 IR Inten    --    198.1508               198.1508                 0.0101

                      4
                      A
 Frequencies --   6349.9326
 Red. masses --      1.0583
 Frc consts  --     25.1421
 IR Inten    --    103.4664

 - Thermochemistry -
 -------------------
 Temperature   298.150 Kelvin.  Pressure   1.00000 Atm.
 Atom     1 has atomic number  1 and mass   1.00783

 Molecular mass:    21.01405 amu.
 Principal axes and moments of inertia in atomic units:
                           1         2         3
     Eigenvalues --     0.00000  76.58410  76.58410
           X            1.00000  -0.00000   0.00000
           Y            0.00000   1.00000   0.00000
           Z            0.00000   0.00000   1.00000
 This molecule is a prolate symmetric top.
 Rotational symmetry number  1.
 Rotational temperature (Kelvin)      1.13096
 Rotational constant (GHZ):          23.565480
    3 imaginary frequencies ignored.
 Zero-point vibrational energy      37981.0 (Joules/Mol)
                                    9.07768 (Kcal/Mol)
 Vibrational temperatures:   9136.14
          (Kelvin)

 Zero-point correction=                           0.014466 (Hartree/Particle)
 Thermal correction to Energy=                    0.016827
 Thermal correction to Enthalpy=                  0.017771
 Thermal correction to Gibbs Free Energy=        -0.005753
 Sum of electronic and zero-point Energies=           -100.935813
 Sum of electronic and thermal Energies=              -100.933453
 Sum of electronic and thermal Enthalpies=            -100.932509
 Sum of electronic and thermal Free Energies=         -100.956033

                     E (Thermal)             CV                S
                      KCal/Mol        Cal/Mol-Kelvin    Cal/Mol-Kelvin
 Total                   10.559              4.968             49.510
 Electronic               0.000              0.000              1.377
 Translational            0.889              2.981             35.068
 Rotational               0.592              1.987             13.065
 Vibrational              9.078              0.000              0.000

 Normal termination of Gaussian 16 at Fri Aug 22 15:52:19 2025.
