 Gaussian 16, Revision C.01,
 Gaussian 16:  ES64L-G16RevC.01  3-Jul-2019

 -----------------------------------------
 # sp b3lyp/6-311g** Force nosymm scf=(qc)
 -----------------------------------------

 -------------------
 Title Card Required
 -------------------
 Symbolic Z-matrix:
 Charge =  0 Multiplicity = 2

                          Input orientation:
 ---------------------------------------------------------------------
 Center     Atomic      Atomic             Coordinates (Angstroms)
 Number     Number       Type             X           Y           Z
 ---------------------------------------------------------------------
      1          1           0        0.000000    0.000000    0.000000
      2          1           0       -4.000000    0.000000    0.000000
      3          9           0        2.550000    0.000000    0.000000
 ---------------------------------------------------------------------

 SCF Done:  E(UB3LYP) =  -100.766014622     a.u. after   24 cycles

 Alpha  occ. eigenvalues --  -24.69128  -1.10033  -0.40066  -0.40066  -0.35157
 Alpha  occ. eigenvalues --   -0.32655
 Alpha virt. eigenvalues --   -0.23506   0.21404   0.27345   0.94862   0.94862
 Alpha virt. eigenvalues --    0.96443   1.08540   1.22246   1.22246   1.24811
 Alpha virt. eigenvalues --    1.24818   1.24818   1.28385   2.10714   2.16492

  Beta  occ. eigenvalues --  -24.71993  -1.18196  -0.51099  -0.42924  -0.42924
  Beta virt. eigenvalues --   -0.10146  -0.04160   0.33235   0.40324   0.89723
  Beta virt. eigenvalues --    0.93480   0.93480   1.06068   1.40877   1.40877
  Beta virt. eigenvalues --    1.44349   1.48544   1.48585   1.48585   2.37010

 Mulliken charges and spin densities:
               1          2
     1  H    0.083854   0.905901
     2  H    0.000201   0.999802
     3  F   -0.084055  -0.905703
 Sum of Mulliken charges =   0.00000   1.00000

 Dipole moment (field-independent basis, Debye):
    X=             -1.0955    Y=              0.0000    Z=             -0.0000  Tot=              1.0955
 Quadrupole moment (field-independent basis, Debye-Ang):
   XX=             -9.2908   YY=             -7.5667   ZZ=             -7.5667
   XY=              0.0000   XZ=             -0.0000   YZ=             -0.0000

  Exact polarizability:      30.313       0.000       2.027      -0.000       0.000       2.027
 Approx polarizability:      38.395       0.000       1.922      -0.000      -0.000       1.922

 ******    1 imaginary frequencies (negative Signs) ******

                      1                      2                      3
                      A                      A                      A
 Frequencies --   -572.8175                48.1756               222.6378
 Red. masses --      1.0592                 1.0524                 1.0242
 Frc consts  --      0.2048                 0.0014                 0.0299
 IR Inten    --     74.8165                 0.0041                 6.8980

                      4
                      A
 Frequencies --    222.6378
 Red. masses --      1.0242
 Frc consts  --      0.0299
 IR Inten    --      6.8980

 - Thermochemistry -
 -------------------
 Temperature   298.150 Kelvin.  Pressure   1.00000 Atm.
 Atom     1 has atomic number  1 and mass   1.00783

 Molecular mass:    21.01405 amu.
 Principal axes and moments of inertia in atomic units:
                           1         2         3
     Eigenvalues --     0.00000 163.51544 163.51544
           X            1.00000  -0.00000   0.00000
           Y            0.00000   1.00000   0.00000
           Z            0.00000   0.00000   1.00000
 This molecule is a prolate symmetric top.
 Rotational symmetry number  1.
 Rotational temperature (Kelvin)      0.52970
 Rotational constant (GHZ):          11.037130
    1 imaginary frequencies ignored.
 Zero-point vibrational energy       2951.5 (Joules/Mol)
                                    0.70542 (Kcal/Mol)
 Warning -- explicit consideration of   3 degrees of freedom as
           vibrations may cause significant error
 Vibrational temperatures:     69.31   320.33   320.33
          (Kelvin)

 Zero-point correction=                           0.001124 (Hartree/Particle)
 Thermal correction to Energy=                    0.005376
 Thermal correction to Enthalpy=                  0.006320
 Thermal correction to Gibbs Free Energy=        -0.022085
 Sum of electronic and zero-point Energies=           -100.764890
 Sum of electronic and thermal Energies=              -100.760639
 Sum of electronic and thermal Enthalpies=            -100.759695
 Sum of electronic and thermal Free Energies=         -100.788100

                     E (Thermal)             CV                S
                      KCal/Mol        Cal/Mol-Kelvin    Cal/Mol-Kelvin
 Total                    3.373             10.559             59.784
 Electronic               0.000              0.000              1.377
 Translational            0.889              2.981             35.068
 Rotational               0.592              1.987             14.572
 Vibrational              1.892              5.591              8.766
 Vibration     1          0.595              1.978              4.891
 Vibration     2          0.648              1.807              1.938
 Vibration     3          0.648              1.807              1.938

 Normal termination of Gaussian 16 at Fri Aug 22 17:55:48 2025.
