 Gaussian 16, Revision C.01,
 Gaussian 16:  ES64L-G16RevC.01  3-Jul-2019

 -----------------------------------------
 # sp b3lyp/6-311g** Force nosymm scf=(qc)
 -----------------------------------------

 -------------------
 Title Card Required
 -------------------
 Symbolic Z-matrix:
 Charge =  0 Multiplicity = 2

                          Input orientation:
 ---------------------------------------------------------------------
 Center     Atomic      Atomic             Coordinates (Angstroms)
 Number     Number       Type             X           Y           Z
 ---------------------------------------------------------------------
      1          1           0        0.000000    0.000000    0.000000
      2          1           0       -1.950000    0.000000    0.000000
      3          9           0        2.000000    0.000000    0.000000
 ---------------------------------------------------------------------

 SCF Done:  E(UB3LYP) =  -100.802200719     a.u. after   13 cycles

 Alpha  occ. eigenvalues --  -24.68187  -1.14524  -0.47298  -0.39704  -0.39704
 Alpha  occ. eigenvalues --   -0.36581
 Alpha virt. eigenvalues --   -0.13383   0.23810   0.30800   0.87775   0.94935
 Alpha virt. eigenvalues --    0.94935   1.04584   1.21289   1.21289   1.28050
 Alpha virt. eigenvalues --    1.33936   1.33936   1.61114   2.11222   2.32174

  Beta  occ. eigenvalues --  -24.65786  -1.07806  -0.37367  -0.37337  -0.37337
  Beta virt. eigenvalues --   -0.21546  -0.11557   0.26093   0.31406   0.90601
  Beta virt. eigenvalues --    0.95686   0.95686   1.08203   1.23071   1.23071
  Beta virt. eigenvalues --    1.35870   1.35870   1.37473   1.58933   2.12189

 Mulliken charges and spin densities:
               1          2
     1  H    0.138220  -0.622474
     2  H    0.047274   0.867906
     3  F   -0.185494   0.754568
 Sum of Mulliken charges =  -0.00000   1.00000

 Dipole moment (field-independent basis, Debye):
    X=             -2.2848    Y=             -0.0000    Z=              0.0000  Tot=              2.2848
 Quadrupole moment (field-independent basis, Debye-Ang):
   XX=             -8.6404   YY=             -7.5507   ZZ=             -7.5507
   XY=             -0.0000   XZ=              0.0000   YZ=              0.0000

  Exact polarizability:      50.468      -0.000       2.064       0.000       0.000       2.064
 Approx polarizability:      61.594       0.000       1.974      -0.000       0.000       1.974

 ******    2 imaginary frequencies (negative Signs) ******

                      1                      2                      3
                      A                      A                      A
 Frequencies --  -1633.5647              -577.2710               675.8023
 Red. masses --      1.0179                 1.0966                 1.0176
 Frc consts  --      1.6004                 0.2153                 0.2738
 IR Inten    --    136.8891                34.7440                11.3791

                      4
                      A
 Frequencies --    675.8023
 Red. masses --      1.0176
 Frc consts  --      0.2738
 IR Inten    --     11.3791

 - Thermochemistry -
 -------------------
 Temperature   298.150 Kelvin.  Pressure   1.00000 Atm.
 Atom     1 has atomic number  1 and mass   1.00783

 Molecular mass:    21.01405 amu.
 Principal axes and moments of inertia in atomic units:
                           1         2         3
     Eigenvalues --     0.00000  64.43885  64.43885
           X            1.00000  -0.00000   0.00000
           Y            0.00000   1.00000   0.00000
           Z            0.00000   0.00000   1.00000
 This molecule is a prolate symmetric top.
 Rotational symmetry number  1.
 Rotational temperature (Kelvin)      1.34413
 Rotational constant (GHZ):          28.007037
    2 imaginary frequencies ignored.
 Zero-point vibrational energy       8084.4 (Joules/Mol)
                                    1.93222 (Kcal/Mol)
 Vibrational temperatures:    972.33   972.33
          (Kelvin)

 Zero-point correction=                           0.003079 (Hartree/Particle)
 Thermal correction to Energy=                    0.005685
 Thermal correction to Enthalpy=                  0.006629
 Thermal correction to Gibbs Free Energy=        -0.017051
 Sum of electronic and zero-point Energies=           -100.799122
 Sum of electronic and thermal Energies=              -100.796516
 Sum of electronic and thermal Enthalpies=            -100.795571
 Sum of electronic and thermal Free Energies=         -100.819252

                     E (Thermal)             CV                S
                      KCal/Mol        Cal/Mol-Kelvin    Cal/Mol-Kelvin
 Total                    3.568              6.721             49.839
 Electronic               0.000              0.000              1.377
 Translational            0.889              2.981             35.068
 Rotational               0.592              1.987             12.722
 Vibrational              2.086              1.753              0.672

 Normal termination of Gaussian 16 at Fri Aug 22 16:56:27 2025.
