 Gaussian 16, Revision C.01,
 Gaussian 16:  ES64L-G16RevC.01  3-Jul-2019

 -----------------------------------------
 # sp b3lyp/6-311g** Force nosymm scf=(qc)
 -----------------------------------------

 -------------------
 Title Card Required
 -------------------
 Symbolic Z-matrix:
 Charge =  0 Multiplicity = 2

                          Input orientation:
 ---------------------------------------------------------------------
 Center     Atomic      Atomic             Coordinates (Angstroms)
 Number     Number       Type             X           Y           Z
 ---------------------------------------------------------------------
      1          1           0        0.000000    0.000000    0.000000
      2          1           0       -0.950000    0.000000    0.000000
      3          9           0        2.900000    0.000000    0.000000
 ---------------------------------------------------------------------

 SCF Done:  E(UB3LYP) =  -100.914670115     a.u. after    7 cycles

 Alpha  occ. eigenvalues --  -24.76140  -1.22038  -0.55276  -0.46409  -0.46409
 Alpha  occ. eigenvalues --   -0.40078
 Alpha virt. eigenvalues --    0.01258   0.20894   0.40041   0.89808   0.90966
 Alpha virt. eigenvalues --    0.90966   1.05856   1.08238   1.08238   1.41102
 Alpha virt. eigenvalues --    1.68551   1.68551   2.22414   2.37281   2.64232

  Beta  occ. eigenvalues --  -24.73003  -1.13018  -0.43264  -0.43264  -0.40044
  Beta virt. eigenvalues --   -0.26170   0.01475   0.21050   0.40437   0.92454
  Beta virt. eigenvalues --    0.92454   0.98447   1.08297   1.08297   1.10207
  Beta virt. eigenvalues --    1.41170   1.68597   1.68597   2.22533   2.37357

 Mulliken charges and spin densities:
               1          2
     1  H   -0.010475  -0.005225
     2  H    0.011125   0.011544
     3  F   -0.000650   0.993681
 Sum of Mulliken charges =   0.00000   1.00000

 Dipole moment (field-independent basis, Debye):
    X=             -0.0697    Y=              0.0000    Z=              0.0000  Tot=              0.0697
 Quadrupole moment (field-independent basis, Debye-Ang):
   XX=             -5.5467   YY=             -7.2099   ZZ=             -7.2099
   XY=              0.0000   XZ=              0.0000   YZ=             -0.0000

  Exact polarizability:      15.036      -0.000       2.049       0.000      -0.000       2.049
 Approx polarizability:      17.754      -0.000       2.107      -0.000      -0.000       2.107

 ******    1 imaginary frequencies (negative Signs) ******

                      1                      2                      3
                      A                      A                      A
 Frequencies --    -94.8444              1505.7985              1505.7985
 Red. masses --      1.1085                 1.0098                 1.0098
 Frc consts  --      0.0059                 1.3490                 1.3490
 IR Inten    --      1.0081                 0.1200                 0.1200

                      4
                      A
 Frequencies --   2185.4237
 Red. masses --      1.0078
 Frc consts  --      2.8360
 IR Inten    --     11.8504

 - Thermochemistry -
 -------------------
 Temperature   298.150 Kelvin.  Pressure   1.00000 Atm.
 Atom     1 has atomic number  1 and mass   1.00783

 Molecular mass:    21.01405 amu.
 Principal axes and moments of inertia in atomic units:
                           1         2         3
     Eigenvalues --     0.00000  75.74956  75.74956
           X            1.00000  -0.00000   0.00000
           Y            0.00000   1.00000   0.00000
           Z            0.00000   0.00000   1.00000
 This molecule is a prolate symmetric top.
 Rotational symmetry number  1.
 Rotational temperature (Kelvin)      1.14342
 Rotational constant (GHZ):          23.825104
    1 imaginary frequencies ignored.
 Zero-point vibrational energy      31085.1 (Joules/Mol)
                                    7.42951 (Kcal/Mol)
 Vibrational temperatures:   2166.51  2166.51  3144.34
          (Kelvin)

 Zero-point correction=                           0.011840 (Hartree/Particle)
 Thermal correction to Energy=                    0.014210
 Thermal correction to Enthalpy=                  0.015154
 Thermal correction to Gibbs Free Energy=        -0.008371
 Sum of electronic and zero-point Energies=           -100.902830
 Sum of electronic and thermal Energies=              -100.900460
 Sum of electronic and thermal Enthalpies=            -100.899516
 Sum of electronic and thermal Free Energies=         -100.923041

                     E (Thermal)             CV                S
                      KCal/Mol        Cal/Mol-Kelvin    Cal/Mol-Kelvin
 Total                    8.917              5.121             49.512
 Electronic               0.000              0.000              1.377
 Translational            0.889              2.981             35.068
 Rotational               0.592              1.987             13.043
 Vibrational              7.436              0.153              0.024

 Normal termination of Gaussian 16 at Fri Aug 22 18:58:09 2025.
