 Gaussian 16, Revision C.01,
 Gaussian 16:  ES64L-G16RevC.01  3-Jul-2019

 -----------------------------------------
 # sp b3lyp/6-311g** Force nosymm scf=(qc)
 -----------------------------------------

 -------------------
 Title Card Required
 -------------------
 Symbolic Z-matrix:
 Charge =  0 Multiplicity = 2

                          Input orientation:
 ---------------------------------------------------------------------
 Center     Atomic      Atomic             Coordinates (Angstroms)
 Number     Number       Type             X           Y           Z
 ---------------------------------------------------------------------
      1          1           0        0.000000    0.000000    0.000000
      2          1           0       -2.800000    0.000000    0.000000
      3          9           0        0.750000    0.000000    0.000000
 ---------------------------------------------------------------------

 SCF Done:  E(UB3LYP) =  -100.922089218     a.u. after    6 cycles

 Alpha  occ. eigenvalues --  -24.63425  -1.25444  -0.57368  -0.41163  -0.41163
 Alpha  occ. eigenvalues --   -0.34138
 Alpha virt. eigenvalues --    0.06493   0.25505   0.49201   0.93953   0.93953
 Alpha virt. eigenvalues --    0.96487   1.21038   1.23399   1.23399   1.36459
 Alpha virt. eigenvalues --    1.41739   1.41739   2.00839   2.14579   2.67737

  Beta  occ. eigenvalues --  -24.63420  -1.25431  -0.57353  -0.41159  -0.41159
  Beta virt. eigenvalues --   -0.07193   0.07730   0.38635   0.49438   0.93952
  Beta virt. eigenvalues --    0.93952   0.96503   1.30485   1.41737   1.41737
  Beta virt. eigenvalues --    1.49053   1.49053   1.52035   2.00753   2.43687

 Mulliken charges and spin densities:
               1          2
     1  H    0.265516   0.002016
     2  H    0.002867   0.995950
     3  F   -0.268383   0.002034
 Sum of Mulliken charges =   0.00000   1.00000

 Dipole moment (field-independent basis, Debye):
    X=             -1.6974    Y=              0.0000    Z=             -0.0000  Tot=              1.6974
 Quadrupole moment (field-independent basis, Debye-Ang):
   XX=             -7.3284   YY=             -6.7145   ZZ=             -6.7145
   XY=              0.0000   XZ=             -0.0000   YZ=              0.0000

  Exact polarizability:       5.274       0.000       2.463      -0.000      -0.000       2.463
 Approx polarizability:       5.583      -0.000       2.446       0.000      -0.000       2.446

 ******    2 imaginary frequencies (negative Signs) ******

                      1                      2                      3
                      A                      A                      A
 Frequencies --  -2690.2782             -2690.2782                12.6041
 Red. masses --      1.0379                 1.0379                 1.0532
 Frc consts  --      4.4260                 4.4260                 0.0001
 IR Inten    --    196.5940               196.5940                 0.1772

                      4
                      A
 Frequencies --   7585.9935
 Red. masses --      1.0583
 Frc consts  --     35.8833
 IR Inten    --    116.7287

 - Thermochemistry -
 -------------------
 Temperature   298.150 Kelvin.  Pressure   1.00000 Atm.
 Atom     1 has atomic number  1 and mass   1.00783

 Molecular mass:    21.01405 amu.
 Principal axes and moments of inertia in atomic units:
                           1         2         3
     Eigenvalues --     0.00000  44.18945  44.18945
           X            1.00000  -0.00000   0.00000
           Y            0.00000   1.00000   0.00000
           Z            0.00000   0.00000   1.00000
 This molecule is a prolate symmetric top.
 Rotational symmetry number  1.
 Rotational temperature (Kelvin)      1.96006
 Rotational constant (GHZ):          40.841001
    2 imaginary frequencies ignored.
 Zero-point vibrational energy      45449.7 (Joules/Mol)
                                   10.86274 (Kcal/Mol)
 Warning -- explicit consideration of   1 degrees of freedom as
           vibrations may cause significant error
 Vibrational temperatures:     18.13 10914.55
          (Kelvin)

 Zero-point correction=                           0.017311 (Hartree/Particle)
 Thermal correction to Energy=                    0.020587
 Thermal correction to Enthalpy=                  0.021531
 Thermal correction to Gibbs Free Energy=        -0.005061
 Sum of electronic and zero-point Energies=           -100.904778
 Sum of electronic and thermal Energies=              -100.901502
 Sum of electronic and thermal Enthalpies=            -100.900558
 Sum of electronic and thermal Free Energies=         -100.927151

                     E (Thermal)             CV                S
                      KCal/Mol        Cal/Mol-Kelvin    Cal/Mol-Kelvin
 Total                   12.919              6.955             55.969
 Electronic               0.000              0.000              1.377
 Translational            0.889              2.981             35.068
 Rotational               0.592              1.987             11.972
 Vibrational             11.437              1.987              7.551
 Vibration     1          0.593              1.987              7.551

 Normal termination of Gaussian 16 at Fri Aug 22 15:49:16 2025.
