 Gaussian 16, Revision C.01,
 Gaussian 16:  ES64L-G16RevC.01  3-Jul-2019

 -----------------------------------------
 # sp b3lyp/6-311g** Force nosymm scf=(qc)
 -----------------------------------------

 -------------------
 Title Card Required
 -------------------
 Symbolic Z-matrix:
 Charge =  0 Multiplicity = 2

                          Input orientation:
 ---------------------------------------------------------------------
 Center     Atomic      Atomic             Coordinates (Angstroms)
 Number     Number       Type             X           Y           Z
 ---------------------------------------------------------------------
      1          1           0        0.000000    0.000000    0.000000
      2          1           0       -1.800000    0.000000    0.000000
      3          9           0        2.750000    0.000000    0.000000
 ---------------------------------------------------------------------

 SCF Done:  E(UB3LYP) =  -100.789533362     a.u. after   23 cycles

 Alpha  occ. eigenvalues --  -24.73561  -1.19653  -0.52685  -0.44234  -0.44234
 Alpha  occ. eigenvalues --   -0.34546
 Alpha virt. eigenvalues --   -0.12128   0.24933   0.31014   0.90169   0.92576
 Alpha virt. eigenvalues --    0.92576   1.04651   1.11144   1.23017   1.23017
 Alpha virt. eigenvalues --    1.35851   1.35851   1.59703   2.13315   2.39273

  Beta  occ. eigenvalues --  -24.70582  -1.11130  -0.41255  -0.41255  -0.34448
  Beta virt. eigenvalues --   -0.24650  -0.11583   0.26114   0.30947   0.94015
  Beta virt. eigenvalues --    0.94015   0.98138   1.07285   1.13241   1.23162
  Beta virt. eigenvalues --    1.23162   1.36553   1.36553   1.60328   2.14401

 Mulliken charges and spin densities:
               1          2
     1  H    0.022816  -0.684705
     2  H    0.026464   0.741681
     3  F   -0.049280   0.943024
 Sum of Mulliken charges =  -0.00000   1.00000

 Dipole moment (field-independent basis, Debye):
    X=             -0.9203    Y=              0.0000    Z=             -0.0000  Tot=              0.9203
 Quadrupole moment (field-independent basis, Debye-Ang):
   XX=             -7.3485   YY=             -7.7144   ZZ=             -7.7144
   XY=              0.0000   XZ=             -0.0000   YZ=              0.0000

  Exact polarizability:      63.395      -0.000       2.009       0.000      -0.000       2.009
 Approx polarizability:      69.905      -0.000       1.952       0.000      -0.000       1.952

 ******    2 imaginary frequencies (negative Signs) ******

                      1                      2                      3
                      A                      A                      A
 Frequencies --  -1743.3517              -298.0526               757.7977
 Red. masses --      1.0081                 1.1082                 1.0136
 Frc consts  --      1.8051                 0.0580                 0.3430
 IR Inten    --    119.4692                40.7295                 0.1156

                      4
                      A
 Frequencies --    757.7977
 Red. masses --      1.0136
 Frc consts  --      0.3430
 IR Inten    --      0.1156

 - Thermochemistry -
 -------------------
 Temperature   298.150 Kelvin.  Pressure   1.00000 Atm.
 Atom     1 has atomic number  1 and mass   1.00783

 Molecular mass:    21.01405 amu.
 Principal axes and moments of inertia in atomic units:
                           1         2         3
     Eigenvalues --     0.00000  92.52775  92.52775
           X            1.00000  -0.00000   0.00000
           Y            0.00000   1.00000   0.00000
           Z            0.00000   0.00000   1.00000
 This molecule is a prolate symmetric top.
 Rotational symmetry number  1.
 Rotational temperature (Kelvin)      0.93609
 Rotational constant (GHZ):          19.504863
    2 imaginary frequencies ignored.
 Zero-point vibrational energy       9065.3 (Joules/Mol)
                                    2.16665 (Kcal/Mol)
 Vibrational temperatures:   1090.30  1090.30
          (Kelvin)

 Zero-point correction=                           0.003453 (Hartree/Particle)
 Thermal correction to Energy=                    0.005996
 Thermal correction to Enthalpy=                  0.006940
 Thermal correction to Gibbs Free Energy=        -0.016994
 Sum of electronic and zero-point Energies=           -100.786081
 Sum of electronic and thermal Energies=              -100.783537
 Sum of electronic and thermal Enthalpies=            -100.782593
 Sum of electronic and thermal Free Energies=         -100.806528

                     E (Thermal)             CV                S
                      KCal/Mol        Cal/Mol-Kelvin    Cal/Mol-Kelvin
 Total                    3.763              6.414             50.375
 Electronic               0.000              0.000              1.377
 Translational            0.889              2.981             35.068
 Rotational               0.592              1.987             13.441
 Vibrational              2.281              1.446              0.489

 Normal termination of Gaussian 16 at Fri Aug 22 18:33:22 2025.
