 Gaussian 16, Revision C.01,
 Gaussian 16:  ES64L-G16RevC.01  3-Jul-2019

 -----------------------------------------
 # sp b3lyp/6-311g** Force nosymm scf=(qc)
 -----------------------------------------

 -------------------
 Title Card Required
 -------------------
 Symbolic Z-matrix:
 Charge =  0 Multiplicity = 2

                          Input orientation:
 ---------------------------------------------------------------------
 Center     Atomic      Atomic             Coordinates (Angstroms)
 Number     Number       Type             X           Y           Z
 ---------------------------------------------------------------------
      1          1           0        0.000000    0.000000    0.000000
      2          1           0       -2.050000    0.000000    0.000000
      3          9           0        1.400000    0.000000    0.000000
 ---------------------------------------------------------------------

 SCF Done:  E(UB3LYP) =  -100.881071009     a.u. after    8 cycles

 Alpha  occ. eigenvalues --  -24.63699  -1.10008  -0.44919  -0.36849  -0.36188
 Alpha  occ. eigenvalues --   -0.36188
 Alpha virt. eigenvalues --   -0.09501   0.23452   0.27199   0.93743   0.93743
 Alpha virt. eigenvalues --    1.03152   1.08433   1.20336   1.20336   1.33950
 Alpha virt. eigenvalues --    1.33950   1.35071   1.71779   2.10259   2.26728

  Beta  occ. eigenvalues --  -24.63352  -1.09103  -0.43499  -0.35862  -0.35862
  Beta virt. eigenvalues --   -0.16646  -0.05338   0.26496   0.33337   0.93672
  Beta virt. eigenvalues --    0.93672   1.04118   1.13033   1.32368   1.32368
  Beta virt. eigenvalues --    1.39111   1.39111   1.47672   1.72012   2.19238

 Mulliken charges and spin densities:
               1          2
     1  H    0.326814  -0.057992
     2  H    0.036467   0.950358
     3  F   -0.363281   0.107634
 Sum of Mulliken charges =   0.00000   1.00000

 Dipole moment (field-independent basis, Debye):
    X=             -2.8970    Y=             -0.0000    Z=             -0.0000  Tot=              2.8970
 Quadrupole moment (field-independent basis, Debye-Ang):
   XX=             -8.7225   YY=             -7.2374   ZZ=             -7.2374
   XY=             -0.0000   XZ=             -0.0000   YZ=             -0.0000

  Exact polarizability:      22.474       0.000       2.275      -0.000      -0.000       2.275
 Approx polarizability:      31.645       0.000       2.217       0.000      -0.000       2.217

 ******    2 imaginary frequencies (negative Signs) ******

                      1                      2                      3
                      A                      A                      A
 Frequencies --  -1435.1734              -301.8374              1057.2353
 Red. masses --      1.0360                 1.0763                 1.0232
 Frc consts  --      1.2572                 0.0578                 0.6738
 IR Inten    --    177.5929                 0.0094                86.3789

                      4
                      A
 Frequencies --   1057.2353
 Red. masses --      1.0232
 Frc consts  --      0.6738
 IR Inten    --     86.3789

 - Thermochemistry -
 -------------------
 Temperature   298.150 Kelvin.  Pressure   1.00000 Atm.
 Atom     1 has atomic number  1 and mass   1.00783

 Molecular mass:    21.01405 amu.
 Principal axes and moments of inertia in atomic units:
                           1         2         3
     Eigenvalues --     0.00000  45.83111  45.83111
           X            1.00000  -0.00000   0.00000
           Y            0.00000   1.00000   0.00000
           Z            0.00000   0.00000   1.00000
 This molecule is a prolate symmetric top.
 Rotational symmetry number  1.
 Rotational temperature (Kelvin)      1.88985
 Rotational constant (GHZ):          39.378082
    2 imaginary frequencies ignored.
 Zero-point vibrational energy      12647.3 (Joules/Mol)
                                    3.02279 (Kcal/Mol)
 Vibrational temperatures:   1521.13  1521.13
          (Kelvin)

 Zero-point correction=                           0.004817 (Hartree/Particle)
 Thermal correction to Energy=                    0.007237
 Thermal correction to Enthalpy=                  0.008181
 Thermal correction to Gibbs Free Energy=        -0.014929
 Sum of electronic and zero-point Energies=           -100.876254
 Sum of electronic and thermal Energies=              -100.873834
 Sum of electronic and thermal Enthalpies=            -100.872890
 Sum of electronic and thermal Free Energies=         -100.896000

                     E (Thermal)             CV                S
                      KCal/Mol        Cal/Mol-Kelvin    Cal/Mol-Kelvin
 Total                    4.541              5.605             48.638
 Electronic               0.000              0.000              1.377
 Translational            0.889              2.981             35.068
 Rotational               0.592              1.987             12.045
 Vibrational              3.060              0.637              0.148

 Normal termination of Gaussian 16 at Fri Aug 22 16:20:13 2025.
