 Gaussian 16, Revision C.01,
 Gaussian 16:  ES64L-G16RevC.01  3-Jul-2019

 -----------------------------------------
 # sp b3lyp/6-311g** Force nosymm scf=(qc)
 -----------------------------------------

 -------------------
 Title Card Required
 -------------------
 Symbolic Z-matrix:
 Charge =  0 Multiplicity = 2

                          Input orientation:
 ---------------------------------------------------------------------
 Center     Atomic      Atomic             Coordinates (Angstroms)
 Number     Number       Type             X           Y           Z
 ---------------------------------------------------------------------
      1          1           0        0.000000    0.000000    0.000000
      2          1           0       -3.750000    0.000000    0.000000
      3          9           0        2.600000    0.000000    0.000000
 ---------------------------------------------------------------------

 SCF Done:  E(UB3LYP) =  -100.765413853     a.u. after   20 cycles

 Alpha  occ. eigenvalues --  -24.72293  -1.18477  -0.51403  -0.43175  -0.43175
 Alpha  occ. eigenvalues --   -0.32731
 Alpha virt. eigenvalues --   -0.09617   0.23537   0.35571   0.89852   0.93314
 Alpha virt. eigenvalues --    0.93314   1.05963   1.24771   1.24771   1.24828
 Alpha virt. eigenvalues --    1.41391   1.41391   1.44256   2.14286   2.38136

  Beta  occ. eigenvalues --  -24.69403  -1.10234  -0.40290  -0.40290  -0.34964
  Beta virt. eigenvalues --   -0.23695  -0.06312   0.23807   0.38075   0.94714
  Beta virt. eigenvalues --    0.94714   0.97004   1.08630   1.22402   1.22402
  Beta virt. eigenvalues --    1.27227   1.46203   1.46425   1.46425   2.13006

 Mulliken charges and spin densities:
               1          2
     1  H    0.076494  -0.913024
     2  H    0.000413   0.998890
     3  F   -0.076908   0.914135
 Sum of Mulliken charges =  -0.00000   1.00000

 Dipole moment (field-independent basis, Debye):
    X=             -1.0277    Y=              0.0000    Z=              0.0000  Tot=              1.0277
 Quadrupole moment (field-independent basis, Debye-Ang):
   XX=             -9.1468   YY=             -7.5789   ZZ=             -7.5789
   XY=              0.0000   XZ=              0.0000   YZ=             -0.0000

  Exact polarizability:      30.870       0.000       2.025      -0.000      -0.000       2.025
 Approx polarizability:      37.947       0.000       1.921       0.000       0.000       1.921

 ******    2 imaginary frequencies (negative Signs) ******

                      1                      2                      3
                      A                      A                      A
 Frequencies --   -552.7649               -91.2629               211.3273
 Red. masses --      1.0554                 1.0562                 1.0229
 Frc consts  --      0.1900                 0.0052                 0.0269
 IR Inten    --     71.7962                 0.1077                 5.6647

                      4
                      A
 Frequencies --    211.3273
 Red. masses --      1.0229
 Frc consts  --      0.0269
 IR Inten    --      5.6647

 - Thermochemistry -
 -------------------
 Temperature   298.150 Kelvin.  Pressure   1.00000 Atm.
 Atom     1 has atomic number  1 and mass   1.00783

 Molecular mass:    21.01405 amu.
 Principal axes and moments of inertia in atomic units:
                           1         2         3
     Eigenvalues --     0.00000 155.62407 155.62407
           X            1.00000  -0.00000   0.00000
           Y            0.00000   1.00000   0.00000
           Z            0.00000   0.00000   1.00000
 This molecule is a prolate symmetric top.
 Rotational symmetry number  1.
 Rotational temperature (Kelvin)      0.55656
 Rotational constant (GHZ):          11.596800
    2 imaginary frequencies ignored.
 Zero-point vibrational energy       2528.0 (Joules/Mol)
                                    0.60422 (Kcal/Mol)
 Warning -- explicit consideration of   2 degrees of freedom as
           vibrations may cause significant error
 Vibrational temperatures:    304.05   304.05
          (Kelvin)

 Zero-point correction=                           0.000963 (Hartree/Particle)
 Thermal correction to Energy=                    0.004410
 Thermal correction to Enthalpy=                  0.005354
 Thermal correction to Gibbs Free Energy=        -0.020771
 Sum of electronic and zero-point Energies=           -100.764451
 Sum of electronic and thermal Energies=              -100.761004
 Sum of electronic and thermal Enthalpies=            -100.760060
 Sum of electronic and thermal Free Energies=         -100.786185

                     E (Thermal)             CV                S
                      KCal/Mol        Cal/Mol-Kelvin    Cal/Mol-Kelvin
 Total                    2.767              8.615             54.984
 Electronic               0.000              0.000              1.377
 Translational            0.889              2.981             35.068
 Rotational               0.592              1.987             14.474
 Vibrational              1.286              3.647              4.064
 Vibration     1          0.643              1.824              2.032
 Vibration     2          0.643              1.824              2.032

 Normal termination of Gaussian 16 at Fri Aug 22 18:05:26 2025.
