 Gaussian 16, Revision C.01,
 Gaussian 16:  ES64L-G16RevC.01  3-Jul-2019

 -----------------------------------------
 # sp b3lyp/6-311g** Force nosymm scf=(qc)
 -----------------------------------------

 -------------------
 Title Card Required
 -------------------
 Symbolic Z-matrix:
 Charge =  0 Multiplicity = 2

                          Input orientation:
 ---------------------------------------------------------------------
 Center     Atomic      Atomic             Coordinates (Angstroms)
 Number     Number       Type             X           Y           Z
 ---------------------------------------------------------------------
      1          1           0        0.000000    0.000000    0.000000
      2          1           0       -2.850000    0.000000    0.000000
      3          9           0        3.950000    0.000000    0.000000
 ---------------------------------------------------------------------

 SCF Done:  E(UB3LYP) =  -100.760064837     a.u. after   59 cycles

 Alpha  occ. eigenvalues --  -24.75870  -1.21798  -0.54995  -0.46175  -0.46175
 Alpha  occ. eigenvalues --   -0.32385
 Alpha virt. eigenvalues --   -0.08086   0.25310   0.36018   0.86617   0.91175
 Alpha virt. eigenvalues --    0.91175   1.01107   1.25171   1.25171   1.26174
 Alpha virt. eigenvalues --    1.43776   1.43776   1.43994   2.15987   2.38946

  Beta  occ. eigenvalues --  -24.72725  -1.12756  -0.43023  -0.43023  -0.32558
  Beta virt. eigenvalues --   -0.25731  -0.07866   0.25153   0.36305   0.92673
  Beta virt. eigenvalues --    0.92673   0.95989   1.05232   1.24983   1.24983
  Beta virt. eigenvalues --    1.25967   1.44101   1.44101   1.44319   2.16031

 Mulliken charges and spin densities:
               1          2
     1  H    0.002324  -0.985520
     2  H    0.000397   0.988584
     3  F   -0.002721   0.996936
 Sum of Mulliken charges =   0.00000   1.00000

 Dipole moment (field-independent basis, Debye):
    X=             -0.0610    Y=              0.0000    Z=             -0.0000  Tot=              0.0610
 Quadrupole moment (field-independent basis, Debye-Ang):
   XX=             -6.8283   YY=             -7.6431   ZZ=             -7.6431
   XY=              0.0000   XZ=             -0.0000   YZ=             -0.0000

  Exact polarizability:      15.438       0.000       2.028      -0.000       0.000       2.028
 Approx polarizability:      11.603       0.000       1.933      -0.000       0.000       1.933

 ******    2 imaginary frequencies (negative Signs) ******

                      1                      2                      3
                      A                      A                      A
 Frequencies --   -407.1916               -77.1863               146.1071
 Red. masses --      1.0080                 1.1083                 1.0145
 Frc consts  --      0.0985                 0.0039                 0.0128
 IR Inten    --      0.7263                 0.7428                 0.0044

                      4
                      A
 Frequencies --    146.1071
 Red. masses --      1.0145
 Frc consts  --      0.0128
 IR Inten    --      0.0044

 - Thermochemistry -
 -------------------
 Temperature   298.150 Kelvin.  Pressure   1.00000 Atm.
 Atom     1 has atomic number  1 and mass   1.00783

 Molecular mass:    21.01405 amu.
 Principal axes and moments of inertia in atomic units:
                           1         2         3
     Eigenvalues --     0.00000 202.62480 202.62480
           X            1.00000  -0.00000   0.00000
           Y            0.00000   1.00000   0.00000
           Z            0.00000   0.00000   1.00000
 This molecule is a prolate symmetric top.
 Rotational symmetry number  1.
 Rotational temperature (Kelvin)      0.42746
 Rotational constant (GHZ):           8.906813
    2 imaginary frequencies ignored.
 Zero-point vibrational energy       1747.8 (Joules/Mol)
                                    0.41774 (Kcal/Mol)
 Warning -- explicit consideration of   2 degrees of freedom as
           vibrations may cause significant error
 Vibrational temperatures:    210.22   210.22
          (Kelvin)

 Zero-point correction=                           0.000666 (Hartree/Particle)
 Thermal correction to Energy=                    0.004326
 Thermal correction to Enthalpy=                  0.005271
 Thermal correction to Gibbs Free Energy=        -0.021759
 Sum of electronic and zero-point Energies=           -100.759399
 Sum of electronic and thermal Energies=              -100.755738
 Sum of electronic and thermal Enthalpies=            -100.754794
 Sum of electronic and thermal Free Energies=         -100.781824

                     E (Thermal)             CV                S
                      KCal/Mol        Cal/Mol-Kelvin    Cal/Mol-Kelvin
 Total                    2.715              8.782             56.888
 Electronic               0.000              0.000              1.377
 Translational            0.889              2.981             35.068
 Rotational               0.592              1.987             14.998
 Vibrational              1.234              3.814              5.445
 Vibration     1          0.617              1.907              2.722
 Vibration     2          0.617              1.907              2.722

 Normal termination of Gaussian 16 at Sat Aug 23 01:40:24 2025.
