 Gaussian 16, Revision C.01,
 Gaussian 16:  ES64L-G16RevC.01  3-Jul-2019

 -----------------------------------------
 # sp b3lyp/6-311g** Force nosymm scf=(qc)
 -----------------------------------------

 -------------------
 Title Card Required
 -------------------
 Symbolic Z-matrix:
 Charge =  0 Multiplicity = 2

                          Input orientation:
 ---------------------------------------------------------------------
 Center     Atomic      Atomic             Coordinates (Angstroms)
 Number     Number       Type             X           Y           Z
 ---------------------------------------------------------------------
      1          1           0        0.000000    0.000000    0.000000
      2          1           0       -1.750000    0.000000    0.000000
      3          9           0        2.150000    0.000000    0.000000
 ---------------------------------------------------------------------

 SCF Done:  E(UB3LYP) =  -100.805811073     a.u. after   13 cycles

 Alpha  occ. eigenvalues --  -24.69855  -1.16162  -0.49031  -0.41123  -0.41123
 Alpha  occ. eigenvalues --   -0.36630
 Alpha virt. eigenvalues --   -0.12667   0.23608   0.31155   0.86117   0.94362
 Alpha virt. eigenvalues --    0.94362   1.03238   1.20618   1.20618   1.24098
 Alpha virt. eigenvalues --    1.34616   1.34616   1.64517   2.13391   2.37446

  Beta  occ. eigenvalues --  -24.67227  -1.08746  -0.38518  -0.38518  -0.36534
  Beta virt. eigenvalues --   -0.22857  -0.11504   0.26077   0.30608   0.89960
  Beta virt. eigenvalues --    0.95468   0.95468   1.07171   1.21974   1.21974
  Beta virt. eigenvalues --    1.29332   1.35559   1.35559   1.64864   2.14182

 Mulliken charges and spin densities:
               1          2
     1  H    0.086641  -0.573336
     2  H    0.051832   0.746021
     3  F   -0.138472   0.827315
 Sum of Mulliken charges =   0.00000   1.00000

 Dipole moment (field-independent basis, Debye):
    X=             -1.9286    Y=              0.0000    Z=             -0.0000  Tot=              1.9286
 Quadrupole moment (field-independent basis, Debye-Ang):
   XX=             -8.1086   YY=             -7.6023   ZZ=             -7.6023
   XY=              0.0000   XZ=             -0.0000   YZ=              0.0000

  Exact polarizability:      57.001       0.000       2.050      -0.000       0.000       2.050
 Approx polarizability:      74.649      -0.000       1.981       0.000      -0.000       1.981

 ******    2 imaginary frequencies (negative Signs) ******

                      1                      2                      3
                      A                      A                      A
 Frequencies --  -1877.1318              -510.4584               812.4016
 Red. masses --      1.0107                 1.1050                 1.0156
 Frc consts  --      2.0984                 0.1696                 0.3949
 IR Inten    --    267.7036                42.7486                 3.1139

                      4
                      A
 Frequencies --    812.4016
 Red. masses --      1.0156
 Frc consts  --      0.3949
 IR Inten    --      3.1139

 - Thermochemistry -
 -------------------
 Temperature   298.150 Kelvin.  Pressure   1.00000 Atm.
 Atom     1 has atomic number  1 and mass   1.00783

 Molecular mass:    21.01405 amu.
 Principal axes and moments of inertia in atomic units:
                           1         2         3
     Eigenvalues --     0.00000  65.05949  65.05949
           X            1.00000  -0.00000   0.00000
           Y            0.00000   1.00000   0.00000
           Z            0.00000   0.00000   1.00000
 This molecule is a prolate symmetric top.
 Rotational symmetry number  1.
 Rotational temperature (Kelvin)      1.33130
 Rotational constant (GHZ):          27.739860
    2 imaginary frequencies ignored.
 Zero-point vibrational energy       9718.5 (Joules/Mol)
                                    2.32277 (Kcal/Mol)
 Vibrational temperatures:   1168.86  1168.86
          (Kelvin)

 Zero-point correction=                           0.003702 (Hartree/Particle)
 Thermal correction to Energy=                    0.006212
 Thermal correction to Enthalpy=                  0.007156
 Thermal correction to Gibbs Free Energy=        -0.016402
 Sum of electronic and zero-point Energies=           -100.802109
 Sum of electronic and thermal Energies=              -100.799599
 Sum of electronic and thermal Enthalpies=            -100.798655
 Sum of electronic and thermal Free Energies=         -100.822213

                     E (Thermal)             CV                S
                      KCal/Mol        Cal/Mol-Kelvin    Cal/Mol-Kelvin
 Total                    3.898              6.229             49.581
 Electronic               0.000              0.000              1.377
 Translational            0.889              2.981             35.068
 Rotational               0.592              1.987             12.741
 Vibrational              2.417              1.261              0.395

 Normal termination of Gaussian 16 at Fri Aug 22 17:07:25 2025.
