 Gaussian 16, Revision C.01,
 Gaussian 16:  ES64L-G16RevC.01  3-Jul-2019

 -----------------------------------------
 # sp b3lyp/6-311g** Force nosymm scf=(qc)
 -----------------------------------------

 -------------------
 Title Card Required
 -------------------
 Symbolic Z-matrix:
 Charge =  0 Multiplicity = 2

                          Input orientation:
 ---------------------------------------------------------------------
 Center     Atomic      Atomic             Coordinates (Angstroms)
 Number     Number       Type             X           Y           Z
 ---------------------------------------------------------------------
      1          1           0        0.000000    0.000000    0.000000
      2          1           0       -0.700000    0.000000    0.000000
      3          9           0        1.000000    0.000000    0.000000
 ---------------------------------------------------------------------

 SCF Done:  E(UB3LYP) =  -100.920182160     a.u. after    7 cycles

 Alpha  occ. eigenvalues --  -24.66969  -1.20352  -0.63841  -0.41539  -0.41539
 Alpha  occ. eigenvalues --   -0.35280
 Alpha virt. eigenvalues --    0.13870   0.18330   0.58859   0.87149   0.87149
 Alpha virt. eigenvalues --    0.94995   1.10399   1.10399   1.46200   1.73004
 Alpha virt. eigenvalues --    1.79207   1.79207   1.98437   2.43394   3.79375

  Beta  occ. eigenvalues --  -24.65360  -1.16277  -0.56218  -0.40084  -0.40084
  Beta virt. eigenvalues --   -0.17565   0.15943   0.19567   0.64009   0.89081
  Beta virt. eigenvalues --    0.89081   0.98237   1.14590   1.14590   1.48381
  Beta virt. eigenvalues --    1.81005   1.83281   1.83281   1.99430   2.50321

 Mulliken charges and spin densities:
               1          2
     1  H    0.278934  -0.017400
     2  H   -0.039371   0.611509
     3  F   -0.239563   0.405891
 Sum of Mulliken charges =   0.00000   1.00000

 Dipole moment (field-independent basis, Debye):
    X=             -1.4664    Y=              0.0000    Z=             -0.0000  Tot=              1.4664
 Quadrupole moment (field-independent basis, Debye-Ang):
   XX=             -7.4322   YY=             -6.5137   ZZ=             -6.5137
   XY=              0.0000   XZ=             -0.0000   YZ=             -0.0000

  Exact polarizability:      13.183      -0.000       2.522       0.000       0.000       2.522
 Approx polarizability:      15.720      -0.000       2.581      -0.000       0.000       2.581

 ******    2 imaginary frequencies (negative Signs) ******

                      1                      2                      3
                      A                      A                      A
 Frequencies --  -2330.4893             -2330.4893              2161.5079
 Red. masses --      1.0142                 1.0142                 1.1085
 Frc consts  --      3.2454                 3.2454                 3.0514
 IR Inten    --     30.5237                30.5237                20.4072

                      4
                      A
 Frequencies --   4628.0647
 Red. masses --      1.0078
 Frc consts  --     12.7185
 IR Inten    --    130.1153

 - Thermochemistry -
 -------------------
 Temperature   298.150 Kelvin.  Pressure   1.00000 Atm.
 Atom     1 has atomic number  1 and mass   1.00783

 Molecular mass:    21.01405 amu.
 Principal axes and moments of inertia in atomic units:
                           1         2         3
     Eigenvalues --     0.00000  12.74184  12.74184
           X            1.00000  -0.00000   0.00000
           Y            0.00000   1.00000   0.00000
           Z            0.00000   0.00000   1.00000
 This molecule is a prolate symmetric top.
 Rotational symmetry number  1.
 Rotational temperature (Kelvin)      6.79760
 Rotational constant (GHZ):         141.638992
    2 imaginary frequencies ignored.
 Zero-point vibrational energy      40610.7 (Joules/Mol)
                                    9.70618 (Kcal/Mol)
 Vibrational temperatures:   3109.93  6658.75
          (Kelvin)

 Zero-point correction=                           0.015468 (Hartree/Particle)
 Thermal correction to Energy=                    0.017829
 Thermal correction to Enthalpy=                  0.018773
 Thermal correction to Gibbs Free Energy=        -0.003058
 Sum of electronic and zero-point Energies=           -100.904714
 Sum of electronic and thermal Energies=              -100.902354
 Sum of electronic and thermal Enthalpies=            -100.901409
 Sum of electronic and thermal Free Energies=         -100.923240

                     E (Thermal)             CV                S
                      KCal/Mol        Cal/Mol-Kelvin    Cal/Mol-Kelvin
 Total                   11.188              4.974             45.947
 Electronic               0.000              0.000              1.377
 Translational            0.889              2.981             35.068
 Rotational               0.592              1.987              9.501
 Vibrational              9.706              0.006              0.001

 Normal termination of Gaussian 16 at Fri Aug 22 15:59:38 2025.
