 Gaussian 16, Revision C.01,
 Gaussian 16:  ES64L-G16RevC.01  3-Jul-2019

 -----------------------------------------
 # sp b3lyp/6-311g** Force nosymm scf=(qc)
 -----------------------------------------

 -------------------
 Title Card Required
 -------------------
 Symbolic Z-matrix:
 Charge =  0 Multiplicity = 2

                          Input orientation:
 ---------------------------------------------------------------------
 Center     Atomic      Atomic             Coordinates (Angstroms)
 Number     Number       Type             X           Y           Z
 ---------------------------------------------------------------------
      1          1           0        0.000000    0.000000    0.000000
      2          1           0       -1.900000    0.000000    0.000000
      3          9           0        2.200000    0.000000    0.000000
 ---------------------------------------------------------------------

 SCF Done:  E(UB3LYP) =  -100.794846517     a.u. after   14 cycles

 Alpha  occ. eigenvalues --  -24.69909  -1.16204  -0.49023  -0.41157  -0.41157
 Alpha  occ. eigenvalues --   -0.36031
 Alpha virt. eigenvalues --   -0.13144   0.24116   0.31461   0.87563   0.94454
 Alpha virt. eigenvalues --    0.94454   1.04376   1.21808   1.21808   1.24533
 Alpha virt. eigenvalues --    1.34155   1.34155   1.56471   2.11313   2.34494

  Beta  occ. eigenvalues --  -24.67261  -1.08727  -0.38530  -0.38530  -0.36324
  Beta virt. eigenvalues --   -0.22586  -0.11846   0.26479   0.31220   0.91721
  Beta virt. eigenvalues --    0.95596   0.95596   1.07859   1.22531   1.22531
  Beta virt. eigenvalues --    1.30728   1.35782   1.35782   1.55899   2.12015

 Mulliken charges and spin densities:
               1          2
     1  H    0.091527  -0.667750
     2  H    0.043589   0.833880
     3  F   -0.135116   0.833869
 Sum of Mulliken charges =   0.00000   1.00000

 Dipole moment (field-independent basis, Debye):
    X=             -1.8923    Y=             -0.0000    Z=              0.0000  Tot=              1.8923
 Quadrupole moment (field-independent basis, Debye-Ang):
   XX=             -8.3601   YY=             -7.6104   ZZ=             -7.6104
   XY=             -0.0000   XZ=              0.0000   YZ=              0.0000

  Exact polarizability:      56.326      -0.000       2.034       0.000       0.000       2.034
 Approx polarizability:      67.427       0.000       1.953      -0.000      -0.000       1.953

 ******    2 imaginary frequencies (negative Signs) ******

                      1                      2                      3
                      A                      A                      A
 Frequencies --  -1616.7955              -504.5330               671.8405
 Red. masses --      1.0114                 1.1042                 1.0163
 Frc consts  --      1.5577                 0.1656                 0.2703
 IR Inten    --    141.9917                48.4512                 4.3732

                      4
                      A
 Frequencies --    671.8405
 Red. masses --      1.0163
 Frc consts  --      0.2703
 IR Inten    --      4.3732

 - Thermochemistry -
 -------------------
 Temperature   298.150 Kelvin.  Pressure   1.00000 Atm.
 Atom     1 has atomic number  1 and mass   1.00783

 Molecular mass:    21.01405 amu.
 Principal axes and moments of inertia in atomic units:
                           1         2         3
     Eigenvalues --     0.00000  71.06777  71.06777
           X            1.00000  -0.00000   0.00000
           Y            0.00000   1.00000   0.00000
           Z            0.00000   0.00000   1.00000
 This molecule is a prolate symmetric top.
 Rotational symmetry number  1.
 Rotational temperature (Kelvin)      1.21875
 Rotational constant (GHZ):          25.394652
    2 imaginary frequencies ignored.
 Zero-point vibrational energy       8037.0 (Joules/Mol)
                                    1.92089 (Kcal/Mol)
 Vibrational temperatures:    966.63   966.63
          (Kelvin)

 Zero-point correction=                           0.003061 (Hartree/Particle)
 Thermal correction to Energy=                    0.005671
 Thermal correction to Enthalpy=                  0.006615
 Thermal correction to Gibbs Free Energy=        -0.017163
 Sum of electronic and zero-point Energies=           -100.791785
 Sum of electronic and thermal Energies=              -100.789176
 Sum of electronic and thermal Enthalpies=            -100.788232
 Sum of electronic and thermal Free Energies=         -100.812009

                     E (Thermal)             CV                S
                      KCal/Mol        Cal/Mol-Kelvin    Cal/Mol-Kelvin
 Total                    3.558              6.736             50.044
 Electronic               0.000              0.000              1.377
 Translational            0.889              2.981             35.068
 Rotational               0.592              1.987             12.916
 Vibrational              2.077              1.768              0.683

 Normal termination of Gaussian 16 at Fri Aug 22 17:11:35 2025.
