 Gaussian 16, Revision C.01,
 Gaussian 16:  ES64L-G16RevC.01  3-Jul-2019

 -----------------------------------------
 # sp b3lyp/6-311g** Force nosymm scf=(qc)
 -----------------------------------------

 -------------------
 Title Card Required
 -------------------
 Symbolic Z-matrix:
 Charge =  0 Multiplicity = 2

                          Input orientation:
 ---------------------------------------------------------------------
 Center     Atomic      Atomic             Coordinates (Angstroms)
 Number     Number       Type             X           Y           Z
 ---------------------------------------------------------------------
      1          1           0        0.000000    0.000000    0.000000
      2          1           0       -3.750000    0.000000    0.000000
      3          9           0        3.300000    0.000000    0.000000
 ---------------------------------------------------------------------

 SCF Done:  E(UB3LYP) =  -100.759464971     a.u. after   22 cycles

 Alpha  occ. eigenvalues --  -24.74972  -1.20967  -0.54094  -0.45418  -0.45418
 Alpha  occ. eigenvalues --   -0.32368
 Alpha virt. eigenvalues --   -0.06999   0.24066   0.36782   0.88272   0.91737
 Alpha virt. eigenvalues --    0.91737   1.02449   1.25131   1.25131   1.25189
 Alpha virt. eigenvalues --    1.45343   1.45343   1.45667   2.14657   2.41609

  Beta  occ. eigenvalues --  -24.71885  -1.12103  -0.42325  -0.42325  -0.33105
  Beta virt. eigenvalues --   -0.25264  -0.06135   0.23825   0.38114   0.93217
  Beta virt. eigenvalues --    0.93217   0.97262   1.06365   1.24282   1.24282
  Beta virt. eigenvalues --    1.24348   1.46329   1.46513   1.46513   2.14908

 Mulliken charges and spin densities:
               1          2
     1  H    0.019251  -0.977630
     2  H    0.000139   0.998868
     3  F   -0.019390   0.978762
 Sum of Mulliken charges =  -0.00000   1.00000

 Dipole moment (field-independent basis, Debye):
    X=             -0.3314    Y=              0.0000    Z=             -0.0000  Tot=              0.3314
 Quadrupole moment (field-independent basis, Debye-Ang):
   XX=             -7.7481   YY=             -7.6157   ZZ=             -7.6157
   XY=              0.0000   XZ=             -0.0000   YZ=              0.0000

  Exact polarizability:      27.614       0.000       2.031      -0.000      -0.000       2.031
 Approx polarizability:      24.106       0.000       1.931      -0.000      -0.000       1.931

 ******    2 imaginary frequencies (negative Signs) ******

                      1                      2                      3
                      A                      A                      A
 Frequencies --   -274.7794               -88.3995                86.3028
 Red. masses --      1.0455                 1.0663                 1.0196
 Frc consts  --      0.0465                 0.0049                 0.0045
 IR Inten    --     20.7358                 0.3616                 0.3441

                      4
                      A
 Frequencies --     86.3028
 Red. masses --      1.0196
 Frc consts  --      0.0045
 IR Inten    --      0.3441

 - Thermochemistry -
 -------------------
 Temperature   298.150 Kelvin.  Pressure   1.00000 Atm.
 Atom     1 has atomic number  1 and mass   1.00783

 Molecular mass:    21.01405 amu.
 Principal axes and moments of inertia in atomic units:
                           1         2         3
     Eigenvalues --     0.00000 199.58284 199.58284
           X            1.00000  -0.00000   0.00000
           Y            0.00000   1.00000   0.00000
           Z            0.00000   0.00000   1.00000
 This molecule is a prolate symmetric top.
 Rotational symmetry number  1.
 Rotational temperature (Kelvin)      0.43397
 Rotational constant (GHZ):           9.042567
    2 imaginary frequencies ignored.
 Zero-point vibrational energy       1032.4 (Joules/Mol)
                                    0.24675 (Kcal/Mol)
 Warning -- explicit consideration of   2 degrees of freedom as
           vibrations may cause significant error
 Vibrational temperatures:    124.17   124.17
          (Kelvin)

 Zero-point correction=                           0.000393 (Hartree/Particle)
 Thermal correction to Energy=                    0.004276
 Thermal correction to Enthalpy=                  0.005220
 Thermal correction to Gibbs Free Energy=        -0.022764
 Sum of electronic and zero-point Energies=           -100.759072
 Sum of electronic and thermal Energies=              -100.755189
 Sum of electronic and thermal Enthalpies=            -100.754245
 Sum of electronic and thermal Free Energies=         -100.782229

                     E (Thermal)             CV                S
                      KCal/Mol        Cal/Mol-Kelvin    Cal/Mol-Kelvin
 Total                    2.683              8.885             58.898
 Electronic               0.000              0.000              1.377
 Translational            0.889              2.981             35.068
 Rotational               0.592              1.987             14.968
 Vibrational              1.202              3.917              7.484
 Vibration     1          0.601              1.959              3.742
 Vibration     2          0.601              1.959              3.742

 Normal termination of Gaussian 16 at Fri Aug 22 20:50:21 2025.
