 Gaussian 16, Revision C.01,
 Gaussian 16:  ES64L-G16RevC.01  3-Jul-2019

 -----------------------------------------
 # sp b3lyp/6-311g** Force nosymm scf=(qc)
 -----------------------------------------

 -------------------
 Title Card Required
 -------------------
 Symbolic Z-matrix:
 Charge =  0 Multiplicity = 2

                          Input orientation:
 ---------------------------------------------------------------------
 Center     Atomic      Atomic             Coordinates (Angstroms)
 Number     Number       Type             X           Y           Z
 ---------------------------------------------------------------------
      1          1           0        0.000000    0.000000    0.000000
      2          1           0       -3.600000    0.000000    0.000000
      3          9           0        3.300000    0.000000    0.000000
 ---------------------------------------------------------------------

 SCF Done:  E(UB3LYP) =  -100.759555400     a.u. after   23 cycles

 Alpha  occ. eigenvalues --  -24.74975  -1.20969  -0.54097  -0.45421  -0.45421
 Alpha  occ. eigenvalues --   -0.32389
 Alpha virt. eigenvalues --   -0.07198   0.24135   0.36708   0.88281   0.91735
 Alpha virt. eigenvalues --    0.91735   1.02453   1.25113   1.25113   1.25219
 Alpha virt. eigenvalues --    1.45047   1.45047   1.45267   2.14825   2.41304

  Beta  occ. eigenvalues --  -24.71888  -1.12105  -0.42328  -0.42328  -0.33111
  Beta virt. eigenvalues --   -0.25267  -0.06348   0.23908   0.38011   0.93216
  Beta virt. eigenvalues --    0.93216   0.97272   1.06371   1.24280   1.24280
  Beta virt. eigenvalues --    1.24390   1.46062   1.46287   1.46287   2.15103

 Mulliken charges and spin densities:
               1          2
     1  H    0.019135  -0.977165
     2  H    0.000207   0.998365
     3  F   -0.019342   0.978800
 Sum of Mulliken charges =  -0.00000   1.00000

 Dipole moment (field-independent basis, Debye):
    X=             -0.3316    Y=              0.0000    Z=              0.0000  Tot=              0.3316
 Quadrupole moment (field-independent basis, Debye-Ang):
   XX=             -7.7351   YY=             -7.6174   ZZ=             -7.6174
   XY=              0.0000   XZ=              0.0000   YZ=              0.0000

  Exact polarizability:      27.948       0.000       2.031       0.000       0.000       2.031
 Approx polarizability:      24.316       0.000       1.931       0.000       0.000       1.931

 ******    2 imaginary frequencies (negative Signs) ******

                      1                      2                      3
                      A                      A                      A
 Frequencies --   -282.7749              -102.0059                90.5751
 Red. masses --      1.0408                 1.0712                 1.0190
 Frc consts  --      0.0490                 0.0066                 0.0049
 IR Inten    --     20.4370                 0.6953                 0.3364

                      4
                      A
 Frequencies --     90.5751
 Red. masses --      1.0190
 Frc consts  --      0.0049
 IR Inten    --      0.3364

 - Thermochemistry -
 -------------------
 Temperature   298.150 Kelvin.  Pressure   1.00000 Atm.
 Atom     1 has atomic number  1 and mass   1.00783

 Molecular mass:    21.01405 amu.
 Principal axes and moments of inertia in atomic units:
                           1         2         3
     Eigenvalues --     0.00000 192.58398 192.58398
           X            1.00000  -0.00000   0.00000
           Y            0.00000   1.00000   0.00000
           Z            0.00000   0.00000   1.00000
 This molecule is a prolate symmetric top.
 Rotational symmetry number  1.
 Rotational temperature (Kelvin)      0.44975
 Rotational constant (GHZ):           9.371191
    2 imaginary frequencies ignored.
 Zero-point vibrational energy       1083.5 (Joules/Mol)
                                    0.25897 (Kcal/Mol)
 Warning -- explicit consideration of   2 degrees of freedom as
           vibrations may cause significant error
 Vibrational temperatures:    130.32   130.32
          (Kelvin)

 Zero-point correction=                           0.000413 (Hartree/Particle)
 Thermal correction to Energy=                    0.004279
 Thermal correction to Enthalpy=                  0.005223
 Thermal correction to Gibbs Free Energy=        -0.022638
 Sum of electronic and zero-point Energies=           -100.759143
 Sum of electronic and thermal Energies=              -100.755277
 Sum of electronic and thermal Enthalpies=            -100.754332
 Sum of electronic and thermal Free Energies=         -100.782193

                     E (Thermal)             CV                S
                      KCal/Mol        Cal/Mol-Kelvin    Cal/Mol-Kelvin
 Total                    2.685              8.880             58.638
 Electronic               0.000              0.000              1.377
 Translational            0.889              2.981             35.068
 Rotational               0.592              1.987             14.897
 Vibrational              1.204              3.912              7.295
 Vibration     1          0.602              1.956              3.648
 Vibration     2          0.602              1.956              3.648

 Normal termination of Gaussian 16 at Fri Aug 22 20:50:11 2025.
