 Gaussian 16, Revision C.01,
 Gaussian 16:  ES64L-G16RevC.01  3-Jul-2019

 -----------------------------------------
 # sp b3lyp/6-311g** Force nosymm scf=(qc)
 -----------------------------------------

 -------------------
 Title Card Required
 -------------------
 Symbolic Z-matrix:
 Charge =  0 Multiplicity = 2

                          Input orientation:
 ---------------------------------------------------------------------
 Center     Atomic      Atomic             Coordinates (Angstroms)
 Number     Number       Type             X           Y           Z
 ---------------------------------------------------------------------
      1          1           0        0.000000    0.000000    0.000000
      2          1           0       -1.850000    0.000000    0.000000
      3          9           0        1.950000    0.000000    0.000000
 ---------------------------------------------------------------------

 SCF Done:  E(UB3LYP) =  -100.809860454     a.u. after   12 cycles

 Alpha  occ. eigenvalues --  -24.67903  -1.14251  -0.47094  -0.39472  -0.39472
 Alpha  occ. eigenvalues --   -0.37088
 Alpha virt. eigenvalues --   -0.13018   0.23436   0.30531   0.87076   0.94883
 Alpha virt. eigenvalues --    0.94883   1.03963   1.20605   1.20605   1.28769
 Alpha virt. eigenvalues --    1.34076   1.34076   1.65516   2.12323   2.33690

  Beta  occ. eigenvalues --  -24.65560  -1.07711  -0.37618  -0.37165  -0.37165
  Beta virt. eigenvalues --   -0.21677  -0.11290   0.25954   0.30774   0.89868
  Beta virt. eigenvalues --    0.95546   0.95546   1.07872   1.23191   1.23191
  Beta virt. eigenvalues --    1.35288   1.35288   1.36707   1.64703   2.13267

 Mulliken charges and spin densities:
               1          2
     1  H    0.141141  -0.566029
     2  H    0.054226   0.830126
     3  F   -0.195367   0.735903
 Sum of Mulliken charges =   0.00000   1.00000

 Dipole moment (field-independent basis, Debye):
    X=             -2.3688    Y=             -0.0000    Z=              0.0000  Tot=              2.3688
 Quadrupole moment (field-independent basis, Debye-Ang):
   XX=             -8.5051   YY=             -7.5347   ZZ=             -7.5347
   XY=             -0.0000   XZ=              0.0000   YZ=              0.0000

  Exact polarizability:      50.744       0.000       2.081      -0.000      -0.000       2.081
 Approx polarizability:      64.929       0.000       1.996      -0.000      -0.000       1.996

 ******    2 imaginary frequencies (negative Signs) ******

                      1                      2                      3
                      A                      A                      A
 Frequencies --  -1811.4994              -596.7730               752.3685
 Red. masses --      1.0169                 1.0977                 1.0173
 Frc consts  --      1.9661                 0.2303                 0.3393
 IR Inten    --    196.9965                28.8501                10.7983

                      4
                      A
 Frequencies --    752.3685
 Red. masses --      1.0173
 Frc consts  --      0.3393
 IR Inten    --     10.7983

 - Thermochemistry -
 -------------------
 Temperature   298.150 Kelvin.  Pressure   1.00000 Atm.
 Atom     1 has atomic number  1 and mass   1.00783

 Molecular mass:    21.01405 amu.
 Principal axes and moments of inertia in atomic units:
                           1         2         3
     Eigenvalues --     0.00000  59.94810  59.94810
           X            1.00000  -0.00000   0.00000
           Y            0.00000   1.00000   0.00000
           Z            0.00000   0.00000   1.00000
 This molecule is a prolate symmetric top.
 Rotational symmetry number  1.
 Rotational temperature (Kelvin)      1.44482
 Rotational constant (GHZ):          30.105062
    2 imaginary frequencies ignored.
 Zero-point vibrational energy       9000.3 (Joules/Mol)
                                    2.15113 (Kcal/Mol)
 Vibrational temperatures:   1082.49  1082.49
          (Kelvin)

 Zero-point correction=                           0.003428 (Hartree/Particle)
 Thermal correction to Energy=                    0.005975
 Thermal correction to Enthalpy=                  0.006919
 Thermal correction to Gibbs Free Energy=        -0.016611
 Sum of electronic and zero-point Energies=           -100.806432
 Sum of electronic and thermal Energies=              -100.803885
 Sum of electronic and thermal Enthalpies=            -100.802941
 Sum of electronic and thermal Free Energies=         -100.826471

                     E (Thermal)             CV                S
                      KCal/Mol        Cal/Mol-Kelvin    Cal/Mol-Kelvin
 Total                    3.749              6.433             49.523
 Electronic               0.000              0.000              1.377
 Translational            0.889              2.981             35.068
 Rotational               0.592              1.987             12.578
 Vibrational              2.268              1.465              0.500

 Normal termination of Gaussian 16 at Fri Aug 22 16:53:11 2025.
