 Gaussian 16, Revision C.01,
 Gaussian 16:  ES64L-G16RevC.01  3-Jul-2019

 -----------------------------------------
 # sp b3lyp/6-311g** Force nosymm scf=(qc)
 -----------------------------------------

 -------------------
 Title Card Required
 -------------------
 Symbolic Z-matrix:
 Charge =  0 Multiplicity = 2

                          Input orientation:
 ---------------------------------------------------------------------
 Center     Atomic      Atomic             Coordinates (Angstroms)
 Number     Number       Type             X           Y           Z
 ---------------------------------------------------------------------
      1          1           0        0.000000    0.000000    0.000000
      2          1           0       -4.000000    0.000000    0.000000
      3          9           0        2.700000    0.000000    0.000000
 ---------------------------------------------------------------------

 SCF Done:  E(UB3LYP) =  -100.763784503     a.u. after   19 cycles

 Alpha  occ. eigenvalues --  -24.72803  -1.18954  -0.51917  -0.43602  -0.43602
 Alpha  occ. eigenvalues --   -0.32603
 Alpha virt. eigenvalues --   -0.08990   0.23679   0.35775   0.89898   0.93028
 Alpha virt. eigenvalues --    0.93028   1.05524   1.24895   1.24895   1.24908
 Alpha virt. eigenvalues --    1.42142   1.42142   1.44581   2.14183   2.39448

  Beta  occ. eigenvalues --  -24.69871  -1.10578  -0.40673  -0.40673  -0.34602
  Beta virt. eigenvalues --   -0.24013  -0.05962   0.23786   0.38119   0.94451
  Beta virt. eigenvalues --    0.94451   0.97669   1.08562   1.22718   1.22718
  Beta virt. eigenvalues --    1.25552   1.46624   1.46746   1.46746   2.13270

 Mulliken charges and spin densities:
               1          2
     1  H    0.064798  -0.927427
     2  H    0.000188   0.999401
     3  F   -0.064985   0.928026
 Sum of Mulliken charges =  -0.00000   1.00000

 Dipole moment (field-independent basis, Debye):
    X=             -0.9010    Y=              0.0000    Z=              0.0000  Tot=              0.9010
 Quadrupole moment (field-independent basis, Debye-Ang):
   XX=             -8.9693   YY=             -7.5860   ZZ=             -7.5860
   XY=              0.0000   XZ=              0.0000   YZ=             -0.0000

  Exact polarizability:      30.926       0.000       2.025       0.000      -0.000       2.025
 Approx polarizability:      36.767       0.000       1.922       0.000       0.000       1.922

 ******    2 imaginary frequencies (negative Signs) ******

                      1                      2                      3
                      A                      A                      A
 Frequencies --   -495.6993               -69.1478               185.0514
 Red. masses --      1.0563                 1.0553                 1.0233
 Frc consts  --      0.1529                 0.0030                 0.0206
 IR Inten    --     63.2553                 0.0403                 4.1100

                      4
                      A
 Frequencies --    185.0514
 Red. masses --      1.0233
 Frc consts  --      0.0206
 IR Inten    --      4.1100

 - Thermochemistry -
 -------------------
 Temperature   298.150 Kelvin.  Pressure   1.00000 Atm.
 Atom     1 has atomic number  1 and mass   1.00783

 Molecular mass:    21.01405 amu.
 Principal axes and moments of inertia in atomic units:
                           1         2         3
     Eigenvalues --     0.00000 172.54472 172.54472
           X            1.00000  -0.00000   0.00000
           Y            0.00000   1.00000   0.00000
           Z            0.00000   0.00000   1.00000
 This molecule is a prolate symmetric top.
 Rotational symmetry number  1.
 Rotational temperature (Kelvin)      0.50198
 Rotational constant (GHZ):          10.459556
    2 imaginary frequencies ignored.
 Zero-point vibrational energy       2213.7 (Joules/Mol)
                                    0.52909 (Kcal/Mol)
 Warning -- explicit consideration of   2 degrees of freedom as
           vibrations may cause significant error
 Vibrational temperatures:    266.25   266.25
          (Kelvin)

 Zero-point correction=                           0.000843 (Hartree/Particle)
 Thermal correction to Energy=                    0.004373
 Thermal correction to Enthalpy=                  0.005317
 Thermal correction to Gibbs Free Energy=        -0.021138
 Sum of electronic and zero-point Energies=           -100.762941
 Sum of electronic and thermal Energies=              -100.759412
 Sum of electronic and thermal Enthalpies=            -100.758468
 Sum of electronic and thermal Free Energies=         -100.784922

                     E (Thermal)             CV                S
                      KCal/Mol        Cal/Mol-Kelvin    Cal/Mol-Kelvin
 Total                    2.744              8.689             55.678
 Electronic               0.000              0.000              1.377
 Translational            0.889              2.981             35.068
 Rotational               0.592              1.987             14.679
 Vibrational              1.263              3.720              4.554
 Vibration     1          0.631              1.860              2.277
 Vibration     2          0.631              1.860              2.277

 Normal termination of Gaussian 16 at Fri Aug 22 18:27:22 2025.
