 Gaussian 16, Revision C.01,
 Gaussian 16:  ES64L-G16RevC.01  3-Jul-2019

 -----------------------------------------
 # sp b3lyp/6-311g** Force nosymm scf=(qc)
 -----------------------------------------

 -------------------
 Title Card Required
 -------------------
 Symbolic Z-matrix:
 Charge =  0 Multiplicity = 2

                          Input orientation:
 ---------------------------------------------------------------------
 Center     Atomic      Atomic             Coordinates (Angstroms)
 Number     Number       Type             X           Y           Z
 ---------------------------------------------------------------------
      1          1           0        0.000000    0.000000    0.000000
      2          1           0       -0.950000    0.000000    0.000000
      3          9           0        2.250000    0.000000    0.000000
 ---------------------------------------------------------------------

 SCF Done:  E(UB3LYP) =  -100.916085752     a.u. after    7 cycles

 Alpha  occ. eigenvalues --  -24.75100  -1.21108  -0.54485  -0.45558  -0.45558
 Alpha  occ. eigenvalues --   -0.40969
 Alpha virt. eigenvalues --    0.01699   0.21107   0.40431   0.89383   0.91254
 Alpha virt. eigenvalues --    0.91254   1.07375   1.07375   1.11549   1.44689
 Alpha virt. eigenvalues --    1.67673   1.67673   2.20601   2.36407   2.64148

  Beta  occ. eigenvalues --  -24.72049  -1.12382  -0.42510  -0.42510  -0.40854
  Beta virt. eigenvalues --   -0.25853   0.02443   0.21536   0.40807   0.92677
  Beta virt. eigenvalues --    0.92677   0.97537   1.07822   1.07822   1.15181
  Beta virt. eigenvalues --    1.45851   1.67978   1.67978   2.21188   2.36827

 Mulliken charges and spin densities:
               1          2
     1  H   -0.002644  -0.027205
     2  H    0.028472   0.065663
     3  F   -0.025829   0.961542
 Sum of Mulliken charges =  -0.00000   1.00000

 Dipole moment (field-independent basis, Debye):
    X=             -0.4150    Y=              0.0000    Z=              0.0000  Tot=              0.4150
 Quadrupole moment (field-independent basis, Debye-Ang):
   XX=             -6.0187   YY=             -7.1830   ZZ=             -7.1830
   XY=              0.0000   XZ=              0.0000   YZ=             -0.0000

  Exact polarizability:      24.292       0.000       2.125      -0.000      -0.000       2.125
 Approx polarizability:      28.202      -0.000       2.147      -0.000       0.000       2.147

 ******    1 imaginary frequencies (negative Signs) ******

                      1                      2                      3
                      A                      A                      A
 Frequencies --   -259.1329              1421.0303              1421.0303
 Red. masses --      1.1083                 1.0108                 1.0108
 Frc consts  --      0.0438                 1.2026                 1.2026
 IR Inten    --     30.2488                 0.0129                 0.0129

                      4
                      A
 Frequencies --   2096.1404
 Red. masses --      1.0080
 Frc consts  --      2.6094
 IR Inten    --    232.6183

 - Thermochemistry -
 -------------------
 Temperature   298.150 Kelvin.  Pressure   1.00000 Atm.
 Atom     1 has atomic number  1 and mass   1.00783

 Molecular mass:    21.01405 amu.
 Principal axes and moments of inertia in atomic units:
                           1         2         3
     Eigenvalues --     0.00000  49.94697  49.94697
           X            1.00000  -0.00000   0.00000
           Y            0.00000   1.00000   0.00000
           Z            0.00000   0.00000   1.00000
 This molecule is a prolate symmetric top.
 Rotational symmetry number  1.
 Rotational temperature (Kelvin)      1.73412
 Rotational constant (GHZ):          36.133146
    1 imaginary frequencies ignored.
 Zero-point vibrational energy      29537.0 (Joules/Mol)
                                    7.05951 (Kcal/Mol)
 Vibrational temperatures:   2044.55  2044.55  3015.88
          (Kelvin)

 Zero-point correction=                           0.011250 (Hartree/Particle)
 Thermal correction to Energy=                    0.013625
 Thermal correction to Enthalpy=                  0.014569
 Thermal correction to Gibbs Free Energy=        -0.008568
 Sum of electronic and zero-point Energies=           -100.904836
 Sum of electronic and thermal Energies=              -100.902461
 Sum of electronic and thermal Enthalpies=            -100.901517
 Sum of electronic and thermal Free Energies=         -100.924653

                     E (Thermal)             CV                S
                      KCal/Mol        Cal/Mol-Kelvin    Cal/Mol-Kelvin
 Total                    8.550              5.173             48.695
 Electronic               0.000              0.000              1.377
 Translational            0.889              2.981             35.068
 Rotational               0.592              1.987             12.216
 Vibrational              7.068              0.205              0.034

 Normal termination of Gaussian 16 at Fri Aug 22 17:15:26 2025.
