 Gaussian 16, Revision C.01,
 Gaussian 16:  ES64L-G16RevC.01  3-Jul-2019

 -----------------------------------------
 # sp b3lyp/6-311g** Force nosymm scf=(qc)
 -----------------------------------------

 -------------------
 Title Card Required
 -------------------
 Symbolic Z-matrix:
 Charge =  0 Multiplicity = 2

                          Input orientation:
 ---------------------------------------------------------------------
 Center     Atomic      Atomic             Coordinates (Angstroms)
 Number     Number       Type             X           Y           Z
 ---------------------------------------------------------------------
      1          1           0        0.000000    0.000000    0.000000
      2          1           0       -3.050000    0.000000    0.000000
      3          9           0        0.950000    0.000000    0.000000
 ---------------------------------------------------------------------

 SCF Done:  E(UB3LYP) =  -100.971115625     a.u. after    6 cycles

 Alpha  occ. eigenvalues --  -24.64080  -1.17419  -0.52725  -0.39190  -0.39190
 Alpha  occ. eigenvalues --   -0.34095
 Alpha virt. eigenvalues --    0.02182   0.24906   0.36627   0.94244   0.94244
 Alpha virt. eigenvalues --    0.98156   1.22835   1.23433   1.23433   1.31625
 Alpha virt. eigenvalues --    1.36503   1.36503   1.96259   2.14503   2.35079

  Beta  occ. eigenvalues --  -24.64075  -1.17407  -0.52710  -0.39186  -0.39186
  Beta virt. eigenvalues --   -0.07089   0.03291   0.36530   0.38707   0.94245
  Beta virt. eigenvalues --    0.94245   0.98151   1.30124   1.36500   1.36500
  Beta virt. eigenvalues --    1.48997   1.48997   1.49781   1.96383   2.35029

 Mulliken charges and spin densities:
               1          2
     1  H    0.306612   0.001289
     2  H    0.002296   0.997031
     3  F   -0.308908   0.001680
 Sum of Mulliken charges =   0.00000   1.00000

 Dipole moment (field-independent basis, Debye):
    X=             -1.9877    Y=             -0.0000    Z=             -0.0000  Tot=              1.9877
 Quadrupole moment (field-independent basis, Debye-Ang):
   XX=             -7.9849   YY=             -6.9155   ZZ=             -6.9155
   XY=             -0.0000   XZ=             -0.0000   YZ=             -0.0000

  Exact polarizability:       6.781       0.000       2.422      -0.000      -0.000       2.422
 Approx polarizability:       7.874       0.000       2.399      -0.000       0.000       2.399

 ******    1 imaginary frequencies (negative Signs) ******

                      1                      2                      3
                      A                      A                      A
 Frequencies --    -65.7497               671.3600               671.3600
 Red. masses --      1.0532                 1.0356                 1.0356
 Frc consts  --      0.0027                 0.2750                 0.2750
 IR Inten    --      0.1826               170.7330               170.7330

                      4
                      A
 Frequencies --   3677.7336
 Red. masses --      1.0584
 Frc consts  --      8.4343
 IR Inten    --    103.0881

 - Thermochemistry -
 -------------------
 Temperature   298.150 Kelvin.  Pressure   1.00000 Atm.
 Atom     1 has atomic number  1 and mass   1.00783

 Molecular mass:    21.01405 amu.
 Principal axes and moments of inertia in atomic units:
                           1         2         3
     Eigenvalues --     0.00000  56.60294  56.60294
           X            1.00000  -0.00000   0.00000
           Y            0.00000   1.00000   0.00000
           Z            0.00000   0.00000   1.00000
 This molecule is a prolate symmetric top.
 Rotational symmetry number  1.
 Rotational temperature (Kelvin)      1.53020
 Rotational constant (GHZ):          31.884230
    1 imaginary frequencies ignored.
 Zero-point vibrational energy      30029.0 (Joules/Mol)
                                    7.17710 (Kcal/Mol)
 Vibrational temperatures:    965.94   965.94  5291.44
          (Kelvin)

 Zero-point correction=                           0.011437 (Hartree/Particle)
 Thermal correction to Energy=                    0.014047
 Thermal correction to Enthalpy=                  0.014992
 Thermal correction to Gibbs Free Energy=        -0.008572
 Sum of electronic and zero-point Energies=           -100.959678
 Sum of electronic and thermal Energies=              -100.957068
 Sum of electronic and thermal Enthalpies=            -100.956124
 Sum of electronic and thermal Free Energies=         -100.979688

                     E (Thermal)             CV                S
                      KCal/Mol        Cal/Mol-Kelvin    Cal/Mol-Kelvin
 Total                    8.815              6.738             49.593
 Electronic               0.000              0.000              1.377
 Translational            0.889              2.981             35.068
 Rotational               0.592              1.987             12.464
 Vibrational              7.334              1.770              0.684

 Normal termination of Gaussian 16 at Fri Aug 22 15:58:51 2025.
