 Gaussian 16, Revision C.01,
 Gaussian 16:  ES64L-G16RevC.01  3-Jul-2019

 -----------------------------------------
 # sp b3lyp/6-311g** Force nosymm scf=(qc)
 -----------------------------------------

 -------------------
 Title Card Required
 -------------------
 Symbolic Z-matrix:
 Charge =  0 Multiplicity = 2

                          Input orientation:
 ---------------------------------------------------------------------
 Center     Atomic      Atomic             Coordinates (Angstroms)
 Number     Number       Type             X           Y           Z
 ---------------------------------------------------------------------
      1          1           0        0.000000    0.000000    0.000000
      2          1           0       -3.450000    0.000000    0.000000
      3          9           0        3.700000    0.000000    0.000000
 ---------------------------------------------------------------------

 SCF Done:  E(UB3LYP) =  -100.758896677     a.u. after   30 cycles

 Alpha  occ. eigenvalues --  -24.75659  -1.21602  -0.54783  -0.45996  -0.45996
 Alpha  occ. eigenvalues --   -0.32303
 Alpha virt. eigenvalues --   -0.06893   0.24391   0.37277   0.87062   0.91310
 Alpha virt. eigenvalues --    0.91310   1.01404   1.25203   1.25203   1.25383
 Alpha virt. eigenvalues --    1.45250   1.45466   1.45466   2.15133   2.41052

  Beta  occ. eigenvalues --  -24.72527  -1.12600  -0.42857  -0.42857  -0.32630
  Beta virt. eigenvalues --   -0.25622  -0.06539   0.24186   0.37877   0.92805
  Beta virt. eigenvalues --    0.92805   0.96318   1.05476   1.24835   1.24835
  Beta virt. eigenvalues --    1.24996   1.45800   1.46032   1.46032   2.15228

 Mulliken charges and spin densities:
               1          2
     1  H    0.006322  -0.990448
     2  H    0.000137   0.997585
     3  F   -0.006459   0.992863
 Sum of Mulliken charges =  -0.00000   1.00000

 Dipole moment (field-independent basis, Debye):
    X=             -0.1255    Y=              0.0000    Z=              0.0000  Tot=              0.1255
 Quadrupole moment (field-independent basis, Debye-Ang):
   XX=             -7.1366   YY=             -7.6240   ZZ=             -7.6240
   XY=              0.0000   XZ=              0.0000   YZ=              0.0000

  Exact polarizability:      18.309      -0.000       2.021      -0.000       0.000       2.021
 Approx polarizability:      13.675       0.000       1.935       0.000      -0.000       1.935

 ******    2 imaginary frequencies (negative Signs) ******

                      1                      2                      3
                      A                      A                      A
 Frequencies --   -224.1707               -93.5398                78.1228
 Red. masses --      1.0167                 1.0980                 1.0171
 Frc consts  --      0.0301                 0.0057                 0.0037
 IR Inten    --      4.0791                 1.2017                 0.0435

                      4
                      A
 Frequencies --     78.1232
 Red. masses --      1.0171
 Frc consts  --      0.0037
 IR Inten    --      0.0435

 - Thermochemistry -
 -------------------
 Temperature   298.150 Kelvin.  Pressure   1.00000 Atm.
 Atom     1 has atomic number  1 and mass   1.00783

 Molecular mass:    21.01405 amu.
 Principal axes and moments of inertia in atomic units:
                           1         2         3
     Eigenvalues --     0.00000 212.94102 212.94102
           X            1.00000  -0.00000   0.00000
           Y            0.00000   1.00000   0.00000
           Z            0.00000   0.00000   1.00000
 This molecule is a prolate symmetric top.
 Rotational symmetry number  1.
 Rotational temperature (Kelvin)      0.40675
 Rotational constant (GHZ):           8.475310
    2 imaginary frequencies ignored.
 Zero-point vibrational energy        934.6 (Joules/Mol)
                                    0.22336 (Kcal/Mol)
 Warning -- explicit consideration of   2 degrees of freedom as
           vibrations may cause significant error
 Vibrational temperatures:    112.40   112.40
          (Kelvin)

 Zero-point correction=                           0.000356 (Hartree/Particle)
 Thermal correction to Energy=                    0.004271
 Thermal correction to Enthalpy=                  0.005215
 Thermal correction to Gibbs Free Energy=        -0.023016
 Sum of electronic and zero-point Energies=           -100.758541
 Sum of electronic and thermal Energies=              -100.754626
 Sum of electronic and thermal Enthalpies=            -100.753681
 Sum of electronic and thermal Free Energies=         -100.781913

                     E (Thermal)             CV                S
                      KCal/Mol        Cal/Mol-Kelvin    Cal/Mol-Kelvin
 Total                    2.680              8.896             59.417
 Electronic               0.000              0.000              1.377
 Translational            0.889              2.981             35.068
 Rotational               0.592              1.987             15.097
 Vibrational              1.199              3.928              7.875
 Vibration     1          0.599              1.964              3.937
 Vibration     2          0.599              1.964              3.937

 Normal termination of Gaussian 16 at Sat Aug 23 00:04:49 2025.
