 Gaussian 16, Revision C.01,
 Gaussian 16:  ES64L-G16RevC.01  3-Jul-2019

 -----------------------------------------
 # sp b3lyp/6-311g** Force nosymm scf=(qc)
 -----------------------------------------

 -------------------
 Title Card Required
 -------------------
 Symbolic Z-matrix:
 Charge =  0 Multiplicity = 2

                          Input orientation:
 ---------------------------------------------------------------------
 Center     Atomic      Atomic             Coordinates (Angstroms)
 Number     Number       Type             X           Y           Z
 ---------------------------------------------------------------------
      1          1           0        0.000000    0.000000    0.000000
      2          1           0       -2.100000    0.000000    0.000000
      3          9           0        1.450000    0.000000    0.000000
 ---------------------------------------------------------------------

 SCF Done:  E(UB3LYP) =  -100.869615793     a.u. after    9 cycles

 Alpha  occ. eigenvalues --  -24.63775  -1.09827  -0.44310  -0.36791  -0.36116
 Alpha  occ. eigenvalues --   -0.36116
 Alpha virt. eigenvalues --   -0.10966   0.23461   0.27058   0.93901   0.93901
 Alpha virt. eigenvalues --    1.03248   1.08041   1.20465   1.20465   1.31995
 Alpha virt. eigenvalues --    1.33425   1.33425   1.72918   2.10001   2.25122

  Beta  occ. eigenvalues --  -24.63350  -1.08711  -0.42766  -0.35715  -0.35715
  Beta virt. eigenvalues --   -0.16999  -0.06579   0.26149   0.33460   0.93792
  Beta virt. eigenvalues --    0.93792   1.04470   1.11348   1.31606   1.31606
  Beta virt. eigenvalues --    1.39099   1.39099   1.45800   1.72862   2.17729

 Mulliken charges and spin densities:
               1          2
     1  H    0.322481  -0.083748
     2  H    0.036498   0.951174
     3  F   -0.358979   0.132574
 Sum of Mulliken charges =   0.00000   1.00000

 Dipole moment (field-independent basis, Debye):
    X=             -2.9425    Y=              0.0000    Z=              0.0000  Tot=              2.9425
 Quadrupole moment (field-independent basis, Debye-Ang):
   XX=             -8.8680   YY=             -7.2754   ZZ=             -7.2754
   XY=              0.0000   XZ=              0.0000   YZ=              0.0000

  Exact polarizability:      24.266      -0.000       2.246       0.000      -0.000       2.246
 Approx polarizability:      35.061      -0.000       2.182      -0.000       0.000       2.182

 ******    2 imaginary frequencies (negative Signs) ******

                      1                      2                      3
                      A                      A                      A
 Frequencies --  -1552.9227              -329.4038              1022.1365
 Red. masses --      1.0382                 1.0739                 1.0230
 Frc consts  --      1.4751                 0.0687                 0.6297
 IR Inten    --    131.0968                 0.4802                83.0840

                      4
                      A
 Frequencies --   1022.1365
 Red. masses --      1.0230
 Frc consts  --      0.6297
 IR Inten    --     83.0840

 - Thermochemistry -
 -------------------
 Temperature   298.150 Kelvin.  Pressure   1.00000 Atm.
 Atom     1 has atomic number  1 and mass   1.00783

 Molecular mass:    21.01405 amu.
 Principal axes and moments of inertia in atomic units:
                           1         2         3
     Eigenvalues --     0.00000  48.60825  48.60825
           X            1.00000  -0.00000   0.00000
           Y            0.00000   1.00000   0.00000
           Z            0.00000   0.00000   1.00000
 This molecule is a prolate symmetric top.
 Rotational symmetry number  1.
 Rotational temperature (Kelvin)      1.78188
 Rotational constant (GHZ):          37.128292
    2 imaginary frequencies ignored.
 Zero-point vibrational energy      12227.5 (Joules/Mol)
                                    2.92243 (Kcal/Mol)
 Vibrational temperatures:   1470.63  1470.63
          (Kelvin)

 Zero-point correction=                           0.004657 (Hartree/Particle)
 Thermal correction to Energy=                    0.007085
 Thermal correction to Enthalpy=                  0.008029
 Thermal correction to Gibbs Free Energy=        -0.015147
 Sum of electronic and zero-point Energies=           -100.864959
 Sum of electronic and thermal Energies=              -100.862531
 Sum of electronic and thermal Enthalpies=            -100.861586
 Sum of electronic and thermal Free Energies=         -100.884762

                     E (Thermal)             CV                S
                      KCal/Mol        Cal/Mol-Kelvin    Cal/Mol-Kelvin
 Total                    4.446              5.675             48.778
 Electronic               0.000              0.000              1.377
 Translational            0.889              2.981             35.068
 Rotational               0.592              1.987             12.162
 Vibrational              2.965              0.707              0.171

 Normal termination of Gaussian 16 at Fri Aug 22 16:22:53 2025.
