 Gaussian 16, Revision C.01,
 Gaussian 16:  ES64L-G16RevC.01  3-Jul-2019

 -----------------------------------------
 # sp b3lyp/6-311g** Force nosymm scf=(qc)
 -----------------------------------------

 -------------------
 Title Card Required
 -------------------
 Symbolic Z-matrix:
 Charge =  0 Multiplicity = 2

                          Input orientation:
 ---------------------------------------------------------------------
 Center     Atomic      Atomic             Coordinates (Angstroms)
 Number     Number       Type             X           Y           Z
 ---------------------------------------------------------------------
      1          1           0        0.000000    0.000000    0.000000
      2          1           0       -2.600000    0.000000    0.000000
      3          9           0        1.200000    0.000000    0.000000
 ---------------------------------------------------------------------

 SCF Done:  E(UB3LYP) =  -100.926130997     a.u. after    6 cycles

 Alpha  occ. eigenvalues --  -24.64183  -1.12147  -0.47690  -0.37387  -0.37387
 Alpha  occ. eigenvalues --   -0.35103
 Alpha virt. eigenvalues --   -0.05029   0.24367   0.28435   0.93314   0.93314
 Alpha virt. eigenvalues --    1.00896   1.21182   1.22433   1.22433   1.31005
 Alpha virt. eigenvalues --    1.34791   1.34791   1.73964   2.13632   2.29372

  Beta  occ. eigenvalues --  -24.64147  -1.12056  -0.47545  -0.37354  -0.37354
  Beta virt. eigenvalues --   -0.11025  -0.02582   0.28184   0.36721   0.93313
  Beta virt. eigenvalues --    0.93313   1.00977   1.27265   1.34712   1.34712
  Beta virt. eigenvalues --    1.43986   1.43986   1.45513   1.74298   2.29127

 Mulliken charges and spin densities:
               1          2
     1  H    0.347260  -0.000482
     2  H    0.008616   0.989304
     3  F   -0.355877   0.011178
 Sum of Mulliken charges =  -0.00000   1.00000

 Dipole moment (field-independent basis, Debye):
    X=             -2.3949    Y=              0.0000    Z=              0.0000  Tot=              2.3949
 Quadrupole moment (field-independent basis, Debye-Ang):
   XX=             -8.5839   YY=             -7.1245   ZZ=             -7.1245
   XY=              0.0000   XZ=              0.0000   YZ=             -0.0000

  Exact polarizability:      12.263      -0.000       2.343      -0.000      -0.000       2.343
 Approx polarizability:      15.926      -0.000       2.301      -0.000      -0.000       2.301

 ******    1 imaginary frequencies (negative Signs) ******

                      1                      2                      3
                      A                      A                      A
 Frequencies --   -163.6311               955.6947              1184.0136
 Red. masses --      1.0475                 1.0642                 1.0294
 Frc consts  --      0.0165                 0.5727                 0.8502
 IR Inten    --      3.8937               109.9705               133.3756

                      4
                      A
 Frequencies --   1184.0136
 Red. masses --      1.0294
 Frc consts  --      0.8502
 IR Inten    --    133.3756

 - Thermochemistry -
 -------------------
 Temperature   298.150 Kelvin.  Pressure   1.00000 Atm.
 Atom     1 has atomic number  1 and mass   1.00783

 Molecular mass:    21.01405 amu.
 Principal axes and moments of inertia in atomic units:
                           1         2         3
     Eigenvalues --     0.00000  52.83708  52.83708
           X            1.00000  -0.00000   0.00000
           Y            0.00000   1.00000   0.00000
           Z            0.00000   0.00000   1.00000
 This molecule is a prolate symmetric top.
 Rotational symmetry number  1.
 Rotational temperature (Kelvin)      1.63926
 Rotational constant (GHZ):          34.156716
    1 imaginary frequencies ignored.
 Zero-point vibrational energy      19880.3 (Joules/Mol)
                                    4.75150 (Kcal/Mol)
 Vibrational temperatures:   1375.03  1703.53  1703.53
          (Kelvin)

 Zero-point correction=                           0.007572 (Hartree/Particle)
 Thermal correction to Energy=                    0.010012
 Thermal correction to Enthalpy=                  0.010956
 Thermal correction to Gibbs Free Energy=        -0.012313
 Sum of electronic and zero-point Energies=           -100.918559
 Sum of electronic and thermal Energies=              -100.916119
 Sum of electronic and thermal Enthalpies=            -100.915175
 Sum of electronic and thermal Free Energies=         -100.938444

                     E (Thermal)             CV                S
                      KCal/Mol        Cal/Mol-Kelvin    Cal/Mol-Kelvin
 Total                    6.283              5.827             48.973
 Electronic               0.000              0.000              1.377
 Translational            0.889              2.981             35.068
 Rotational               0.592              1.987             12.327
 Vibrational              4.801              0.859              0.200

 Normal termination of Gaussian 16 at Fri Aug 22 16:10:34 2025.
