 Gaussian 16, Revision C.01,
 Gaussian 16:  ES64L-G16RevC.01  3-Jul-2019

 -----------------------------------------
 # sp b3lyp/6-311g** Force nosymm scf=(qc)
 -----------------------------------------

 -------------------
 Title Card Required
 -------------------
 Symbolic Z-matrix:
 Charge =  0 Multiplicity = 2

                          Input orientation:
 ---------------------------------------------------------------------
 Center     Atomic      Atomic             Coordinates (Angstroms)
 Number     Number       Type             X           Y           Z
 ---------------------------------------------------------------------
      1          1           0        0.000000    0.000000    0.000000
      2          1           0       -0.950000    0.000000    0.000000
      3          9           0        2.450000    0.000000    0.000000
 ---------------------------------------------------------------------

 SCF Done:  E(UB3LYP) =  -100.915330012     a.u. after    8 cycles

 Alpha  occ. eigenvalues --  -24.75662  -1.21607  -0.54902  -0.46014  -0.46014
 Alpha  occ. eigenvalues --   -0.40568
 Alpha virt. eigenvalues --    0.01497   0.21075   0.40743   0.89576   0.91149
 Alpha virt. eigenvalues --    0.91149   1.07730   1.07730   1.10891   1.41605
 Alpha virt. eigenvalues --    1.68052   1.68052   2.21432   2.37019   2.63922

  Beta  occ. eigenvalues --  -24.72567  -1.12725  -0.42915  -0.42915  -0.40468
  Beta virt. eigenvalues --   -0.26063   0.02019   0.21388   0.41124   0.92610
  Beta virt. eigenvalues --    0.92610   0.97934   1.07973   1.07973   1.15046
  Beta virt. eigenvalues --    1.42098   1.68225   1.68225   2.21759   2.37245

 Mulliken charges and spin densities:
               1          2
     1  H   -0.009514  -0.016955
     2  H    0.021556   0.038677
     3  F   -0.012042   0.978278
 Sum of Mulliken charges =   0.00000   1.00000

 Dipole moment (field-independent basis, Debye):
    X=             -0.2491    Y=              0.0000    Z=              0.0000  Tot=              0.2491
 Quadrupole moment (field-independent basis, Debye-Ang):
   XX=             -5.7988   YY=             -7.1981   ZZ=             -7.1981
   XY=              0.0000   XZ=              0.0000   YZ=             -0.0000

  Exact polarizability:      20.933       0.000       2.067      -0.000       0.000       2.067
 Approx polarizability:      23.789      -0.000       2.127      -0.000       0.000       2.127

 ******    1 imaginary frequencies (negative Signs) ******

                      1                      2                      3
                      A                      A                      A
 Frequencies --   -190.1810              1493.4252              1493.4252
 Red. masses --      1.1085                 1.0104                 1.0104
 Frc consts  --      0.0236                 1.3278                 1.3278
 IR Inten    --     11.7780                 0.3052                 0.3052

                      4
                      A
 Frequencies --   2140.9733
 Red. masses --      1.0079
 Frc consts  --      2.7219
 IR Inten    --    106.8223

 - Thermochemistry -
 -------------------
 Temperature   298.150 Kelvin.  Pressure   1.00000 Atm.
 Atom     1 has atomic number  1 and mass   1.00783

 Molecular mass:    21.01405 amu.
 Principal axes and moments of inertia in atomic units:
                           1         2         3
     Eigenvalues --     0.00000  57.30055  57.30055
           X            1.00000  -0.00000   0.00000
           Y            0.00000   1.00000   0.00000
           Z            0.00000   0.00000   1.00000
 This molecule is a prolate symmetric top.
 Rotational symmetry number  1.
 Rotational temperature (Kelvin)      1.51157
 Rotational constant (GHZ):          31.496055
    1 imaginary frequencies ignored.
 Zero-point vibrational energy      30671.2 (Joules/Mol)
                                    7.33059 (Kcal/Mol)
 Vibrational temperatures:   2148.71  2148.71  3080.38
          (Kelvin)

 Zero-point correction=                           0.011682 (Hartree/Particle)
 Thermal correction to Energy=                    0.014053
 Thermal correction to Enthalpy=                  0.014997
 Thermal correction to Gibbs Free Energy=        -0.008265
 Sum of electronic and zero-point Energies=           -100.903648
 Sum of electronic and thermal Energies=              -100.901277
 Sum of electronic and thermal Enthalpies=            -100.900333
 Sum of electronic and thermal Free Energies=         -100.923595

                     E (Thermal)             CV                S
                      KCal/Mol        Cal/Mol-Kelvin    Cal/Mol-Kelvin
 Total                    8.818              5.128             48.959
 Electronic               0.000              0.000              1.377
 Translational            0.889              2.981             35.068
 Rotational               0.592              1.987             12.488
 Vibrational              7.337              0.160              0.025

 Normal termination of Gaussian 16 at Fri Aug 22 17:36:16 2025.
