 Gaussian 16, Revision C.01,
 Gaussian 16:  ES64L-G16RevC.01  3-Jul-2019

 -----------------------------------------
 # sp b3lyp/6-311g** Force nosymm scf=(qc)
 -----------------------------------------

 -------------------
 Title Card Required
 -------------------
 Symbolic Z-matrix:
 Charge =  0 Multiplicity = 2

                          Input orientation:
 ---------------------------------------------------------------------
 Center     Atomic      Atomic             Coordinates (Angstroms)
 Number     Number       Type             X           Y           Z
 ---------------------------------------------------------------------
      1          1           0        0.000000    0.000000    0.000000
      2          1           0       -2.150000    0.000000    0.000000
      3          9           0        2.650000    0.000000    0.000000
 ---------------------------------------------------------------------

 SCF Done:  E(UB3LYP) =  -100.774507698     a.u. after   21 cycles

 Alpha  occ. eigenvalues --  -24.72667  -1.18816  -0.51776  -0.43476  -0.43476
 Alpha  occ. eigenvalues --   -0.34144
 Alpha virt. eigenvalues --   -0.12252   0.25132   0.32447   0.90357   0.93123
 Alpha virt. eigenvalues --    0.93123   1.05978   1.23229   1.23727   1.23727
 Alpha virt. eigenvalues --    1.36458   1.36458   1.44584   2.12390   2.34383

  Beta  occ. eigenvalues --  -24.69748  -1.10482  -0.40561  -0.40561  -0.34715
  Beta virt. eigenvalues --   -0.24005  -0.10947   0.26293   0.33025   0.94538
  Beta virt. eigenvalues --    0.94538   0.98250   1.09431   1.23088   1.23088
  Beta virt. eigenvalues --    1.24077   1.38610   1.38610   1.45848   2.13232

 Mulliken charges and spin densities:
               1          2
     1  H    0.047901  -0.839825
     2  H    0.019206   0.916314
     3  F   -0.067107   0.923511
 Sum of Mulliken charges =   0.00000   1.00000

 Dipole moment (field-independent basis, Debye):
    X=             -1.1062    Y=              0.0000    Z=              0.0000  Tot=              1.1062
 Quadrupole moment (field-independent basis, Debye-Ang):
   XX=             -8.1659   YY=             -7.6624   ZZ=             -7.6624
   XY=              0.0000   XZ=              0.0000   YZ=              0.0000

  Exact polarizability:      55.823      -0.000       2.006      -0.000       0.000       2.006
 Approx polarizability:      55.441      -0.000       1.922      -0.000       0.000       1.922

 ******    2 imaginary frequencies (negative Signs) ******

                      1                      2                      3
                      A                      A                      A
 Frequencies --  -1143.2368              -340.2021               449.0728
 Red. masses --      1.0093                 1.1067                 1.0156
 Frc consts  --      0.7772                 0.0755                 0.1207
 IR Inten    --     43.5647                41.8525                 1.4293

                      4
                      A
 Frequencies --    449.0728
 Red. masses --      1.0156
 Frc consts  --      0.1207
 IR Inten    --      1.4293

 - Thermochemistry -
 -------------------
 Temperature   298.150 Kelvin.  Pressure   1.00000 Atm.
 Atom     1 has atomic number  1 and mass   1.00783

 Molecular mass:    21.01405 amu.
 Principal axes and moments of inertia in atomic units:
                           1         2         3
     Eigenvalues --     0.00000  98.61508  98.61508
           X            1.00000  -0.00000   0.00000
           Y            0.00000   1.00000   0.00000
           Z            0.00000   0.00000   1.00000
 This molecule is a prolate symmetric top.
 Rotational symmetry number  1.
 Rotational temperature (Kelvin)      0.87830
 Rotational constant (GHZ):          18.300865
    2 imaginary frequencies ignored.
 Zero-point vibrational energy       5372.1 (Joules/Mol)
                                    1.28396 (Kcal/Mol)
 Warning -- explicit consideration of   2 degrees of freedom as
           vibrations may cause significant error
 Vibrational temperatures:    646.12   646.12
          (Kelvin)

 Zero-point correction=                           0.002046 (Hartree/Particle)
 Thermal correction to Energy=                    0.004936
 Thermal correction to Enthalpy=                  0.005880
 Thermal correction to Gibbs Free Energy=        -0.018642
 Sum of electronic and zero-point Energies=           -100.772462
 Sum of electronic and thermal Energies=              -100.769572
 Sum of electronic and thermal Enthalpies=            -100.768628
 Sum of electronic and thermal Free Energies=         -100.793149

                     E (Thermal)             CV                S
                      KCal/Mol        Cal/Mol-Kelvin    Cal/Mol-Kelvin
 Total                    3.097              7.694             51.610
 Electronic               0.000              0.000              1.377
 Translational            0.889              2.981             35.068
 Rotational               0.592              1.987             13.567
 Vibrational              1.616              2.726              1.597
 Vibration     1          0.808              1.363              0.799
 Vibration     2          0.808              1.363              0.799

 Normal termination of Gaussian 16 at Fri Aug 22 18:14:29 2025.
