 Gaussian 16, Revision C.01,
 Gaussian 16:  ES64L-G16RevC.01  3-Jul-2019

 -----------------------------------------
 # sp b3lyp/6-311g** Force nosymm scf=(qc)
 -----------------------------------------

 -------------------
 Title Card Required
 -------------------
 Symbolic Z-matrix:
 Charge =  0 Multiplicity = 2

                          Input orientation:
 ---------------------------------------------------------------------
 Center     Atomic      Atomic             Coordinates (Angstroms)
 Number     Number       Type             X           Y           Z
 ---------------------------------------------------------------------
      1          1           0        0.000000    0.000000    0.000000
      2          1           0       -1.400000    0.000000    0.000000
      3          9           0        3.350000    0.000000    0.000000
 ---------------------------------------------------------------------

 SCF Done:  E(UB3LYP) =  -100.836754295     a.u. after  304 cycles

 Alpha  occ. eigenvalues --  -24.76469  -1.22330  -0.55527  -0.46733  -0.46680
 Alpha  occ. eigenvalues --   -0.34318
 Alpha virt. eigenvalues --   -0.08053   0.24291   0.31381   0.85885   0.90761
 Alpha virt. eigenvalues --    0.92412   1.01663   1.10786   1.17968   1.17971
 Alpha virt. eigenvalues --    1.45165   1.45169   1.90335   2.25745   2.50234

  Beta  occ. eigenvalues --  -24.73311  -1.13251  -0.43569  -0.43514  -0.34315
  Beta virt. eigenvalues --   -0.26165  -0.08048   0.24303   0.31420   0.92260
  Beta virt. eigenvalues --    0.93936   0.95348   1.05725   1.10803   1.17967
  Beta virt. eigenvalues --    1.17971   1.45164   1.45168   1.90342   2.25747

 Mulliken charges and spin densities:
               1          2
     1  H    0.000130   0.000425
     2  H   -0.004021  -0.000905
     3  F    0.003891   1.000479
 Sum of Mulliken charges =   0.00000   1.00000

 Dipole moment (field-independent basis, Debye):
    X=              0.0642    Y=              0.0000    Z=              0.0000  Tot=              0.0642
 Quadrupole moment (field-independent basis, Debye-Ang):
   XX=             -6.2195   YY=             -6.8365   ZZ=             -7.6702
   XY=             -0.0000   XZ=              0.0000   YZ=             -0.1137

  Exact polarizability:      20.611      -0.000       2.515      -0.000      -0.061       2.066
 Approx polarizability:      36.186      -0.000       2.635       0.000      -0.077       2.074

 ******    2 imaginary frequencies (negative Signs) ******

                      1                      2                      3
                      A                      A                      A
 Frequencies --  -1167.2325               -33.5342              1309.3004
 Red. masses --      1.0078                 1.1085                 1.0108
 Frc consts  --      0.8090                 0.0007                 1.0209
 IR Inten    --      0.3492                 0.2587                 0.0027

                      4
                      A
 Frequencies --   1310.3406
 Red. masses --      1.0108
 Frc consts  --      1.0225
 IR Inten    --      0.0025

 - Thermochemistry -
 -------------------
 Temperature   298.150 Kelvin.  Pressure   1.00000 Atm.
 Atom     1 has atomic number  1 and mass   1.00783

 Molecular mass:    21.01405 amu.
 Principal axes and moments of inertia in atomic units:
                           1         2         3
     Eigenvalues --     0.00000 110.26776 110.26776
           X            1.00000  -0.00000   0.00000
           Y            0.00000   1.00000   0.00000
           Z            0.00000   0.00000   1.00000
 This molecule is a prolate symmetric top.
 Rotational symmetry number  1.
 Rotational temperature (Kelvin)      0.78549
 Rotational constant (GHZ):          16.366898
    2 imaginary frequencies ignored.
 Zero-point vibrational energy      15668.9 (Joules/Mol)
                                    3.74496 (Kcal/Mol)
 Vibrational temperatures:   1883.79  1885.29
          (Kelvin)

 Zero-point correction=                           0.005968 (Hartree/Particle)
 Thermal correction to Energy=                    0.008350
 Thermal correction to Enthalpy=                  0.009294
 Thermal correction to Gibbs Free Energy=        -0.014599
 Sum of electronic and zero-point Energies=           -100.830786
 Sum of electronic and thermal Energies=              -100.828404
 Sum of electronic and thermal Enthalpies=            -100.827460
 Sum of electronic and thermal Free Energies=         -100.851353

                     E (Thermal)             CV                S
                      KCal/Mol        Cal/Mol-Kelvin    Cal/Mol-Kelvin
 Total                    5.240              5.255             50.287
 Electronic               0.000              0.000              1.377
 Translational            0.889              2.981             35.068
 Rotational               0.592              1.987             13.789
 Vibrational              3.758              0.287              0.052

 Normal termination of Gaussian 16 at Fri Aug 22 20:57:34 2025.
