 Gaussian 16, Revision C.01,
 Gaussian 16:  ES64L-G16RevC.01  3-Jul-2019

 -----------------------------------------
 # sp b3lyp/6-311g** Force nosymm scf=(qc)
 -----------------------------------------

 -------------------
 Title Card Required
 -------------------
 Symbolic Z-matrix:
 Charge =  0 Multiplicity = 2

                          Input orientation:
 ---------------------------------------------------------------------
 Center     Atomic      Atomic             Coordinates (Angstroms)
 Number     Number       Type             X           Y           Z
 ---------------------------------------------------------------------
      1          1           0        0.000000    0.000000    0.000000
      2          1           0       -0.600000    0.000000    0.000000
      3          9           0        1.650000    0.000000    0.000000
 ---------------------------------------------------------------------

 SCF Done:  E(UB3LYP) =  -100.913777388     a.u. after    6 cycles

 Alpha  occ. eigenvalues --  -24.73425  -1.19987  -0.56851  -0.45978  -0.44409
 Alpha  occ. eigenvalues --   -0.44409
 Alpha virt. eigenvalues --    0.11016   0.19854   0.49013   0.89148   0.89148
 Alpha virt. eigenvalues --    0.96349   1.10049   1.10049   1.26486   1.69017
 Alpha virt. eigenvalues --    1.82928   1.91950   1.91950   2.48196   3.70103

  Beta  occ. eigenvalues --  -24.70502  -1.11810  -0.49598  -0.41530  -0.41530
  Beta virt. eigenvalues --   -0.24303   0.11768   0.20550   0.50563   0.90392
  Beta virt. eigenvalues --    0.90392   1.03313   1.11381   1.11381   1.30134
  Beta virt. eigenvalues --    1.71064   1.83729   1.92584   1.92584   2.49791

 Mulliken charges and spin densities:
               1          2
     1  H    0.067357  -0.028786
     2  H    0.012626   0.130336
     3  F   -0.079983   0.898450
 Sum of Mulliken charges =   0.00000   1.00000

 Dipole moment (field-independent basis, Debye):
    X=             -0.6594    Y=             -0.0000    Z=              0.0000  Tot=              0.6594
 Quadrupole moment (field-independent basis, Debye-Ang):
   XX=             -6.3495   YY=             -6.6516   ZZ=             -6.6516
   XY=             -0.0000   XZ=              0.0000   YZ=              0.0000

  Exact polarizability:      15.022      -0.000       2.162       0.000      -0.000       2.162
 Approx polarizability:      17.120      -0.000       2.223       0.000       0.000       2.223

 ******    2 imaginary frequencies (negative Signs) ******

                      1                      2                      3
                      A                      A                      A
 Frequencies --  -2871.8378             -2871.8378               348.4223
 Red. masses --      1.0102                 1.0102                 1.1085
 Frc consts  --      4.9087                 4.9087                 0.0793
 IR Inten    --      0.0332                 0.0332                46.8356

                      4
                      A
 Frequencies --   6933.8286
 Red. masses --      1.0078
 Frc consts  --     28.5487
 IR Inten    --    391.4239

 - Thermochemistry -
 -------------------
 Temperature   298.150 Kelvin.  Pressure   1.00000 Atm.
 Atom     1 has atomic number  1 and mass   1.00783

 Molecular mass:    21.01405 amu.
 Principal axes and moments of inertia in atomic units:
                           1         2         3
     Eigenvalues --     0.00000  25.39293  25.39293
           X            1.00000  -0.00000   0.00000
           Y            0.00000   1.00000   0.00000
           Z            0.00000   0.00000   1.00000
 This molecule is a prolate symmetric top.
 Rotational symmetry number  1.
 Rotational temperature (Kelvin)      3.41095
 Rotational constant (GHZ):          71.072585
    2 imaginary frequencies ignored.
 Zero-point vibrational energy      43557.5 (Joules/Mol)
                                   10.41050 (Kcal/Mol)
 Warning -- explicit consideration of   1 degrees of freedom as
           vibrations may cause significant error
 Vibrational temperatures:    501.30  9976.23
          (Kelvin)

 Zero-point correction=                           0.016590 (Hartree/Particle)
 Thermal correction to Energy=                    0.019314
 Thermal correction to Enthalpy=                  0.020258
 Thermal correction to Gibbs Free Energy=        -0.002781
 Sum of electronic and zero-point Energies=           -100.897187
 Sum of electronic and thermal Energies=              -100.894464
 Sum of electronic and thermal Enthalpies=            -100.893520
 Sum of electronic and thermal Free Energies=         -100.916559

                     E (Thermal)             CV                S
                      KCal/Mol        Cal/Mol-Kelvin    Cal/Mol-Kelvin
 Total                   12.120              6.546             48.490
 Electronic               0.000              0.000              1.377
 Translational            0.889              2.981             35.068
 Rotational               0.592              1.987             10.871
 Vibrational             10.638              1.578              1.173
 Vibration     1          0.726              1.578              1.173

 Normal termination of Gaussian 16 at Fri Aug 22 16:33:03 2025.
