 Gaussian 16, Revision C.01,
 Gaussian 16:  ES64L-G16RevC.01  3-Jul-2019

 -----------------------------------------
 # sp b3lyp/6-311g** Force nosymm scf=(qc)
 -----------------------------------------

 -------------------
 Title Card Required
 -------------------
 Symbolic Z-matrix:
 Charge =  0 Multiplicity = 2

                          Input orientation:
 ---------------------------------------------------------------------
 Center     Atomic      Atomic             Coordinates (Angstroms)
 Number     Number       Type             X           Y           Z
 ---------------------------------------------------------------------
      1          1           0        0.000000    0.000000    0.000000
      2          1           0       -1.850000    0.000000    0.000000
      3          9           0        3.650000    0.000000    0.000000
 ---------------------------------------------------------------------

 SCF Done:  E(UB3LYP) =  -100.782560161     a.u. after  116 cycles

 Alpha  occ. eigenvalues --  -24.76115  -1.22018  -0.55219  -0.46401  -0.46386
 Alpha  occ. eigenvalues --   -0.32928
 Alpha virt. eigenvalues --   -0.10748   0.25980   0.31740   0.86303   0.90998
 Alpha virt. eigenvalues --    0.91585   1.01161   1.11753   1.24897   1.24897
 Alpha virt. eigenvalues --    1.37743   1.37746   1.58633   2.14337   2.38726

  Beta  occ. eigenvalues --  -24.72966  -1.12963  -0.43250  -0.43228  -0.32914
  Beta virt. eigenvalues --   -0.25915  -0.10759   0.25934   0.31870   0.92499
  Beta virt. eigenvalues --    0.92990   0.95772   1.05265   1.11742   1.24895
  Beta virt. eigenvalues --    1.24898   1.37761   1.37762   1.58678   2.14664

 Mulliken charges and spin densities:
               1          2
     1  H    0.000283  -0.762238
     2  H   -0.000048   0.763921
     3  F   -0.000235   0.998318
 Sum of Mulliken charges =   0.00000   1.00000

 Dipole moment (field-independent basis, Debye):
    X=             -0.0125    Y=              0.0006    Z=              0.0005  Tot=              0.0125
 Quadrupole moment (field-independent basis, Debye-Ang):
   XX=             -6.6674   YY=             -7.3750   ZZ=             -7.4775
   XY=              0.2821   XZ=              0.2408   YZ=              0.3224

  Exact polarizability:      50.256       0.106       2.214      -0.070       0.174       2.161
 Approx polarizability:      33.953       0.170       2.209       0.145       0.217       2.140

 ******    2 imaginary frequencies (negative Signs) ******

                      1                      2                      3
                      A                      A                      A
 Frequencies --  -1646.2527               -94.3127               712.0179
 Red. masses --      1.0078                 1.1085                 1.0118
 Frc consts  --      1.6093                 0.0058                 0.3022
 IR Inten    --     43.2725                 4.6613                 0.0321

                      4
                      A
 Frequencies --    712.1582
 Red. masses --      1.0118
 Frc consts  --      0.3023
 IR Inten    --      0.0114

 - Thermochemistry -
 -------------------
 Temperature   298.150 Kelvin.  Pressure   1.00000 Atm.
 Atom     1 has atomic number  1 and mass   1.00783

 Molecular mass:    21.01405 amu.
 Principal axes and moments of inertia in atomic units:
                           1         2         3
     Eigenvalues --     0.00000 142.36672 142.36672
           X            1.00000  -0.00000   0.00000
           Y            0.00000   1.00000   0.00000
           Z            0.00000   0.00000   1.00000
 This molecule is a prolate symmetric top.
 Rotational symmetry number  1.
 Rotational temperature (Kelvin)      0.60839
 Rotational constant (GHZ):          12.676707
    2 imaginary frequencies ignored.
 Zero-point vibrational energy       8518.5 (Joules/Mol)
                                    2.03596 (Kcal/Mol)
 Vibrational temperatures:   1024.43  1024.64
          (Kelvin)

 Zero-point correction=                           0.003245 (Hartree/Particle)
 Thermal correction to Energy=                    0.005821
 Thermal correction to Enthalpy=                  0.006765
 Thermal correction to Gibbs Free Energy=        -0.017622
 Sum of electronic and zero-point Energies=           -100.779316
 Sum of electronic and thermal Energies=              -100.776739
 Sum of electronic and thermal Enthalpies=            -100.775795
 Sum of electronic and thermal Free Energies=         -100.800182

                     E (Thermal)             CV                S
                      KCal/Mol        Cal/Mol-Kelvin    Cal/Mol-Kelvin
 Total                    3.653              6.581             51.327
 Electronic               0.000              0.000              1.377
 Translational            0.889              2.981             35.068
 Rotational               0.592              1.987             14.297
 Vibrational              2.171              1.613              0.584

 Normal termination of Gaussian 16 at Fri Aug 22 23:35:09 2025.
