 Gaussian 16, Revision C.01,
 Gaussian 16:  ES64L-G16RevC.01  3-Jul-2019

 -----------------------------------------
 # sp b3lyp/6-311g** Force nosymm scf=(qc)
 -----------------------------------------

 -------------------
 Title Card Required
 -------------------
 Symbolic Z-matrix:
 Charge =  0 Multiplicity = 2

                          Input orientation:
 ---------------------------------------------------------------------
 Center     Atomic      Atomic             Coordinates (Angstroms)
 Number     Number       Type             X           Y           Z
 ---------------------------------------------------------------------
      1          1           0        0.000000    0.000000    0.000000
      2          1           0       -2.500000    0.000000    0.000000
      3          9           0        1.550000    0.000000    0.000000
 ---------------------------------------------------------------------

 SCF Done:  E(UB3LYP) =  -100.845813934     a.u. after    9 cycles

 Alpha  occ. eigenvalues --  -24.64289  -1.09928  -0.43238  -0.36336  -0.36336
 Alpha  occ. eigenvalues --   -0.35760
 Alpha virt. eigenvalues --   -0.14145   0.22976   0.27012   0.94143   0.94143
 Alpha virt. eigenvalues --    1.02506   1.08721   1.21745   1.21745   1.24551
 Alpha virt. eigenvalues --    1.32170   1.32170   1.75062   2.12748   2.20781

  Beta  occ. eigenvalues --  -24.63711  -1.08388  -0.41763  -0.35784  -0.35784
  Beta virt. eigenvalues --   -0.16932  -0.08496   0.24719   0.35209   0.93933
  Beta virt. eigenvalues --    0.93933   1.03735   1.08939   1.29383   1.29383
  Beta virt. eigenvalues --    1.41805   1.41805   1.43058   1.74122   2.16415

 Mulliken charges and spin densities:
               1          2
     1  H    0.323800  -0.158143
     2  H    0.020217   0.975812
     3  F   -0.344017   0.182331
 Sum of Mulliken charges =  -0.00000   1.00000

 Dipole moment (field-independent basis, Debye):
    X=             -2.8521    Y=             -0.0000    Z=              0.0000  Tot=              2.8521
 Quadrupole moment (field-independent basis, Debye-Ang):
   XX=             -9.4439   YY=             -7.3533   ZZ=             -7.3533
   XY=             -0.0000   XZ=              0.0000   YZ=             -0.0000

  Exact polarizability:      25.147      -0.000       2.180       0.000       0.000       2.180
 Approx polarizability:      38.355       0.000       2.102       0.000       0.000       2.102

 ******    2 imaginary frequencies (negative Signs) ******

                      1                      2                      3
                      A                      A                      A
 Frequencies --  -1746.3920              -279.1265               946.2932
 Red. masses --      1.0498                 1.0619                 1.0246
 Frc consts  --      1.8864                 0.0487                 0.5406
 IR Inten    --      3.7629                 4.6908                90.4246

                      4
                      A
 Frequencies --    946.2932
 Red. masses --      1.0246
 Frc consts  --      0.5406
 IR Inten    --     90.4246

 - Thermochemistry -
 -------------------
 Temperature   298.150 Kelvin.  Pressure   1.00000 Atm.
 Atom     1 has atomic number  1 and mass   1.00783

 Molecular mass:    21.01405 amu.
 Principal axes and moments of inertia in atomic units:
                           1         2         3
     Eigenvalues --     0.00000  62.26640  62.26640
           X            1.00000  -0.00000   0.00000
           Y            0.00000   1.00000   0.00000
           Z            0.00000   0.00000   1.00000
 This molecule is a prolate symmetric top.
 Rotational symmetry number  1.
 Rotational temperature (Kelvin)      1.39102
 Rotational constant (GHZ):          28.984189
    2 imaginary frequencies ignored.
 Zero-point vibrational energy      11320.2 (Joules/Mol)
                                    2.70559 (Kcal/Mol)
 Vibrational temperatures:   1361.50  1361.50
          (Kelvin)

 Zero-point correction=                           0.004312 (Hartree/Particle)
 Thermal correction to Energy=                    0.006763
 Thermal correction to Enthalpy=                  0.007707
 Thermal correction to Gibbs Free Energy=        -0.015732
 Sum of electronic and zero-point Energies=           -100.841502
 Sum of electronic and thermal Energies=              -100.839051
 Sum of electronic and thermal Enthalpies=            -100.838107
 Sum of electronic and thermal Free Energies=         -100.861546

                     E (Thermal)             CV                S
                      KCal/Mol        Cal/Mol-Kelvin    Cal/Mol-Kelvin
 Total                    4.244              5.848             49.331
 Electronic               0.000              0.000              1.377
 Translational            0.889              2.981             35.068
 Rotational               0.592              1.987             12.654
 Vibrational              2.762              0.880              0.232

 Normal termination of Gaussian 16 at Fri Aug 22 16:28:43 2025.
