 Gaussian 16, Revision C.01,
 Gaussian 16:  ES64L-G16RevC.01  3-Jul-2019

 -----------------------------------------
 # sp b3lyp/6-311g** Force nosymm scf=(qc)
 -----------------------------------------

 -------------------
 Title Card Required
 -------------------
 Symbolic Z-matrix:
 Charge =  0 Multiplicity = 2

                          Input orientation:
 ---------------------------------------------------------------------
 Center     Atomic      Atomic             Coordinates (Angstroms)
 Number     Number       Type             X           Y           Z
 ---------------------------------------------------------------------
      1          1           0        0.000000    0.000000    0.000000
      2          1           0       -2.350000    0.000000    0.000000
      3          9           0        3.950000    0.000000    0.000000
 ---------------------------------------------------------------------

 SCF Done:  E(UB3LYP) =  -100.764514006     a.u. after   46 cycles

 Alpha  occ. eigenvalues --  -24.75903  -1.21829  -0.55028  -0.46205  -0.46205
 Alpha  occ. eigenvalues --   -0.32619
 Alpha virt. eigenvalues --   -0.09697   0.25933   0.34279   0.86598   0.91149
 Alpha virt. eigenvalues --    0.91149   1.01080   1.25113   1.25113   1.25955
 Alpha virt. eigenvalues --    1.40769   1.40769   1.43863   2.15257   2.35791

  Beta  occ. eigenvalues --  -24.72758  -1.12785  -0.43052  -0.43052  -0.32730
  Beta virt. eigenvalues --   -0.25759  -0.09516   0.25787   0.34527   0.92648
  Beta virt. eigenvalues --    0.92648   0.95977   1.05210   1.24993   1.24993
  Beta virt. eigenvalues --    1.25835   1.41021   1.41021   1.44093   2.15379

 Mulliken charges and spin densities:
               1          2
     1  H    0.001092  -0.949602
     2  H    0.001323   0.952391
     3  F   -0.002416   0.997211
 Sum of Mulliken charges =  -0.00000   1.00000

 Dipole moment (field-independent basis, Debye):
    X=             -0.0638    Y=              0.0000    Z=             -0.0000  Tot=              0.0638
 Quadrupole moment (field-independent basis, Debye-Ang):
   XX=             -6.6102   YY=             -7.6822   ZZ=             -7.6822
   XY=              0.0000   XZ=             -0.0000   YZ=             -0.0000

  Exact polarizability:      22.861       0.000       2.018      -0.000      -0.000       2.018
 Approx polarizability:      18.187       0.000       1.931      -0.000       0.000       1.931

 ******    2 imaginary frequencies (negative Signs) ******

                      1                      2                      3
                      A                      A                      A
 Frequencies --   -819.5240               -76.2219               310.7447
 Red. masses --      1.0078                 1.1085                 1.0129
 Frc consts  --      0.3988                 0.0038                 0.0576
 IR Inten    --      0.6475                 0.7831                 0.0003

                      4
                      A
 Frequencies --    310.7447
 Red. masses --      1.0129
 Frc consts  --      0.0576
 IR Inten    --      0.0003

 - Thermochemistry -
 -------------------
 Temperature   298.150 Kelvin.  Pressure   1.00000 Atm.
 Atom     1 has atomic number  1 and mass   1.00783

 Molecular mass:    21.01405 amu.
 Principal axes and moments of inertia in atomic units:
                           1         2         3
     Eigenvalues --     0.00000 180.86367 180.86367
           X            1.00000  -0.00000   0.00000
           Y            0.00000   1.00000   0.00000
           Z            0.00000   0.00000   1.00000
 This molecule is a prolate symmetric top.
 Rotational symmetry number  1.
 Rotational temperature (Kelvin)      0.47889
 Rotational constant (GHZ):           9.978462
    2 imaginary frequencies ignored.
 Zero-point vibrational energy       3717.3 (Joules/Mol)
                                    0.88846 (Kcal/Mol)
 Warning -- explicit consideration of   2 degrees of freedom as
           vibrations may cause significant error
 Vibrational temperatures:    447.09   447.09
          (Kelvin)

 Zero-point correction=                           0.001416 (Hartree/Particle)
 Thermal correction to Energy=                    0.004590
 Thermal correction to Enthalpy=                  0.005534
 Thermal correction to Gibbs Free Energy=        -0.020092
 Sum of electronic and zero-point Energies=           -100.763098
 Sum of electronic and thermal Energies=              -100.759924
 Sum of electronic and thermal Enthalpies=            -100.758980
 Sum of electronic and thermal Free Energies=         -100.784606

                     E (Thermal)             CV                S
                      KCal/Mol        Cal/Mol-Kelvin    Cal/Mol-Kelvin
 Total                    2.880              8.274             53.935
 Electronic               0.000              0.000              1.377
 Translational            0.889              2.981             35.068
 Rotational               0.592              1.987             14.773
 Vibrational              1.399              3.306              2.717
 Vibration     1          0.700              1.653              1.358
 Vibration     2          0.700              1.653              1.358

 Normal termination of Gaussian 16 at Sat Aug 23 01:39:06 2025.
