 Gaussian 16, Revision C.01,
 Gaussian 16:  ES64L-G16RevC.01  3-Jul-2019

 -----------------------------------------
 # sp b3lyp/6-311g** Force nosymm scf=(qc)
 -----------------------------------------

 -------------------
 Title Card Required
 -------------------
 Symbolic Z-matrix:
 Charge =  0 Multiplicity = 2

                          Input orientation:
 ---------------------------------------------------------------------
 Center     Atomic      Atomic             Coordinates (Angstroms)
 Number     Number       Type             X           Y           Z
 ---------------------------------------------------------------------
      1          1           0        0.000000    0.000000    0.000000
      2          1           0       -3.750000    0.000000    0.000000
      3          9           0        1.250000    0.000000    0.000000
 ---------------------------------------------------------------------

 SCF Done:  E(UB3LYP) =  -100.913420465     a.u. after    6 cycles

 Alpha  occ. eigenvalues --  -24.64373  -1.11651  -0.46885  -0.37293  -0.37293
 Alpha  occ. eigenvalues --   -0.33665
 Alpha virt. eigenvalues --   -0.07385   0.21739   0.28654   0.93048   0.93048
 Alpha virt. eigenvalues --    1.01432   1.23700   1.23845   1.23845   1.24116
 Alpha virt. eigenvalues --    1.34239   1.34239   1.70979   2.13503   2.26579

  Beta  occ. eigenvalues --  -24.64370  -1.11643  -0.46877  -0.37290  -0.37290
  Beta virt. eigenvalues --   -0.08119  -0.05249   0.25733   0.38696   0.93048
  Beta virt. eigenvalues --    0.93048   1.01440   1.24019   1.34231   1.34231
  Beta virt. eigenvalues --    1.47530   1.47530   1.47804   1.71001   2.25934

 Mulliken charges and spin densities:
               1          2
     1  H    0.356833  -0.000127
     2  H    0.000753   0.999188
     3  F   -0.357586   0.000940
 Sum of Mulliken charges =   0.00000   1.00000

 Dipole moment (field-independent basis, Debye):
    X=             -2.3458    Y=             -0.0000    Z=              0.0000  Tot=              2.3458
 Quadrupole moment (field-independent basis, Debye-Ang):
   XX=             -9.0685   YY=             -7.1645   ZZ=             -7.1645
   XY=             -0.0000   XZ=              0.0000   YZ=             -0.0000

  Exact polarizability:      10.111       0.000       2.301      -0.000      -0.000       2.301
 Approx polarizability:      15.095      -0.000       2.250       0.000       0.000       2.250

 ******    1 imaginary frequencies (negative Signs) ******

                      1                      2                      3
                      A                      A                      A
 Frequencies --    -47.0116               449.1211              1191.1236
 Red. masses --      1.0516                 1.0600                 1.0346
 Frc consts  --      0.0014                 0.1260                 0.8648
 IR Inten    --      0.1152                60.2332               142.5710

                      4
                      A
 Frequencies --   1191.1236
 Red. masses --      1.0346
 Frc consts  --      0.8648
 IR Inten    --    142.5710

 - Thermochemistry -
 -------------------
 Temperature   298.150 Kelvin.  Pressure   1.00000 Atm.
 Atom     1 has atomic number  1 and mass   1.00783

 Molecular mass:    21.01405 amu.
 Principal axes and moments of inertia in atomic units:
                           1         2         3
     Eigenvalues --     0.00000  88.85621  88.85621
           X            1.00000  -0.00000   0.00000
           Y            0.00000   1.00000   0.00000
           Z            0.00000   0.00000   1.00000
 This molecule is a prolate symmetric top.
 Rotational symmetry number  1.
 Rotational temperature (Kelvin)      0.97477
 Rotational constant (GHZ):          20.310806
    1 imaginary frequencies ignored.
 Zero-point vibrational energy      16935.3 (Joules/Mol)
                                    4.04764 (Kcal/Mol)
 Warning -- explicit consideration of   1 degrees of freedom as
           vibrations may cause significant error
 Vibrational temperatures:    646.19  1713.76  1713.76
          (Kelvin)

 Zero-point correction=                           0.006450 (Hartree/Particle)
 Thermal correction to Energy=                    0.009110
 Thermal correction to Enthalpy=                  0.010054
 Thermal correction to Gibbs Free Energy=        -0.014030
 Sum of electronic and zero-point Energies=           -100.906970
 Sum of electronic and thermal Energies=              -100.904310
 Sum of electronic and thermal Enthalpies=            -100.903366
 Sum of electronic and thermal Free Energies=         -100.927451

                     E (Thermal)             CV                S
                      KCal/Mol        Cal/Mol-Kelvin    Cal/Mol-Kelvin
 Total                    5.717              6.752             50.690
 Electronic               0.000              0.000              1.377
 Translational            0.889              2.981             35.068
 Rotational               0.592              1.987             13.360
 Vibrational              4.235              1.784              0.884
 Vibration     1          0.808              1.363              0.798

 Normal termination of Gaussian 16 at Fri Aug 22 16:13:45 2025.
