 Gaussian 16, Revision C.01,
 Gaussian 16:  ES64L-G16RevC.01  3-Jul-2019

 -----------------------------------------
 # sp b3lyp/6-311g** Force nosymm scf=(qc)
 -----------------------------------------

 -------------------
 Title Card Required
 -------------------
 Symbolic Z-matrix:
 Charge =  0 Multiplicity = 2

                          Input orientation:
 ---------------------------------------------------------------------
 Center     Atomic      Atomic             Coordinates (Angstroms)
 Number     Number       Type             X           Y           Z
 ---------------------------------------------------------------------
      1          1           0        0.000000    0.000000    0.000000
      2          1           0       -3.850000    0.000000    0.000000
      3          9           0        1.800000    0.000000    0.000000
 ---------------------------------------------------------------------

 SCF Done:  E(UB3LYP) =  -100.797052766     a.u. after   10 cycles

 Alpha  occ. eigenvalues --  -24.64199  -1.08631  -0.40061  -0.35880  -0.35880
 Alpha  occ. eigenvalues --   -0.33750
 Alpha virt. eigenvalues --   -0.20494   0.19877   0.26873   0.92848   0.95656
 Alpha virt. eigenvalues --    0.95656   1.07812   1.23721   1.23753   1.23753
 Alpha virt. eigenvalues --    1.25975   1.25975   1.65570   2.11923   2.16457

  Beta  occ. eigenvalues --  -24.64203  -1.08642  -0.40064  -0.35884  -0.35884
  Beta virt. eigenvalues --   -0.20519  -0.06502   0.22416   0.38047   0.92868
  Beta virt. eigenvalues --    0.95659   0.95659   1.07815   1.26020   1.26020
  Beta virt. eigenvalues --    1.45984   1.46337   1.46337   1.65609   2.14714

 Mulliken charges and spin densities:
               1          2
     1  H    0.314431   0.002510
     2  H    0.001188   0.998761
     3  F   -0.315619  -0.001270
 Sum of Mulliken charges =   0.00000   1.00000

 Dipole moment (field-independent basis, Debye):
    X=             -2.8429    Y=             -0.0000    Z=              0.0000  Tot=              2.8429
 Quadrupole moment (field-independent basis, Debye-Ang):
   XX=            -11.0850   YY=             -7.4586   ZZ=             -7.4586
   XY=             -0.0000   XZ=              0.0000   YZ=              0.0000

  Exact polarizability:      21.862      -0.000       2.067       0.000      -0.000       2.067
 Approx polarizability:      58.231      -0.000       1.975      -0.000      -0.000       1.975

 ******    2 imaginary frequencies (negative Signs) ******

                      1                      2                      3
                      A                      A                      A
 Frequencies --  -1158.0210               -64.4743               801.9265
 Red. masses --      1.0579                 1.0537                 1.0291
 Frc consts  --      0.8358                 0.0026                 0.3899
 IR Inten    --     29.8125                 0.1537                96.5600

                      4
                      A
 Frequencies --    801.9265
 Red. masses --      1.0291
 Frc consts  --      0.3899
 IR Inten    --     96.5600

 - Thermochemistry -
 -------------------
 Temperature   298.150 Kelvin.  Pressure   1.00000 Atm.
 Atom     1 has atomic number  1 and mass   1.00783

 Molecular mass:    21.01405 amu.
 Principal axes and moments of inertia in atomic units:
                           1         2         3
     Eigenvalues --     0.00000 116.97002 116.97002
           X            1.00000  -0.00000   0.00000
           Y            0.00000   1.00000   0.00000
           Z            0.00000   0.00000   1.00000
 This molecule is a prolate symmetric top.
 Rotational symmetry number  1.
 Rotational temperature (Kelvin)      0.74048
 Rotational constant (GHZ):          15.429092
    2 imaginary frequencies ignored.
 Zero-point vibrational energy       9593.2 (Joules/Mol)
                                    2.29282 (Kcal/Mol)
 Vibrational temperatures:   1153.79  1153.79
          (Kelvin)

 Zero-point correction=                           0.003654 (Hartree/Particle)
 Thermal correction to Energy=                    0.006170
 Thermal correction to Enthalpy=                  0.007114
 Thermal correction to Gibbs Free Energy=        -0.017005
 Sum of electronic and zero-point Energies=           -100.793399
 Sum of electronic and thermal Energies=              -100.790883
 Sum of electronic and thermal Enthalpies=            -100.789939
 Sum of electronic and thermal Free Energies=         -100.814058

                     E (Thermal)             CV                S
                      KCal/Mol        Cal/Mol-Kelvin    Cal/Mol-Kelvin
 Total                    3.872              6.263             50.763
 Electronic               0.000              0.000              1.377
 Translational            0.889              2.981             35.068
 Rotational               0.592              1.987             13.907
 Vibrational              2.391              1.295              0.411

 Normal termination of Gaussian 16 at Fri Aug 22 16:45:15 2025.
