 Gaussian 16, Revision C.01,
 Gaussian 16:  ES64L-G16RevC.01  3-Jul-2019

 -----------------------------------------
 # sp b3lyp/6-311g** Force nosymm scf=(qc)
 -----------------------------------------

 -------------------
 Title Card Required
 -------------------
 Symbolic Z-matrix:
 Charge =  0 Multiplicity = 2

                          Input orientation:
 ---------------------------------------------------------------------
 Center     Atomic      Atomic             Coordinates (Angstroms)
 Number     Number       Type             X           Y           Z
 ---------------------------------------------------------------------
      1          1           0        0.000000    0.000000    0.000000
      2          1           0       -1.700000    0.000000    0.000000
      3          9           0        1.750000    0.000000    0.000000
 ---------------------------------------------------------------------

 SCF Done:  E(UB3LYP) =  -100.834408310     a.u. after   12 cycles

 Alpha  occ. eigenvalues --  -24.66447  -1.12830  -0.46187  -0.38280  -0.38280
 Alpha  occ. eigenvalues --   -0.38179
 Alpha virt. eigenvalues --   -0.11510   0.22380   0.29594   0.88565   0.94555
 Alpha virt. eigenvalues --    0.94555   1.03605   1.18603   1.18603   1.34426
 Alpha virt. eigenvalues --    1.35557   1.35557   1.76438   2.15207   2.36040

  Beta  occ. eigenvalues --  -24.64458  -1.07355  -0.38977  -0.36340  -0.36340
  Beta virt. eigenvalues --   -0.21664  -0.09185   0.25234   0.30008   0.91719
  Beta virt. eigenvalues --    0.94789   0.94789   1.07477   1.23547   1.23547
  Beta virt. eigenvalues --    1.36129   1.36129   1.41168   1.77827   2.16262

 Mulliken charges and spin densities:
               1          2
     1  H    0.183307  -0.411042
     2  H    0.066011   0.788152
     3  F   -0.249317   0.622890
 Sum of Mulliken charges =   0.00000   1.00000

 Dipole moment (field-independent basis, Debye):
    X=             -2.6781    Y=             -0.0000    Z=             -0.0000  Tot=              2.6781
 Quadrupole moment (field-independent basis, Debye-Ang):
   XX=             -8.3868   YY=             -7.4337   ZZ=             -7.4337
   XY=             -0.0000   XZ=             -0.0000   YZ=              0.0000

  Exact polarizability:      45.588      -0.000       2.157      -0.000       0.000       2.157
 Approx polarizability:      63.546       0.000       2.079       0.000      -0.000       2.079

 ******    2 imaginary frequencies (negative Signs) ******

                      1                      2                      3
                      A                      A                      A
 Frequencies --  -2199.1693              -610.9168               903.1463
 Red. masses --      1.0207                 1.0933                 1.0176
 Frc consts  --      2.9085                 0.2404                 0.4890
 IR Inten    --    326.5680                 6.0818                16.7761

                      4
                      A
 Frequencies --    903.1463
 Red. masses --      1.0176
 Frc consts  --      0.4890
 IR Inten    --     16.7761

 - Thermochemistry -
 -------------------
 Temperature   298.150 Kelvin.  Pressure   1.00000 Atm.
 Atom     1 has atomic number  1 and mass   1.00783

 Molecular mass:    21.01405 amu.
 Principal axes and moments of inertia in atomic units:
                           1         2         3
     Eigenvalues --     0.00000  49.19187  49.19187
           X            1.00000  -0.00000   0.00000
           Y            0.00000   1.00000   0.00000
           Z            0.00000   0.00000   1.00000
 This molecule is a prolate symmetric top.
 Rotational symmetry number  1.
 Rotational temperature (Kelvin)      1.76074
 Rotational constant (GHZ):          36.687793
    2 imaginary frequencies ignored.
 Zero-point vibrational energy      10804.0 (Joules/Mol)
                                    2.58223 (Kcal/Mol)
 Vibrational temperatures:   1299.43  1299.43
          (Kelvin)

 Zero-point correction=                           0.004115 (Hartree/Particle)
 Thermal correction to Energy=                    0.006582
 Thermal correction to Enthalpy=                  0.007526
 Thermal correction to Gibbs Free Energy=        -0.015711
 Sum of electronic and zero-point Energies=           -100.830293
 Sum of electronic and thermal Energies=              -100.827826
 Sum of electronic and thermal Enthalpies=            -100.826882
 Sum of electronic and thermal Free Energies=         -100.850119

                     E (Thermal)             CV                S
                      KCal/Mol        Cal/Mol-Kelvin    Cal/Mol-Kelvin
 Total                    4.130              5.960             48.906
 Electronic               0.000              0.000              1.377
 Translational            0.889              2.981             35.068
 Rotational               0.592              1.987             12.185
 Vibrational              2.649              0.992              0.276

 Normal termination of Gaussian 16 at Fri Aug 22 16:40:12 2025.
