 Gaussian 16, Revision C.01,
 Gaussian 16:  ES64L-G16RevC.01  3-Jul-2019

 -----------------------------------------
 # sp b3lyp/6-311g** Force nosymm scf=(qc)
 -----------------------------------------

 -------------------
 Title Card Required
 -------------------
 Symbolic Z-matrix:
 Charge =  0 Multiplicity = 2

                          Input orientation:
 ---------------------------------------------------------------------
 Center     Atomic      Atomic             Coordinates (Angstroms)
 Number     Number       Type             X           Y           Z
 ---------------------------------------------------------------------
      1          1           0        0.000000    0.000000    0.000000
      2          1           0       -2.100000    0.000000    0.000000
      3          9           0        3.150000    0.000000    0.000000
 ---------------------------------------------------------------------

 SCF Done:  E(UB3LYP) =  -100.771780871     a.u. after   26 cycles

 Alpha  occ. eigenvalues --  -24.74776  -1.20782  -0.53895  -0.45253  -0.45253
 Alpha  occ. eigenvalues --   -0.33353
 Alpha virt. eigenvalues --   -0.11278   0.25659   0.32399   0.88989   0.91852
 Alpha virt. eigenvalues --    0.91852   1.03102   1.20467   1.24566   1.24566
 Alpha virt. eigenvalues --    1.37794   1.37794   1.47141   2.13007   2.35914

  Beta  occ. eigenvalues --  -24.71706  -1.11972  -0.42179  -0.42179  -0.33565
  Beta virt. eigenvalues --   -0.25205  -0.10693   0.25814   0.33092   0.93327
  Beta virt. eigenvalues --    0.93327   0.97905   1.07067   1.20271   1.24275
  Beta virt. eigenvalues --    1.24275   1.38696   1.38696   1.47867   2.14088

 Mulliken charges and spin densities:
               1          2
     1  H    0.013795  -0.871604
     2  H    0.009990   0.898574
     3  F   -0.023785   0.973031
 Sum of Mulliken charges =  -0.00000   1.00000

 Dipole moment (field-independent basis, Debye):
    X=             -0.4842    Y=              0.0000    Z=              0.0000  Tot=              0.4842
 Quadrupole moment (field-independent basis, Debye-Ang):
   XX=             -7.2350   YY=             -7.7033   ZZ=             -7.7033
   XY=              0.0000   XZ=              0.0000   YZ=             -0.0000

  Exact polarizability:      53.156       0.000       2.008       0.000      -0.000       2.008
 Approx polarizability:      45.391       0.000       1.929       0.000       0.000       1.929

 ******    2 imaginary frequencies (negative Signs) ******

                      1                      2                      3
                      A                      A                      A
 Frequencies --  -1189.7687              -204.5560               468.3958
 Red. masses --      1.0080                 1.1084                 1.0138
 Frc consts  --      0.8407                 0.0273                 0.1310
 IR Inten    --     22.8535                20.0795                 0.0822

                      4
                      A
 Frequencies --    468.3958
 Red. masses --      1.0138
 Frc consts  --      0.1310
 IR Inten    --      0.0822

 - Thermochemistry -
 -------------------
 Temperature   298.150 Kelvin.  Pressure   1.00000 Atm.
 Atom     1 has atomic number  1 and mass   1.00783

 Molecular mass:    21.01405 amu.
 Principal axes and moments of inertia in atomic units:
                           1         2         3
     Eigenvalues --     0.00000 122.72969 122.72969
           X            1.00000  -0.00000   0.00000
           Y            0.00000   1.00000   0.00000
           Z            0.00000   0.00000   1.00000
 This molecule is a prolate symmetric top.
 Rotational symmetry number  1.
 Rotational temperature (Kelvin)      0.70573
 Rotational constant (GHZ):          14.705009
    2 imaginary frequencies ignored.
 Zero-point vibrational energy       5603.3 (Joules/Mol)
                                    1.33921 (Kcal/Mol)
 Warning -- explicit consideration of   2 degrees of freedom as
           vibrations may cause significant error
 Vibrational temperatures:    673.92   673.92
          (Kelvin)

 Zero-point correction=                           0.002134 (Hartree/Particle)
 Thermal correction to Energy=                    0.004992
 Thermal correction to Enthalpy=                  0.005936
 Thermal correction to Gibbs Free Energy=        -0.018738
 Sum of electronic and zero-point Energies=           -100.769647
 Sum of electronic and thermal Energies=              -100.766789
 Sum of electronic and thermal Enthalpies=            -100.765845
 Sum of electronic and thermal Free Energies=         -100.790519

                     E (Thermal)             CV                S
                      KCal/Mol        Cal/Mol-Kelvin    Cal/Mol-Kelvin
 Total                    3.132              7.608             51.932
 Electronic               0.000              0.000              1.377
 Translational            0.889              2.981             35.068
 Rotational               0.592              1.987             14.002
 Vibrational              1.651              2.640              1.484
 Vibration     1          0.826              1.320              0.742
 Vibration     2          0.826              1.320              0.742

 Normal termination of Gaussian 16 at Fri Aug 22 20:10:02 2025.
