 Gaussian 16, Revision C.01,
 Gaussian 16:  ES64L-G16RevC.01  3-Jul-2019

 -----------------------------------------
 # sp b3lyp/6-311g** Force nosymm scf=(qc)
 -----------------------------------------

 -------------------
 Title Card Required
 -------------------
 Symbolic Z-matrix:
 Charge =  0 Multiplicity = 2

                          Input orientation:
 ---------------------------------------------------------------------
 Center     Atomic      Atomic             Coordinates (Angstroms)
 Number     Number       Type             X           Y           Z
 ---------------------------------------------------------------------
      1          1           0        0.000000    0.000000    0.000000
      2          1           0       -0.650000    0.000000    0.000000
      3          9           0        2.450000    0.000000    0.000000
 ---------------------------------------------------------------------

 SCF Done:  E(UB3LYP) =  -100.927078288     a.u. after   29 cycles

 Alpha  occ. eigenvalues --  -24.76915  -1.22693  -0.55864  -0.47696  -0.47011
 Alpha  occ. eigenvalues --   -0.44406
 Alpha virt. eigenvalues --    0.08955   0.20099   0.51399   0.85591   0.90447
 Alpha virt. eigenvalues --    0.93495   1.09907   1.09936   1.13109   1.60014
 Alpha virt. eigenvalues --    1.85572   1.89705   1.89731   2.40159   3.64352

  Beta  occ. eigenvalues --  -24.73750  -1.13599  -0.45846  -0.43838  -0.43080
  Beta virt. eigenvalues --   -0.26474   0.09062   0.20173   0.51500   0.91940
  Beta virt. eigenvalues --    0.95013   0.95373   1.09930   1.09938   1.16676
  Beta virt. eigenvalues --    1.60025   1.85578   1.89706   1.89730   2.40176

 Mulliken charges and spin densities:
               1          2
     1  H   -0.009653  -0.002300
     2  H   -0.006680  -0.000204
     3  F    0.016332   1.002504
 Sum of Mulliken charges =   0.00000   1.00000

 Dipole moment (field-independent basis, Debye):
    X=              0.1572    Y=              0.0000    Z=             -0.0000  Tot=              0.1572
 Quadrupole moment (field-independent basis, Debye-Ang):
   XX=             -6.0015   YY=             -6.1057   ZZ=             -6.6764
   XY=             -0.0000   XZ=              0.0000   YZ=             -0.3237

  Exact polarizability:       7.626      -0.000       2.303       0.000      -0.163       2.015
 Approx polarizability:       8.286      -0.000       2.487       0.000      -0.209       2.119

 ******    2 imaginary frequencies (negative Signs) ******

                      1                      2                      3
                      A                      A                      A
 Frequencies --  -1959.9021             -1935.7126               236.9933
 Red. masses --      1.0092                 1.0092                 1.1085
 Frc consts  --      2.2840                 2.2280                 0.0367
 IR Inten    --      0.0516                 0.0609                 0.6167

                      4
                      A
 Frequencies --   5977.2526
 Red. masses --      1.0078
 Frc consts  --     21.2148
 IR Inten    --      3.6015

 - Thermochemistry -
 -------------------
 Temperature   298.150 Kelvin.  Pressure   1.00000 Atm.
 Atom     1 has atomic number  1 and mass   1.00783

 Molecular mass:    21.01405 amu.
 Principal axes and moments of inertia in atomic units:
                           1         2         3
     Eigenvalues --     0.00000  50.87280  50.87280
           X            1.00000  -0.00000   0.00000
           Y            0.00000   1.00000   0.00000
           Z            0.00000   0.00000   1.00000
 This molecule is a prolate symmetric top.
 Rotational symmetry number  1.
 Rotational temperature (Kelvin)      1.70256
 Rotational constant (GHZ):          35.475565
    2 imaginary frequencies ignored.
 Zero-point vibrational energy      37169.4 (Joules/Mol)
                                    8.88371 (Kcal/Mol)
 Warning -- explicit consideration of   1 degrees of freedom as
           vibrations may cause significant error
 Vibrational temperatures:    340.98  8599.93
          (Kelvin)

 Zero-point correction=                           0.014157 (Hartree/Particle)
 Thermal correction to Energy=                    0.017023
 Thermal correction to Enthalpy=                  0.017967
 Thermal correction to Gibbs Free Energy=        -0.006038
 Sum of electronic and zero-point Energies=           -100.912921
 Sum of electronic and thermal Energies=              -100.910056
 Sum of electronic and thermal Enthalpies=            -100.909112
 Sum of electronic and thermal Free Energies=         -100.933117

                     E (Thermal)             CV                S
                      KCal/Mol        Cal/Mol-Kelvin    Cal/Mol-Kelvin
 Total                   10.682              6.752             50.523
 Electronic               0.000              0.000              1.377
 Translational            0.889              2.981             35.068
 Rotational               0.592              1.987             12.252
 Vibrational              9.201              1.784              1.825
 Vibration     1          0.656              1.784              1.825

 Normal termination of Gaussian 16 at Fri Aug 22 17:34:57 2025.
