 Gaussian 16, Revision C.01,
 Gaussian 16:  ES64L-G16RevC.01  3-Jul-2019

 -----------------------------------------
 # sp b3lyp/6-311g** Force nosymm scf=(qc)
 -----------------------------------------

 -------------------
 Title Card Required
 -------------------
 Symbolic Z-matrix:
 Charge =  0 Multiplicity = 2

                          Input orientation:
 ---------------------------------------------------------------------
 Center     Atomic      Atomic             Coordinates (Angstroms)
 Number     Number       Type             X           Y           Z
 ---------------------------------------------------------------------
      1          1           0        0.000000    0.000000    0.000000
      2          1           0       -3.500000    0.000000    0.000000
      3          9           0        3.200000    0.000000    0.000000
 ---------------------------------------------------------------------

 SCF Done:  E(UB3LYP) =  -100.760003077     a.u. after   20 cycles

 Alpha  occ. eigenvalues --  -24.74719  -1.20732  -0.53840  -0.45206  -0.45206
 Alpha  occ. eigenvalues --   -0.32445
 Alpha virt. eigenvalues --   -0.07577   0.24155   0.36430   0.88662   0.91892
 Alpha virt. eigenvalues --    0.91892   1.02873   1.25060   1.25060   1.25216
 Alpha virt. eigenvalues --    1.44580   1.44580   1.44791   2.14914   2.40846

  Beta  occ. eigenvalues --  -24.71649  -1.11921  -0.42131  -0.42131  -0.33295
  Beta virt. eigenvalues --   -0.25129  -0.06526   0.23971   0.37890   0.93367
  Beta virt. eigenvalues --    0.93367   0.97571   1.06742   1.24077   1.24077
  Beta virt. eigenvalues --    1.24271   1.45851   1.46098   1.46098   2.15227

 Mulliken charges and spin densities:
               1          2
     1  H    0.024026  -0.971227
     2  H    0.000321   0.997918
     3  F   -0.024348   0.973309
 Sum of Mulliken charges =  -0.00000   1.00000

 Dipole moment (field-independent basis, Debye):
    X=             -0.4058    Y=              0.0000    Z=              0.0000  Tot=              0.4058
 Quadrupole moment (field-independent basis, Debye-Ang):
   XX=             -7.9092   YY=             -7.6164   ZZ=             -7.6164
   XY=             -0.0000   XZ=             -0.0000   YZ=             -0.0000

  Exact polarizability:      29.912      -0.000       2.029      -0.000      -0.000       2.029
 Approx polarizability:      27.338      -0.000       1.929      -0.000       0.000       1.929

 ******    2 imaginary frequencies (negative Signs) ******

                      1                      2                      3
                      A                      A                      A
 Frequencies --   -312.9813              -113.8998               106.1733
 Red. masses --      1.0402                 1.0718                 1.0191
 Frc consts  --      0.0600                 0.0082                 0.0068
 IR Inten    --     25.7881                 0.9617                 0.5312

                      4
                      A
 Frequencies --    106.1733
 Red. masses --      1.0191
 Frc consts  --      0.0068
 IR Inten    --      0.5312

 - Thermochemistry -
 -------------------
 Temperature   298.150 Kelvin.  Pressure   1.00000 Atm.
 Atom     1 has atomic number  1 and mass   1.00783

 Molecular mass:    21.01405 amu.
 Principal axes and moments of inertia in atomic units:
                           1         2         3
     Eigenvalues --     0.00000 181.49614 181.49614
           X            1.00000  -0.00000   0.00000
           Y            0.00000   1.00000   0.00000
           Z            0.00000   0.00000   1.00000
 This molecule is a prolate symmetric top.
 Rotational symmetry number  1.
 Rotational temperature (Kelvin)      0.47722
 Rotational constant (GHZ):           9.943689
    2 imaginary frequencies ignored.
 Zero-point vibrational energy       1270.1 (Joules/Mol)
                                    0.30356 (Kcal/Mol)
 Warning -- explicit consideration of   2 degrees of freedom as
           vibrations may cause significant error
 Vibrational temperatures:    152.76   152.76
          (Kelvin)

 Zero-point correction=                           0.000484 (Hartree/Particle)
 Thermal correction to Energy=                    0.004290
 Thermal correction to Enthalpy=                  0.005234
 Thermal correction to Gibbs Free Energy=        -0.022276
 Sum of electronic and zero-point Energies=           -100.759519
 Sum of electronic and thermal Energies=              -100.755713
 Sum of electronic and thermal Enthalpies=            -100.754769
 Sum of electronic and thermal Free Energies=         -100.782279

                     E (Thermal)             CV                S
                      KCal/Mol        Cal/Mol-Kelvin    Cal/Mol-Kelvin
 Total                    2.692              8.857             57.900
 Electronic               0.000              0.000              1.377
 Translational            0.889              2.981             35.068
 Rotational               0.592              1.987             14.780
 Vibrational              1.211              3.889              6.675
 Vibration     1          0.605              1.944              3.338
 Vibration     2          0.605              1.944              3.338

 Normal termination of Gaussian 16 at Fri Aug 22 20:24:54 2025.
