 Gaussian 16, Revision C.01,
 Gaussian 16:  ES64L-G16RevC.01  3-Jul-2019

 -----------------------------------------
 # sp b3lyp/6-311g** Force nosymm scf=(qc)
 -----------------------------------------

 -------------------
 Title Card Required
 -------------------
 Symbolic Z-matrix:
 Charge =  0 Multiplicity = 2

                          Input orientation:
 ---------------------------------------------------------------------
 Center     Atomic      Atomic             Coordinates (Angstroms)
 Number     Number       Type             X           Y           Z
 ---------------------------------------------------------------------
      1          1           0        0.000000    0.000000    0.000000
      2          1           0       -3.600000    0.000000    0.000000
      3          9           0        1.850000    0.000000    0.000000
 ---------------------------------------------------------------------

 SCF Done:  E(UB3LYP) =  -100.799078051     a.u. after   19 cycles

 Alpha  occ. eigenvalues --  -24.64925  -1.07551  -0.38979  -0.36673  -0.36673
 Alpha  occ. eigenvalues --   -0.33507
 Alpha virt. eigenvalues --   -0.19628   0.19645   0.27240   0.92110   0.95021
 Alpha virt. eigenvalues --    0.95021   1.07992   1.23129   1.23129   1.23976
 Alpha virt. eigenvalues --    1.23976   1.23997   1.62065   2.11034   2.15088

  Beta  occ. eigenvalues --  -24.66969  -1.13204  -0.45808  -0.38673  -0.38673
  Beta virt. eigenvalues --   -0.14964  -0.05168   0.27172   0.39412   0.91474
  Beta virt. eigenvalues --    0.94861   0.94861   1.05749   1.34074   1.34074
  Beta virt. eigenvalues --    1.46943   1.46943   1.47139   1.67630   2.26517

 Mulliken charges and spin densities:
               1          2
     1  H    0.240018   0.643786
     2  H    0.001206   0.998834
     3  F   -0.241224  -0.642620
 Sum of Mulliken charges =   0.00000   1.00000

 Dipole moment (field-independent basis, Debye):
    X=             -2.2055    Y=             -0.0000    Z=              0.0000  Tot=              2.2055
 Quadrupole moment (field-independent basis, Debye-Ang):
   XX=            -10.2152   YY=             -7.4449   ZZ=             -7.4449
   XY=              0.0000   XZ=             -0.0000   YZ=             -0.0000

  Exact polarizability:      23.830       0.000       2.087      -0.000       0.000       2.087
 Approx polarizability:      36.779      -0.000       1.975       0.000       0.000       1.975

 ******    1 imaginary frequencies (negative Signs) ******

                      1                      2                      3
                      A                      A                      A
 Frequencies --  -1402.8190                41.0313               605.4748
 Red. masses --      1.0586                 1.0529                 1.0276
 Frc consts  --      1.2274                 0.0010                 0.2220
 IR Inten    --    128.4761                 0.2061                53.8803

                      4
                      A
 Frequencies --    605.4748
 Red. masses --      1.0276
 Frc consts  --      0.2220
 IR Inten    --     53.8803

 - Thermochemistry -
 -------------------
 Temperature   298.150 Kelvin.  Pressure   1.00000 Atm.
 Atom     1 has atomic number  1 and mass   1.00783

 Molecular mass:    21.01405 amu.
 Principal axes and moments of inertia in atomic units:
                           1         2         3
     Eigenvalues --     0.00000 110.01894 110.01894
           X            1.00000  -0.00000   0.00000
           Y            0.00000   1.00000   0.00000
           Z            0.00000   0.00000   1.00000
 This molecule is a prolate symmetric top.
 Rotational symmetry number  1.
 Rotational temperature (Kelvin)      0.78726
 Rotational constant (GHZ):          16.403914
    1 imaginary frequencies ignored.
 Zero-point vibrational energy       7488.5 (Joules/Mol)
                                    1.78980 (Kcal/Mol)
 Warning -- explicit consideration of   3 degrees of freedom as
           vibrations may cause significant error
 Vibrational temperatures:     59.03   871.14   871.14
          (Kelvin)

 Zero-point correction=                           0.002852 (Hartree/Particle)
 Thermal correction to Energy=                    0.006380
 Thermal correction to Enthalpy=                  0.007325
 Thermal correction to Gibbs Free Energy=        -0.019435
 Sum of electronic and zero-point Energies=           -100.796226
 Sum of electronic and thermal Energies=              -100.792698
 Sum of electronic and thermal Enthalpies=            -100.791753
 Sum of electronic and thermal Free Energies=         -100.818513

                     E (Thermal)             CV                S
                      KCal/Mol        Cal/Mol-Kelvin    Cal/Mol-Kelvin
 Total                    4.004              8.989             56.320
 Electronic               0.000              0.000              1.377
 Translational            0.889              2.981             35.068
 Rotational               0.592              1.987             13.785
 Vibrational              2.523              4.021              6.089
 Vibration     1          0.594              1.981              5.209
 Vibration     2          0.964              1.020              0.440
 Vibration     3          0.964              1.020              0.440

 Normal termination of Gaussian 16 at Fri Aug 22 16:48:19 2025.
