 Gaussian 16, Revision C.01,
 Gaussian 16:  ES64L-G16RevC.01  3-Jul-2019

 -----------------------------------------
 # sp b3lyp/6-311g** Force nosymm scf=(qc)
 -----------------------------------------

 -------------------
 Title Card Required
 -------------------
 Symbolic Z-matrix:
 Charge =  0 Multiplicity = 2

                          Input orientation:
 ---------------------------------------------------------------------
 Center     Atomic      Atomic             Coordinates (Angstroms)
 Number     Number       Type             X           Y           Z
 ---------------------------------------------------------------------
      1          1           0        0.000000    0.000000    0.000000
      2          1           0       -3.000000    0.000000    0.000000
      3          9           0        2.350000    0.000000    0.000000
 ---------------------------------------------------------------------

 SCF Done:  E(UB3LYP) =  -100.772108285     a.u. after   23 cycles

 Alpha  occ. eigenvalues --  -24.70806  -1.17069  -0.49890  -0.41927  -0.41927
 Alpha  occ. eigenvalues --   -0.33395
 Alpha virt. eigenvalues --   -0.11596   0.23825   0.33949   0.89245   0.94081
 Alpha virt. eigenvalues --    0.94081   1.06491   1.24149   1.24149   1.25045
 Alpha virt. eigenvalues --    1.38868   1.38868   1.46947   2.14855   2.33593

  Beta  occ. eigenvalues --  -24.68057  -1.09274  -0.39193  -0.39193  -0.36005
  Beta virt. eigenvalues --   -0.22722  -0.07964   0.24509   0.36714   0.94240
  Beta virt. eigenvalues --    0.95348   0.95348   1.08650   1.21757   1.21757
  Beta virt. eigenvalues --    1.34868   1.44440   1.44440   1.44630   2.13149

 Mulliken charges and spin densities:
               1          2
     1  H    0.110452  -0.859709
     2  H    0.003804   0.992366
     3  F   -0.114256   0.867344
 Sum of Mulliken charges =   0.00000   1.00000

 Dipole moment (field-independent basis, Debye):
    X=             -1.4117    Y=              0.0000    Z=             -0.0000  Tot=              1.4117
 Quadrupole moment (field-independent basis, Debye-Ang):
   XX=             -9.4037   YY=             -7.5637   ZZ=             -7.5637
   XY=              0.0000   XZ=             -0.0000   YZ=             -0.0000

  Exact polarizability:      33.106       0.000       2.028      -0.000      -0.000       2.028
 Approx polarizability:      41.311       0.000       1.921      -0.000       0.000       1.921

 ******    2 imaginary frequencies (negative Signs) ******

                      1                      2                      3
                      A                      A                      A
 Frequencies --   -754.8854              -217.2172               304.8009
 Red. masses --      1.0483                 1.0633                 1.0212
 Frc consts  --      0.3520                 0.0296                 0.0559
 IR Inten    --     88.5941                 2.6782                11.1345

                      4
                      A
 Frequencies --    304.8009
 Red. masses --      1.0212
 Frc consts  --      0.0559
 IR Inten    --     11.1345

 - Thermochemistry -
 -------------------
 Temperature   298.150 Kelvin.  Pressure   1.00000 Atm.
 Atom     1 has atomic number  1 and mass   1.00783

 Molecular mass:    21.01405 amu.
 Principal axes and moments of inertia in atomic units:
                           1         2         3
     Eigenvalues --     0.00000 112.65428 112.65428
           X            1.00000  -0.00000   0.00000
           Y            0.00000   1.00000   0.00000
           Z            0.00000   0.00000   1.00000
 This molecule is a prolate symmetric top.
 Rotational symmetry number  1.
 Rotational temperature (Kelvin)      0.76885
 Rotational constant (GHZ):          16.020174
    2 imaginary frequencies ignored.
 Zero-point vibrational energy       3646.2 (Joules/Mol)
                                    0.87147 (Kcal/Mol)
 Warning -- explicit consideration of   2 degrees of freedom as
           vibrations may cause significant error
 Vibrational temperatures:    438.54   438.54
          (Kelvin)

 Zero-point correction=                           0.001389 (Hartree/Particle)
 Thermal correction to Energy=                    0.004578
 Thermal correction to Enthalpy=                  0.005522
 Thermal correction to Gibbs Free Energy=        -0.019688
 Sum of electronic and zero-point Energies=           -100.770720
 Sum of electronic and thermal Energies=              -100.767531
 Sum of electronic and thermal Enthalpies=            -100.766586
 Sum of electronic and thermal Free Energies=         -100.791796

                     E (Thermal)             CV                S
                      KCal/Mol        Cal/Mol-Kelvin    Cal/Mol-Kelvin
 Total                    2.872              8.297             53.058
 Electronic               0.000              0.000              1.377
 Translational            0.889              2.981             35.068
 Rotational               0.592              1.987             13.832
 Vibrational              1.391              3.329              2.781
 Vibration     1          0.696              1.665              1.390
 Vibration     2          0.696              1.665              1.390

 Normal termination of Gaussian 16 at Fri Aug 22 17:27:17 2025.
