 Gaussian 16, Revision C.01,
 Gaussian 16:  ES64L-G16RevC.01  3-Jul-2019

 -----------------------------------------
 # sp b3lyp/6-311g** Force nosymm scf=(qc)
 -----------------------------------------

 -------------------
 Title Card Required
 -------------------
 Symbolic Z-matrix:
 Charge =  0 Multiplicity = 2

                          Input orientation:
 ---------------------------------------------------------------------
 Center     Atomic      Atomic             Coordinates (Angstroms)
 Number     Number       Type             X           Y           Z
 ---------------------------------------------------------------------
      1          1           0        0.000000    0.000000    0.000000
      2          1           0       -3.400000    0.000000    0.000000
      3          9           0        2.600000    0.000000    0.000000
 ---------------------------------------------------------------------

 SCF Done:  E(UB3LYP) =  -100.765672120     a.u. after   19 cycles

 Alpha  occ. eigenvalues --  -24.72300  -1.18482  -0.51409  -0.43180  -0.43180
 Alpha  occ. eigenvalues --   -0.32858
 Alpha virt. eigenvalues --   -0.09856   0.23705   0.35422   0.89921   0.93312
 Alpha virt. eigenvalues --    0.93312   1.06043   1.24655   1.24655   1.24903
 Alpha virt. eigenvalues --    1.41452   1.41452   1.43887   2.14687   2.37112

  Beta  occ. eigenvalues --  -24.69409  -1.10239  -0.40295  -0.40295  -0.34968
  Beta virt. eigenvalues --   -0.23702  -0.06892   0.24086   0.37728   0.94711
  Beta virt. eigenvalues --    0.94711   0.97137   1.08759   1.22409   1.22409
  Beta virt. eigenvalues --    1.27245   1.45518   1.45786   1.45786   2.13570

 Mulliken charges and spin densities:
               1          2
     1  H    0.075687  -0.911571
     2  H    0.001017   0.997347
     3  F   -0.076705   0.914224
 Sum of Mulliken charges =  -0.00000   1.00000

 Dipole moment (field-independent basis, Debye):
    X=             -1.0344    Y=             -0.0000    Z=              0.0000  Tot=              1.0344
 Quadrupole moment (field-independent basis, Debye-Ang):
   XX=             -9.0937   YY=             -7.5835   ZZ=             -7.5835
   XY=             -0.0000   XZ=              0.0000   YZ=              0.0000

  Exact polarizability:      32.026      -0.000       2.024       0.000       0.000       2.024
 Approx polarizability:      38.687      -0.000       1.921       0.000      -0.000       1.921

 ******    2 imaginary frequencies (negative Signs) ******

                      1                      2                      3
                      A                      A                      A
 Frequencies --   -563.1351              -135.3689               215.0440
 Red. masses --      1.0518                 1.0598                 1.0215
 Frc consts  --      0.1965                 0.0114                 0.0278
 IR Inten    --     71.1248                 0.5439                 5.4222

                      4
                      A
 Frequencies --    215.0440
 Red. masses --      1.0215
 Frc consts  --      0.0278
 IR Inten    --      5.4222

 - Thermochemistry -
 -------------------
 Temperature   298.150 Kelvin.  Pressure   1.00000 Atm.
 Atom     1 has atomic number  1 and mass   1.00783

 Molecular mass:    21.01405 amu.
 Principal axes and moments of inertia in atomic units:
                           1         2         3
     Eigenvalues --     0.00000 141.12760 141.12760
           X            1.00000  -0.00000   0.00000
           Y            0.00000   1.00000   0.00000
           Z            0.00000   0.00000   1.00000
 This molecule is a prolate symmetric top.
 Rotational symmetry number  1.
 Rotational temperature (Kelvin)      0.61373
 Rotational constant (GHZ):          12.788011
    2 imaginary frequencies ignored.
 Zero-point vibrational energy       2572.5 (Joules/Mol)
                                    0.61484 (Kcal/Mol)
 Warning -- explicit consideration of   2 degrees of freedom as
           vibrations may cause significant error
 Vibrational temperatures:    309.40   309.40
          (Kelvin)

 Zero-point correction=                           0.000980 (Hartree/Particle)
 Thermal correction to Energy=                    0.004415
 Thermal correction to Enthalpy=                  0.005360
 Thermal correction to Gibbs Free Energy=        -0.020643
 Sum of electronic and zero-point Energies=           -100.764692
 Sum of electronic and thermal Energies=              -100.761257
 Sum of electronic and thermal Enthalpies=            -100.760313
 Sum of electronic and thermal Free Energies=         -100.786315

                     E (Thermal)             CV                S
                      KCal/Mol        Cal/Mol-Kelvin    Cal/Mol-Kelvin
 Total                    2.771              8.604             54.726
 Electronic               0.000              0.000              1.377
 Translational            0.889              2.981             35.068
 Rotational               0.592              1.987             14.280
 Vibrational              1.289              3.636              4.001
 Vibration     1          0.645              1.818              2.000
 Vibration     2          0.645              1.818              2.000

 Normal termination of Gaussian 16 at Fri Aug 22 18:05:06 2025.
