 Gaussian 16, Revision C.01,
 Gaussian 16:  ES64L-G16RevC.01  3-Jul-2019

 -----------------------------------------
 # sp b3lyp/6-311g** Force nosymm scf=(qc)
 -----------------------------------------

 -------------------
 Title Card Required
 -------------------
 Symbolic Z-matrix:
 Charge =  0 Multiplicity = 2

                          Input orientation:
 ---------------------------------------------------------------------
 Center     Atomic      Atomic             Coordinates (Angstroms)
 Number     Number       Type             X           Y           Z
 ---------------------------------------------------------------------
      1          1           0        0.000000    0.000000    0.000000
      2          1           0       -0.900000    0.000000    0.000000
      3          9           0        2.500000    0.000000    0.000000
 ---------------------------------------------------------------------

 SCF Done:  E(UB3LYP) =  -100.922153078     a.u. after    7 cycles

 Alpha  occ. eigenvalues --  -24.75849  -1.21774  -0.55067  -0.46166  -0.46166
 Alpha  occ. eigenvalues --   -0.41229
 Alpha virt. eigenvalues --    0.02665   0.20769   0.42252   0.89706   0.91069
 Alpha virt. eigenvalues --    0.91069   1.07536   1.07536   1.10832   1.44962
 Alpha virt. eigenvalues --    1.71423   1.71423   2.18157   2.37867   2.73275

  Beta  occ. eigenvalues --  -24.72739  -1.12845  -0.43051  -0.43051  -0.41160
  Beta virt. eigenvalues --   -0.26128   0.03134   0.21058   0.42610   0.92538
  Beta virt. eigenvalues --    0.92538   0.98108   1.07723   1.07723   1.15132
  Beta virt. eigenvalues --    1.45269   1.71552   1.71552   2.18377   2.38056

 Mulliken charges and spin densities:
               1          2
     1  H   -0.011509  -0.012620
     2  H    0.019155   0.029333
     3  F   -0.007646   0.983287
 Sum of Mulliken charges =   0.00000   1.00000

 Dipole moment (field-independent basis, Debye):
    X=             -0.1838    Y=              0.0000    Z=             -0.0000  Tot=              0.1838
 Quadrupole moment (field-independent basis, Debye-Ang):
   XX=             -5.7051   YY=             -7.1403   ZZ=             -7.1403
   XY=              0.0000   XZ=             -0.0000   YZ=             -0.0000

  Exact polarizability:      17.777       0.000       2.050      -0.000       0.000       2.050
 Approx polarizability:      19.894       0.000       2.114      -0.000       0.000       2.114

 ******    1 imaginary frequencies (negative Signs) ******

                      1                      2                      3
                      A                      A                      A
 Frequencies --   -159.8345              1430.6420              1430.6420
 Red. masses --      1.1085                 1.0101                 1.0101
 Frc consts  --      0.0167                 1.2181                 1.2181
 IR Inten    --      6.6196                 0.2813                 0.2813

                      4
                      A
 Frequencies --   2604.0579
 Red. masses --      1.0078
 Frc consts  --      4.0266
 IR Inten    --     66.2629

 - Thermochemistry -
 -------------------
 Temperature   298.150 Kelvin.  Pressure   1.00000 Atm.
 Atom     1 has atomic number  1 and mass   1.00783

 Molecular mass:    21.01405 amu.
 Principal axes and moments of inertia in atomic units:
                           1         2         3
     Eigenvalues --     0.00000  58.08990  58.08990
           X            1.00000  -0.00000   0.00000
           Y            0.00000   1.00000   0.00000
           Z            0.00000   0.00000   1.00000
 This molecule is a prolate symmetric top.
 Rotational symmetry number  1.
 Rotational temperature (Kelvin)      1.49103
 Rotational constant (GHZ):          31.068075
    1 imaginary frequencies ignored.
 Zero-point vibrational energy      32690.0 (Joules/Mol)
                                    7.81310 (Kcal/Mol)
 Vibrational temperatures:   2058.37  2058.37  3746.66
          (Kelvin)

 Zero-point correction=                           0.012451 (Hartree/Particle)
 Thermal correction to Energy=                    0.014825
 Thermal correction to Enthalpy=                  0.015769
 Thermal correction to Gibbs Free Energy=        -0.007509
 Sum of electronic and zero-point Energies=           -100.909702
 Sum of electronic and thermal Energies=              -100.907329
 Sum of electronic and thermal Enthalpies=            -100.906384
 Sum of electronic and thermal Free Energies=         -100.929662

                     E (Thermal)             CV                S
                      KCal/Mol        Cal/Mol-Kelvin    Cal/Mol-Kelvin
 Total                    9.303              5.160             48.993
 Electronic               0.000              0.000              1.377
 Translational            0.889              2.981             35.068
 Rotational               0.592              1.987             12.516
 Vibrational              7.821              0.192              0.032

 Normal termination of Gaussian 16 at Fri Aug 22 17:42:56 2025.
