 Gaussian 16, Revision C.01,
 Gaussian 16:  ES64L-G16RevC.01  3-Jul-2019

 -----------------------------------------
 # sp b3lyp/6-311g** Force nosymm scf=(qc)
 -----------------------------------------

 -------------------
 Title Card Required
 -------------------
 Symbolic Z-matrix:
 Charge =  0 Multiplicity = 2

                          Input orientation:
 ---------------------------------------------------------------------
 Center     Atomic      Atomic             Coordinates (Angstroms)
 Number     Number       Type             X           Y           Z
 ---------------------------------------------------------------------
      1          1           0        0.000000    0.000000    0.000000
      2          1           0       -2.800000    0.000000    0.000000
      3          9           0        4.000000    0.000000    0.000000
 ---------------------------------------------------------------------

 SCF Done:  E(UB3LYP) =  -100.760271702     a.u. after   45 cycles

 Alpha  occ. eigenvalues --  -24.75895  -1.21822  -0.55020  -0.46197  -0.46197
 Alpha  occ. eigenvalues --   -0.32394
 Alpha virt. eigenvalues --   -0.08208   0.25396   0.35882   0.86555   0.91158
 Alpha virt. eigenvalues --    0.91158   1.01070   1.25170   1.25170   1.26282
 Alpha virt. eigenvalues --    1.43569   1.43569   1.43902   2.16038   2.38707

  Beta  occ. eigenvalues --  -24.72749  -1.12775  -0.43043  -0.43043  -0.32550
  Beta virt. eigenvalues --   -0.25744  -0.08008   0.25249   0.36133   0.92657
  Beta virt. eigenvalues --    0.92657   0.95941   1.05201   1.25003   1.25003
  Beta virt. eigenvalues --    1.26097   1.43861   1.43861   1.44193   2.16069

 Mulliken charges and spin densities:
               1          2
     1  H    0.001861  -0.984348
     2  H    0.000411   0.986914
     3  F   -0.002272   0.997434
 Sum of Mulliken charges =   0.00000   1.00000

 Dipole moment (field-independent basis, Debye):
    X=             -0.0525    Y=              0.0000    Z=             -0.0000  Tot=              0.0525
 Quadrupole moment (field-independent basis, Debye-Ang):
   XX=             -6.7873   YY=             -7.6458   ZZ=             -7.6458
   XY=              0.0000   XZ=             -0.0000   YZ=             -0.0000

  Exact polarizability:      14.924       0.000       2.027      -0.000       0.000       2.027
 Approx polarizability:      11.334       0.000       1.933      -0.000       0.000       1.933

 ******    2 imaginary frequencies (negative Signs) ******

                      1                      2                      3
                      A                      A                      A
 Frequencies --   -434.6598               -74.6058               156.7288
 Red. masses --      1.0079                 1.1084                 1.0142
 Frc consts  --      0.1122                 0.0036                 0.0147
 IR Inten    --      0.5305                 0.5719                 0.0027

                      4
                      A
 Frequencies --    156.7288
 Red. masses --      1.0142
 Frc consts  --      0.0147
 IR Inten    --      0.0027

 - Thermochemistry -
 -------------------
 Temperature   298.150 Kelvin.  Pressure   1.00000 Atm.
 Atom     1 has atomic number  1 and mass   1.00783

 Molecular mass:    21.01405 amu.
 Principal axes and moments of inertia in atomic units:
                           1         2         3
     Eigenvalues --     0.00000 203.86942 203.86942
           X            1.00000  -0.00000   0.00000
           Y            0.00000   1.00000   0.00000
           Z            0.00000   0.00000   1.00000
 This molecule is a prolate symmetric top.
 Rotational symmetry number  1.
 Rotational temperature (Kelvin)      0.42485
 Rotational constant (GHZ):           8.852437
    2 imaginary frequencies ignored.
 Zero-point vibrational energy       1874.9 (Joules/Mol)
                                    0.44811 (Kcal/Mol)
 Warning -- explicit consideration of   2 degrees of freedom as
           vibrations may cause significant error
 Vibrational temperatures:    225.50   225.50
          (Kelvin)

 Zero-point correction=                           0.000714 (Hartree/Particle)
 Thermal correction to Energy=                    0.004338
 Thermal correction to Enthalpy=                  0.005282
 Thermal correction to Gibbs Free Energy=        -0.021626
 Sum of electronic and zero-point Energies=           -100.759558
 Sum of electronic and thermal Energies=              -100.755934
 Sum of electronic and thermal Enthalpies=            -100.754990
 Sum of electronic and thermal Free Energies=         -100.781898

                     E (Thermal)             CV                S
                      KCal/Mol        Cal/Mol-Kelvin    Cal/Mol-Kelvin
 Total                    2.722              8.758             56.634
 Electronic               0.000              0.000              1.377
 Translational            0.889              2.981             35.068
 Rotational               0.592              1.987             15.011
 Vibrational              1.241              3.790              5.178
 Vibration     1          0.620              1.895              2.589
 Vibration     2          0.620              1.895              2.589

 Normal termination of Gaussian 16 at Sat Aug 23 01:56:12 2025.
