 Gaussian 16, Revision C.01,
 Gaussian 16:  ES64L-G16RevC.01  3-Jul-2019

 -----------------------------------------
 # sp b3lyp/6-311g** Force nosymm scf=(qc)
 -----------------------------------------

 -------------------
 Title Card Required
 -------------------
 Symbolic Z-matrix:
 Charge =  0 Multiplicity = 2

                          Input orientation:
 ---------------------------------------------------------------------
 Center     Atomic      Atomic             Coordinates (Angstroms)
 Number     Number       Type             X           Y           Z
 ---------------------------------------------------------------------
      1          1           0        0.000000    0.000000    0.000000
      2          1           0       -3.950000    0.000000    0.000000
      3          9           0        0.900000    0.000000    0.000000
 ---------------------------------------------------------------------

 SCF Done:  E(UB3LYP) =  -100.971436524     a.u. after    5 cycles

 Alpha  occ. eigenvalues --  -24.64006  -1.19058  -0.53868  -0.39666  -0.39666
 Alpha  occ. eigenvalues --   -0.33317
 Alpha virt. eigenvalues --    0.03115   0.23872   0.39646   0.94323   0.94323
 Alpha virt. eigenvalues --    0.97734   1.24117   1.24189   1.24189   1.28915
 Alpha virt. eigenvalues --    1.37251   1.37251   2.00162   2.14254   2.37163

  Beta  occ. eigenvalues --  -24.64006  -1.19056  -0.53867  -0.39665  -0.39665
  Beta virt. eigenvalues --   -0.04858   0.03307   0.37545   0.40981   0.94323
  Beta virt. eigenvalues --    0.94323   0.97733   1.28854   1.37250   1.37250
  Beta virt. eigenvalues --    1.50589   1.51069   1.51069   2.00348   2.37022

 Mulliken charges and spin densities:
               1          2
     1  H    0.295991   0.000264
     2  H    0.000351   0.999610
     3  F   -0.296342   0.000126
 Sum of Mulliken charges =   0.00000   1.00000

 Dipole moment (field-independent basis, Debye):
    X=             -1.8840    Y=              0.0000    Z=             -0.0000  Tot=              1.8840
 Quadrupole moment (field-independent basis, Debye-Ang):
   XX=             -7.9541   YY=             -6.8691   ZZ=             -6.8691
   XY=              0.0000   XZ=             -0.0000   YZ=              0.0000

  Exact polarizability:       5.272      -0.000       2.422      -0.000      -0.000       2.422
 Approx polarizability:       6.234       0.000       2.399      -0.000      -0.000       2.399

 ******    3 imaginary frequencies (negative Signs) ******

                      1                      2                      3
                      A                      A                      A
 Frequencies --   -627.4177              -627.4177               -28.8875
 Red. masses --      1.0402                 1.0402                 1.0532
 Frc consts  --      0.2413                 0.2413                 0.0005
 IR Inten    --    183.8133               183.8133                 0.0103

                      4
                      A
 Frequencies --   4432.3723
 Red. masses --      1.0583
 Frc consts  --     12.2500
 IR Inten    --     96.7382

 - Thermochemistry -
 -------------------
 Temperature   298.150 Kelvin.  Pressure   1.00000 Atm.
 Atom     1 has atomic number  1 and mass   1.00783

 Molecular mass:    21.01405 amu.
 Principal axes and moments of inertia in atomic units:
                           1         2         3
     Eigenvalues --     0.00000  81.86606  81.86606
           X            1.00000  -0.00000   0.00000
           Y            0.00000   1.00000   0.00000
           Z            0.00000   0.00000   1.00000
 This molecule is a prolate symmetric top.
 Rotational symmetry number  1.
 Rotational temperature (Kelvin)      1.05800
 Rotational constant (GHZ):          22.045048
    3 imaginary frequencies ignored.
 Zero-point vibrational energy      26511.5 (Joules/Mol)
                                    6.33639 (Kcal/Mol)
 Vibrational temperatures:   6377.20
          (Kelvin)

 Zero-point correction=                           0.010098 (Hartree/Particle)
 Thermal correction to Energy=                    0.012458
 Thermal correction to Enthalpy=                  0.013402
 Thermal correction to Gibbs Free Energy=        -0.010185
 Sum of electronic and zero-point Energies=           -100.961339
 Sum of electronic and thermal Energies=              -100.958978
 Sum of electronic and thermal Enthalpies=            -100.958034
 Sum of electronic and thermal Free Energies=         -100.981621

                     E (Thermal)             CV                S
                      KCal/Mol        Cal/Mol-Kelvin    Cal/Mol-Kelvin
 Total                    7.818              4.968             49.643
 Electronic               0.000              0.000              1.377
 Translational            0.889              2.981             35.068
 Rotational               0.592              1.987             13.197
 Vibrational              6.336              0.000              0.000

 Normal termination of Gaussian 16 at Fri Aug 22 15:57:02 2025.
