 Gaussian 16, Revision C.01,
 Gaussian 16:  ES64L-G16RevC.01  3-Jul-2019

 -----------------------------------------
 # sp b3lyp/6-311g** Force nosymm scf=(qc)
 -----------------------------------------

 -------------------
 Title Card Required
 -------------------
 Symbolic Z-matrix:
 Charge =  0 Multiplicity = 2

                          Input orientation:
 ---------------------------------------------------------------------
 Center     Atomic      Atomic             Coordinates (Angstroms)
 Number     Number       Type             X           Y           Z
 ---------------------------------------------------------------------
      1          1           0        0.000000    0.000000    0.000000
      2          1           0       -0.800000    0.000000    0.000000
      3          9           0        3.950000    0.000000    0.000000
 ---------------------------------------------------------------------

 SCF Done:  E(UB3LYP) =  -100.931786381     a.u. after   85 cycles

 Alpha  occ. eigenvalues --  -24.76182  -1.22078  -0.55282  -0.46456  -0.46438
 Alpha  occ. eigenvalues --   -0.42210
 Alpha virt. eigenvalues --    0.04719   0.20104   0.44930   0.86088   0.90966
 Alpha virt. eigenvalues --    0.91623   1.01037   1.08264   1.08266   1.52113
 Alpha virt. eigenvalues --    1.78926   1.78929   2.03701   2.37836   3.05350

  Beta  occ. eigenvalues --  -24.73026  -1.13004  -0.43297  -0.43274  -0.42205
  Beta virt. eigenvalues --   -0.25931   0.04723   0.20107   0.44950   0.92466
  Beta virt. eigenvalues --    0.93113   0.95554   1.05178   1.08264   1.08266
  Beta virt. eigenvalues --    1.52115   1.78926   1.78928   2.03707   2.37836

 Mulliken charges and spin densities:
               1          2
     1  H    0.000429  -0.000133
     2  H   -0.001679  -0.000001
     3  F    0.001249   1.000134
 Sum of Mulliken charges =   0.00000   1.00000

 Dipole moment (field-independent basis, Debye):
    X=              0.0206    Y=             -0.0000    Z=              0.0000  Tot=              0.0206
 Quadrupole moment (field-independent basis, Debye-Ang):
   XX=             -6.3150   YY=             -6.9988   ZZ=             -6.1733
   XY=              0.0000   XZ=             -0.0000   YZ=             -0.1286

  Exact polarizability:       8.732       0.000       1.994      -0.000      -0.069       2.439
 Approx polarizability:      10.366       0.000       2.067      -0.000      -0.087       2.624

 ******    1 imaginary frequencies (negative Signs) ******

                      1                      2                      3
                      A                      A                      A
 Frequencies --    -60.6041              1067.5631              1070.4697
 Red. masses --      1.1085                 1.0087                 1.0087
 Frc consts  --      0.0024                 0.6773                 0.6810
 IR Inten    --      0.0428                 0.0007                 0.0002

                      4
                      A
 Frequencies --   3694.5265
 Red. masses --      1.0078
 Frc consts  --      8.1050
 IR Inten    --      0.0256

 - Thermochemistry -
 -------------------
 Temperature   298.150 Kelvin.  Pressure   1.00000 Atm.
 Atom     1 has atomic number  1 and mass   1.00783

 Molecular mass:    21.01405 amu.
 Principal axes and moments of inertia in atomic units:
                           1         2         3
     Eigenvalues --     0.00000 124.29154 124.29154
           X            1.00000  -0.00000   0.00000
           Y            0.00000   1.00000   0.00000
           Z            0.00000   0.00000   1.00000
 This molecule is a prolate symmetric top.
 Rotational symmetry number  1.
 Rotational temperature (Kelvin)      0.69686
 Rotational constant (GHZ):          14.520225
    1 imaginary frequencies ignored.
 Zero-point vibrational energy      34886.5 (Joules/Mol)
                                    8.33806 (Kcal/Mol)
 Vibrational temperatures:   1535.99  1540.17  5315.60
          (Kelvin)

 Zero-point correction=                           0.013288 (Hartree/Particle)
 Thermal correction to Energy=                    0.015704
 Thermal correction to Enthalpy=                  0.016649
 Thermal correction to Gibbs Free Energy=        -0.007400
 Sum of electronic and zero-point Energies=           -100.918499
 Sum of electronic and thermal Energies=              -100.916082
 Sum of electronic and thermal Enthalpies=            -100.915138
 Sum of electronic and thermal Free Energies=         -100.939186

                     E (Thermal)             CV                S
                      KCal/Mol        Cal/Mol-Kelvin    Cal/Mol-Kelvin
 Total                    9.855              5.583             50.614
 Electronic               0.000              0.000              1.377
 Translational            0.889              2.981             35.068
 Rotational               0.592              1.987             14.027
 Vibrational              8.373              0.615              0.141

 Normal termination of Gaussian 16 at Sat Aug 23 01:30:05 2025.
