 Gaussian 16, Revision C.01,
 Gaussian 16:  ES64L-G16RevC.01  3-Jul-2019

 -----------------------------------------
 # sp b3lyp/6-311g** Force nosymm scf=(qc)
 -----------------------------------------

 -------------------
 Title Card Required
 -------------------
 Symbolic Z-matrix:
 Charge =  0 Multiplicity = 2

                          Input orientation:
 ---------------------------------------------------------------------
 Center     Atomic      Atomic             Coordinates (Angstroms)
 Number     Number       Type             X           Y           Z
 ---------------------------------------------------------------------
      1          1           0        0.000000    0.000000    0.000000
      2          1           0       -3.300000    0.000000    0.000000
      3          9           0        0.900000    0.000000    0.000000
 ---------------------------------------------------------------------

 SCF Done:  E(UB3LYP) =  -100.971500638     a.u. after    5 cycles

 Alpha  occ. eigenvalues --  -24.63990  -1.19041  -0.53856  -0.39650  -0.39650
 Alpha  occ. eigenvalues --   -0.33782
 Alpha virt. eigenvalues --    0.03218   0.24708   0.39490   0.94339   0.94339
 Alpha virt. eigenvalues --    0.97756   1.23401   1.23737   1.23737   1.30403
 Alpha virt. eigenvalues --    1.37271   1.37271   2.00851   2.14456   2.37278

  Beta  occ. eigenvalues --  -24.63988  -1.19036  -0.53850  -0.39648  -0.39648
  Beta virt. eigenvalues --   -0.06026   0.03996   0.38525   0.39918   0.94339
  Beta virt. eigenvalues --    0.94339   0.97749   1.29717   1.37270   1.37270
  Beta virt. eigenvalues --    1.50287   1.50490   1.50490   2.00894   2.37236

 Mulliken charges and spin densities:
               1          2
     1  H    0.295067   0.000865
     2  H    0.001322   0.998342
     3  F   -0.296389   0.000793
 Sum of Mulliken charges =   0.00000   1.00000

 Dipole moment (field-independent basis, Debye):
    X=             -1.9011    Y=             -0.0000    Z=             -0.0000  Tot=              1.9011
 Quadrupole moment (field-independent basis, Debye-Ang):
   XX=             -7.8785   YY=             -6.8686   ZZ=             -6.8686
   XY=              0.0000   XZ=             -0.0000   YZ=             -0.0000

  Exact polarizability:       5.827      -0.000       2.429       0.000       0.000       2.429
 Approx polarizability:       6.718       0.000       2.408      -0.000       0.000       2.408

 ******    3 imaginary frequencies (negative Signs) ******

                      1                      2                      3
                      A                      A                      A
 Frequencies --   -624.5745              -624.5745               -52.3161
 Red. masses --      1.0377                 1.0377                 1.0532
 Frc consts  --      0.2385                 0.2385                 0.0017
 IR Inten    --    179.8773               179.8773                 0.0745

                      4
                      A
 Frequencies --   4431.5586
 Red. masses --      1.0583
 Frc consts  --     12.2457
 IR Inten    --    102.4891

 - Thermochemistry -
 -------------------
 Temperature   298.150 Kelvin.  Pressure   1.00000 Atm.
 Atom     1 has atomic number  1 and mass   1.00783

 Molecular mass:    21.01405 amu.
 Principal axes and moments of inertia in atomic units:
                           1         2         3
     Eigenvalues --     0.00000  61.91220  61.91220
           X            1.00000  -0.00000   0.00000
           Y            0.00000   1.00000   0.00000
           Z            0.00000   0.00000   1.00000
 This molecule is a prolate symmetric top.
 Rotational symmetry number  1.
 Rotational temperature (Kelvin)      1.39898
 Rotational constant (GHZ):          29.150008
    3 imaginary frequencies ignored.
 Zero-point vibrational energy      26506.6 (Joules/Mol)
                                    6.33523 (Kcal/Mol)
 Vibrational temperatures:   6376.02
          (Kelvin)

 Zero-point correction=                           0.010096 (Hartree/Particle)
 Thermal correction to Energy=                    0.012456
 Thermal correction to Enthalpy=                  0.013400
 Thermal correction to Gibbs Free Energy=        -0.009923
 Sum of electronic and zero-point Energies=           -100.961405
 Sum of electronic and thermal Energies=              -100.959044
 Sum of electronic and thermal Enthalpies=            -100.958100
 Sum of electronic and thermal Free Energies=         -100.981423

                     E (Thermal)             CV                S
                      KCal/Mol        Cal/Mol-Kelvin    Cal/Mol-Kelvin
 Total                    7.816              4.968             49.088
 Electronic               0.000              0.000              1.377
 Translational            0.889              2.981             35.068
 Rotational               0.592              1.987             12.642
 Vibrational              6.335              0.000              0.000

 Normal termination of Gaussian 16 at Fri Aug 22 15:56:39 2025.
