 Gaussian 16, Revision C.01,
 Gaussian 16:  ES64L-G16RevC.01  3-Jul-2019

 -----------------------------------------
 # sp b3lyp/6-311g** Force nosymm scf=(qc)
 -----------------------------------------

 -------------------
 Title Card Required
 -------------------
 Symbolic Z-matrix:
 Charge =  0 Multiplicity = 2

                          Input orientation:
 ---------------------------------------------------------------------
 Center     Atomic      Atomic             Coordinates (Angstroms)
 Number     Number       Type             X           Y           Z
 ---------------------------------------------------------------------
      1          1           0        0.000000    0.000000    0.000000
      2          1           0       -1.950000    0.000000    0.000000
      3          9           0        0.950000    0.000000    0.000000
 ---------------------------------------------------------------------

 SCF Done:  E(UB3LYP) =  -100.971671477     a.u. after    6 cycles

 Alpha  occ. eigenvalues --  -24.63737  -1.17177  -0.52811  -0.38911  -0.38911
 Alpha  occ. eigenvalues --   -0.36114
 Alpha virt. eigenvalues --    0.05651   0.23920   0.35886   0.94484   0.94484
 Alpha virt. eigenvalues --    0.98116   1.14424   1.21088   1.21088   1.37062
 Alpha virt. eigenvalues --    1.37062   1.50800   1.91571   2.21386   2.35372

  Beta  occ. eigenvalues --  -24.63659  -1.16981  -0.52369  -0.38844  -0.38844
  Beta virt. eigenvalues --   -0.12460   0.07852   0.33635   0.36607   0.94498
  Beta virt. eigenvalues --    0.94498   0.98539   1.23916   1.35691   1.35691
  Beta virt. eigenvalues --    1.41802   1.41802   1.58605   1.96087   2.35008

 Mulliken charges and spin densities:
               1          2
     1  H    0.292898   0.006228
     2  H    0.016886   0.973127
     3  F   -0.309784   0.020645
 Sum of Mulliken charges =   0.00000   1.00000

 Dipole moment (field-independent basis, Debye):
    X=             -2.1356    Y=              0.0000    Z=             -0.0000  Tot=              2.1356
 Quadrupole moment (field-independent basis, Debye-Ang):
   XX=             -7.6394   YY=             -6.8709   ZZ=             -6.8709
   XY=              0.0000   XZ=              0.0000   YZ=              0.0000

  Exact polarizability:       9.953       0.000       2.478      -0.000      -0.000       2.478
 Approx polarizability:      10.662       0.000       2.463      -0.000      -0.000       2.463

                      1                      2                      3
                      A                      A                      A
 Frequencies --    193.0320               623.4181               623.4181
 Red. masses --      1.0524                 1.0285                 1.0285
 Frc consts  --      0.0231                 0.2355                 0.2355
 IR Inten    --      2.1328               138.3697               138.3697

                      4
                      A
 Frequencies --   3635.1865
 Red. masses --      1.0591
 Frc consts  --      8.2461
 IR Inten    --    187.1155

 - Thermochemistry -
 -------------------
 Temperature   298.150 Kelvin.  Pressure   1.00000 Atm.
 Atom     1 has atomic number  1 and mass   1.00783

 Molecular mass:    21.01405 amu.
 Principal axes and moments of inertia in atomic units:
                           1         2         3
     Eigenvalues --     0.00000  30.95730  30.95730
           X            1.00000  -0.00000   0.00000
           Y            0.00000   1.00000   0.00000
           Z            0.00000   0.00000   1.00000
 This molecule is a prolate symmetric top.
 Rotational symmetry number  1.
 Rotational temperature (Kelvin)      2.79785
 Rotational constant (GHZ):          58.297757
 Zero-point vibrational energy      30355.6 (Joules/Mol)
                                    7.25515 (Kcal/Mol)
 Warning -- explicit consideration of   1 degrees of freedom as
           vibrations may cause significant error
 Vibrational temperatures:    277.73   896.96   896.96  5230.22
          (Kelvin)

 Zero-point correction=                           0.011562 (Hartree/Particle)
 Thermal correction to Energy=                    0.014789
 Thermal correction to Enthalpy=                  0.015733
 Thermal correction to Gibbs Free Energy=        -0.008371
 Sum of electronic and zero-point Energies=           -100.960110
 Sum of electronic and thermal Energies=              -100.956882
 Sum of electronic and thermal Enthalpies=            -100.955938
 Sum of electronic and thermal Free Energies=         -100.980042

                     E (Thermal)             CV                S
                      KCal/Mol        Cal/Mol-Kelvin    Cal/Mol-Kelvin
 Total                    9.280              8.783             50.731
 Electronic               0.000              0.000              1.377
 Translational            0.889              2.981             35.068
 Rotational               0.592              1.987             11.265
 Vibrational              7.799              3.815              3.021
 Vibration     1          0.635              1.850              2.199

 Normal termination of Gaussian 16 at Fri Aug 22 15:58:07 2025.
