 Gaussian 16, Revision C.01,
 Gaussian 16:  ES64L-G16RevC.01  3-Jul-2019

 -----------------------------------------
 # sp b3lyp/6-311g** Force nosymm scf=(qc)
 -----------------------------------------

 -------------------
 Title Card Required
 -------------------
 Symbolic Z-matrix:
 Charge =  0 Multiplicity = 2

                          Input orientation:
 ---------------------------------------------------------------------
 Center     Atomic      Atomic             Coordinates (Angstroms)
 Number     Number       Type             X           Y           Z
 ---------------------------------------------------------------------
      1          1           0        0.000000    0.000000    0.000000
      2          1           0       -1.100000    0.000000    0.000000
      3          9           0        2.550000    0.000000    0.000000
 ---------------------------------------------------------------------

 SCF Done:  E(UB3LYP) =  -100.890512084     a.u. after   59 cycles

 Alpha  occ. eigenvalues --  -24.76778  -1.22585  -0.55758  -0.47151  -0.46921
 Alpha  occ. eigenvalues --   -0.37348
 Alpha virt. eigenvalues --   -0.01335   0.22562   0.37488   0.86044   0.90516
 Alpha virt. eigenvalues --    0.92749   1.08622   1.10857   1.10873   1.30693
 Alpha virt. eigenvalues --    1.59970   1.59984   2.17382   2.34922   2.56436

  Beta  occ. eigenvalues --  -24.73630  -1.13543  -0.44056  -0.43766  -0.37241
  Beta virt. eigenvalues --   -0.26507  -0.01204   0.22645   0.37664   0.92003
  Beta virt. eigenvalues --    0.93766   0.96007   1.10920   1.10927   1.12332
  Beta virt. eigenvalues --    1.30866   1.60013   1.60025   2.17456   2.34986

 Mulliken charges and spin densities:
               1          2
     1  H   -0.002763  -0.004802
     2  H   -0.005697   0.008301
     3  F    0.008460   0.996500
 Sum of Mulliken charges =  -0.00000   1.00000

 Dipole moment (field-independent basis, Debye):
    X=              0.0886    Y=             -0.0018    Z=              0.0005  Tot=              0.0887
 Quadrupole moment (field-independent basis, Debye-Ang):
   XX=             -6.0763   YY=             -6.7326   ZZ=             -7.3466
   XY=             -0.3102   XZ=              0.0839   YZ=             -0.1793

  Exact polarizability:     295.057       1.507       2.447      -0.841      -0.098       2.123
 Approx polarizability:      24.014      -0.074       2.574       0.020      -0.119       2.168

 ******    1 imaginary frequencies (negative Signs) ******

                      1                      2                      3
                      A                      A                      A
 Frequencies --  -1434.1197               467.1648              1511.0247
 Red. masses --      1.0330                 1.0796                 1.0109
 Frc consts  --      1.2517                 0.1388                 1.3599
 IR Inten    --  28708.5221               784.1773                91.7140

                      4
                      A
 Frequencies --   1517.0555
 Red. masses --      1.0109
 Frc consts  --      1.3708
 IR Inten    --      2.6725

 - Thermochemistry -
 -------------------
 Temperature   298.150 Kelvin.  Pressure   1.00000 Atm.
 Atom     1 has atomic number  1 and mass   1.00783

 Molecular mass:    21.01405 amu.
 Principal axes and moments of inertia in atomic units:
                           1         2         3
     Eigenvalues --     0.00000  64.71533  64.71533
           X            1.00000  -0.00000   0.00000
           Y            0.00000   1.00000   0.00000
           Z            0.00000   0.00000   1.00000
 This molecule is a prolate symmetric top.
 Rotational symmetry number  1.
 Rotational temperature (Kelvin)      1.33838
 Rotational constant (GHZ):          27.887381
    1 imaginary frequencies ignored.
 Zero-point vibrational energy      20906.2 (Joules/Mol)
                                    4.99670 (Kcal/Mol)
 Warning -- explicit consideration of   1 degrees of freedom as
           vibrations may cause significant error
 Vibrational temperatures:    672.15  2174.03  2182.70
          (Kelvin)

 Zero-point correction=                           0.007963 (Hartree/Particle)
 Thermal correction to Energy=                    0.010582
 Thermal correction to Enthalpy=                  0.011526
 Thermal correction to Gibbs Free Energy=        -0.012204
 Sum of electronic and zero-point Energies=           -100.882549
 Sum of electronic and thermal Energies=              -100.879930
 Sum of electronic and thermal Enthalpies=            -100.878986
 Sum of electronic and thermal Free Energies=         -100.902716

                     E (Thermal)             CV                S
                      KCal/Mol        Cal/Mol-Kelvin    Cal/Mol-Kelvin
 Total                    6.640              6.434             49.943
 Electronic               0.000              0.000              1.377
 Translational            0.889              2.981             35.068
 Rotational               0.592              1.987             12.730
 Vibrational              5.159              1.466              0.768
 Vibration     1          0.824              1.323              0.746

 Normal termination of Gaussian 16 at Fri Aug 22 17:52:20 2025.
