 Gaussian 16, Revision C.01,
 Gaussian 16:  ES64L-G16RevC.01  3-Jul-2019

 -----------------------------------------
 # sp b3lyp/6-311g** Force nosymm scf=(qc)
 -----------------------------------------

 -------------------
 Title Card Required
 -------------------
 Symbolic Z-matrix:
 Charge =  0 Multiplicity = 2

                          Input orientation:
 ---------------------------------------------------------------------
 Center     Atomic      Atomic             Coordinates (Angstroms)
 Number     Number       Type             X           Y           Z
 ---------------------------------------------------------------------
      1          1           0        0.000000    0.000000    0.000000
      2          1           0       -2.000000    0.000000    0.000000
      3          9           0        3.400000    0.000000    0.000000
 ---------------------------------------------------------------------

 SCF Done:  E(UB3LYP) =  -100.774783930     a.u. after   33 cycles

 Alpha  occ. eigenvalues --  -24.75426  -1.21386  -0.54549  -0.45804  -0.45804
 Alpha  occ. eigenvalues --   -0.33189
 Alpha virt. eigenvalues --   -0.11121   0.25815   0.32124   0.87954   0.91443
 Alpha virt. eigenvalues --    0.91443   1.02014   1.17018   1.24785   1.24785
 Alpha virt. eigenvalues --    1.37694   1.37694   1.51054   2.13040   2.36612

  Beta  occ. eigenvalues --  -24.72315  -1.12447  -0.42686  -0.42686  -0.33274
  Beta virt. eigenvalues --   -0.25557  -0.10821   0.25763   0.32622   0.92931
  Beta virt. eigenvalues --    0.92931   0.97065   1.06041   1.16991   1.24668
  Beta virt. eigenvalues --    1.24668   1.38118   1.38118   1.51373   2.13738

 Mulliken charges and spin densities:
               1          2
     1  H    0.004530  -0.844513
     2  H    0.007266   0.858151
     3  F   -0.011796   0.986362
 Sum of Mulliken charges =  -0.00000   1.00000

 Dipole moment (field-independent basis, Debye):
    X=             -0.2744    Y=             -0.0000    Z=              0.0000  Tot=              0.2744
 Quadrupole moment (field-independent basis, Debye-Ang):
   XX=             -6.7173   YY=             -7.7246   ZZ=             -7.7246
   XY=             -0.0000   XZ=              0.0000   YZ=              0.0000

  Exact polarizability:      47.099      -0.000       2.022       0.000      -0.000       2.022
 Approx polarizability:      40.900      -0.000       1.937       0.000       0.000       1.937

 ******    2 imaginary frequencies (negative Signs) ******

                      1                      2                      3
                      A                      A                      A
 Frequencies --  -1357.3204              -150.8366               551.3683
 Red. masses --      1.0079                 1.1085                 1.0128
 Frc consts  --      1.0940                 0.0149                 0.1814
 IR Inten    --     14.3135                 9.7456                 0.0017

                      4
                      A
 Frequencies --    551.3683
 Red. masses --      1.0128
 Frc consts  --      0.1814
 IR Inten    --      0.0017

 - Thermochemistry -
 -------------------
 Temperature   298.150 Kelvin.  Pressure   1.00000 Atm.
 Atom     1 has atomic number  1 and mass   1.00783

 Molecular mass:    21.01405 amu.
 Principal axes and moments of inertia in atomic units:
                           1         2         3
     Eigenvalues --     0.00000 133.18495 133.18495
           X            1.00000  -0.00000   0.00000
           Y            0.00000   1.00000   0.00000
           Z            0.00000   0.00000   1.00000
 This molecule is a prolate symmetric top.
 Rotational symmetry number  1.
 Rotational temperature (Kelvin)      0.65033
 Rotational constant (GHZ):          13.550639
    2 imaginary frequencies ignored.
 Zero-point vibrational energy       6595.8 (Joules/Mol)
                                    1.57644 (Kcal/Mol)
 Warning -- explicit consideration of   2 degrees of freedom as
           vibrations may cause significant error
 Vibrational temperatures:    793.30   793.30
          (Kelvin)

 Zero-point correction=                           0.002512 (Hartree/Particle)
 Thermal correction to Energy=                    0.005250
 Thermal correction to Enthalpy=                  0.006194
 Thermal correction to Gibbs Free Energy=        -0.018366
 Sum of electronic and zero-point Energies=           -100.772272
 Sum of electronic and thermal Energies=              -100.769534
 Sum of electronic and thermal Enthalpies=            -100.768589
 Sum of electronic and thermal Free Energies=         -100.793150

                     E (Thermal)             CV                S
                      KCal/Mol        Cal/Mol-Kelvin    Cal/Mol-Kelvin
 Total                    3.295              7.241             51.693
 Electronic               0.000              0.000              1.377
 Translational            0.889              2.981             35.068
 Rotational               0.592              1.987             14.165
 Vibrational              1.813              2.273              1.083
 Vibration     1          0.907              1.137              0.541
 Vibration     2          0.907              1.137              0.541

 Normal termination of Gaussian 16 at Fri Aug 22 21:16:38 2025.
