 Gaussian 16, Revision C.01,
 Gaussian 16:  ES64L-G16RevC.01  3-Jul-2019

 -----------------------------------------
 # sp b3lyp/6-311g** Force nosymm scf=(qc)
 -----------------------------------------

 -------------------
 Title Card Required
 -------------------
 Symbolic Z-matrix:
 Charge =  0 Multiplicity = 2

                          Input orientation:
 ---------------------------------------------------------------------
 Center     Atomic      Atomic             Coordinates (Angstroms)
 Number     Number       Type             X           Y           Z
 ---------------------------------------------------------------------
      1          1           0        0.000000    0.000000    0.000000
      2          1           0       -2.850000    0.000000    0.000000
      3          9           0        1.900000    0.000000    0.000000
 ---------------------------------------------------------------------

 SCF Done:  E(UB3LYP) =  -100.796077375     a.u. after   14 cycles

 Alpha  occ. eigenvalues --  -24.67365  -1.13646  -0.46280  -0.39013  -0.39013
 Alpha  occ. eigenvalues --   -0.34359
 Alpha virt. eigenvalues --   -0.14308   0.22995   0.30532   0.90819   0.94927
 Alpha virt. eigenvalues --    0.94927   1.06037   1.23203   1.23203   1.24346
 Alpha virt. eigenvalues --    1.34427   1.34427   1.65372   2.14086   2.28076

  Beta  occ. eigenvalues --  -24.65188  -1.07599  -0.38510  -0.36876  -0.36876
  Beta virt. eigenvalues --   -0.20083  -0.08674   0.23516   0.36190   0.92049
  Beta virt. eigenvalues --    0.95266   0.95266   1.08366   1.22812   1.22812
  Beta virt. eigenvalues --    1.43339   1.43497   1.43497   1.59913   2.13028

 Mulliken charges and spin densities:
               1          2
     1  H    0.214391  -0.672109
     2  H    0.008835   0.987436
     3  F   -0.223226   0.684672
 Sum of Mulliken charges =   0.00000   1.00000

 Dipole moment (field-independent basis, Debye):
    X=             -2.2030    Y=              0.0000    Z=              0.0000  Tot=              2.2030
 Quadrupole moment (field-independent basis, Debye-Ang):
   XX=             -9.7898   YY=             -7.4808   ZZ=             -7.4808
   XY=              0.0000   XZ=              0.0000   YZ=              0.0000

  Exact polarizability:      30.058      -0.000       2.077      -0.000       0.000       2.077
 Approx polarizability:      40.469      -0.000       1.966      -0.000      -0.000       1.966

 ******    2 imaginary frequencies (negative Signs) ******

                      1                      2                      3
                      A                      A                      A
 Frequencies --  -1327.0668              -259.3628               561.0445
 Red. masses --      1.0536                 1.0579                 1.0235
 Frc consts  --      1.0933                 0.0419                 0.1898
 IR Inten    --    115.5421                 4.1899                40.4271

                      4
                      A
 Frequencies --    561.0445
 Red. masses --      1.0235
 Frc consts  --      0.1898
 IR Inten    --     40.4271

 - Thermochemistry -
 -------------------
 Temperature   298.150 Kelvin.  Pressure   1.00000 Atm.
 Atom     1 has atomic number  1 and mass   1.00783

 Molecular mass:    21.01405 amu.
 Principal axes and moments of inertia in atomic units:
                           1         2         3
     Eigenvalues --     0.00000  86.56194  86.56194
           X            1.00000  -0.00000   0.00000
           Y            0.00000   1.00000   0.00000
           Z            0.00000   0.00000   1.00000
 This molecule is a prolate symmetric top.
 Rotational symmetry number  1.
 Rotational temperature (Kelvin)      1.00060
 Rotational constant (GHZ):          20.849130
    2 imaginary frequencies ignored.
 Zero-point vibrational energy       6711.6 (Joules/Mol)
                                    1.60411 (Kcal/Mol)
 Warning -- explicit consideration of   2 degrees of freedom as
           vibrations may cause significant error
 Vibrational temperatures:    807.22   807.22
          (Kelvin)

 Zero-point correction=                           0.002556 (Hartree/Particle)
 Thermal correction to Energy=                    0.005282
 Thermal correction to Enthalpy=                  0.006226
 Thermal correction to Gibbs Free Energy=        -0.017909
 Sum of electronic and zero-point Energies=           -100.793521
 Sum of electronic and thermal Energies=              -100.790795
 Sum of electronic and thermal Enthalpies=            -100.789851
 Sum of electronic and thermal Free Energies=         -100.813986

                     E (Thermal)             CV                S
                      KCal/Mol        Cal/Mol-Kelvin    Cal/Mol-Kelvin
 Total                    3.315              7.199             50.797
 Electronic               0.000              0.000              1.377
 Translational            0.889              2.981             35.068
 Rotational               0.592              1.987             13.308
 Vibrational              1.833              2.231              1.044
 Vibration     1          0.917              1.116              0.522
 Vibration     2          0.917              1.116              0.522

 Normal termination of Gaussian 16 at Fri Aug 22 16:50:45 2025.
