 Gaussian 16, Revision C.01,
 Gaussian 16:  ES64L-G16RevC.01  3-Jul-2019

 -----------------------------------------
 # sp b3lyp/6-311g** Force nosymm scf=(qc)
 -----------------------------------------

 -------------------
 Title Card Required
 -------------------
 Symbolic Z-matrix:
 Charge =  0 Multiplicity = 2

                          Input orientation:
 ---------------------------------------------------------------------
 Center     Atomic      Atomic             Coordinates (Angstroms)
 Number     Number       Type             X           Y           Z
 ---------------------------------------------------------------------
      1          1           0        0.000000    0.000000    0.000000
      2          1           0       -1.750000    0.000000    0.000000
      3          9           0        2.250000    0.000000    0.000000
 ---------------------------------------------------------------------

 SCF Done:  E(UB3LYP) =  -100.802394158     a.u. after   14 cycles

 Alpha  occ. eigenvalues --  -24.70631  -1.16901  -0.49786  -0.41774  -0.41774
 Alpha  occ. eigenvalues --   -0.36246
 Alpha virt. eigenvalues --   -0.12636   0.23844   0.31284   0.86945   0.94082
 Alpha virt. eigenvalues --    0.94082   1.03254   1.20992   1.20992   1.21425
 Alpha virt. eigenvalues --    1.34770   1.34770   1.63086   2.13258   2.38057

  Beta  occ. eigenvalues --  -24.67914  -1.09205  -0.39073  -0.39073  -0.36085
  Beta virt. eigenvalues --   -0.23223  -0.11634   0.26187   0.30670   0.91419
  Beta virt. eigenvalues --    0.95308   0.95308   1.06961   1.21956   1.21956
  Beta virt. eigenvalues --    1.26062   1.35718   1.35718   1.63547   2.14068

 Mulliken charges and spin densities:
               1          2
     1  H    0.070022  -0.590879
     2  H    0.047754   0.734256
     3  F   -0.117777   0.856623
 Sum of Mulliken charges =  -0.00000   1.00000

 Dipole moment (field-independent basis, Debye):
    X=             -1.7369    Y=             -0.0000    Z=             -0.0000  Tot=              1.7369
 Quadrupole moment (field-independent basis, Debye-Ang):
   XX=             -7.9866   YY=             -7.6298   ZZ=             -7.6298
   XY=             -0.0000   XZ=             -0.0000   YZ=              0.0000

  Exact polarizability:      59.110      -0.000       2.037      -0.000      -0.000       2.037
 Approx polarizability:      76.085       0.000       1.972       0.000       0.000       1.972

 ******    2 imaginary frequencies (negative Signs) ******

                      1                      2                      3
                      A                      A                      A
 Frequencies --  -1858.0097              -467.5983               810.4055
 Red. masses --      1.0097                 1.1063                 1.0152
 Frc consts  --      2.0537                 0.1425                 0.3928
 IR Inten    --    251.3720                47.6986                 1.8712

                      4
                      A
 Frequencies --    810.4055
 Red. masses --      1.0152
 Frc consts  --      0.3928
 IR Inten    --      1.8712

 - Thermochemistry -
 -------------------
 Temperature   298.150 Kelvin.  Pressure   1.00000 Atm.
 Atom     1 has atomic number  1 and mass   1.00783

 Molecular mass:    21.01405 amu.
 Principal axes and moments of inertia in atomic units:
                           1         2         3
     Eigenvalues --     0.00000  69.06166  69.06166
           X            1.00000  -0.00000   0.00000
           Y            0.00000   1.00000   0.00000
           Z            0.00000   0.00000   1.00000
 This molecule is a prolate symmetric top.
 Rotational symmetry number  1.
 Rotational temperature (Kelvin)      1.25415
 Rotational constant (GHZ):          26.132317
    2 imaginary frequencies ignored.
 Zero-point vibrational energy       9694.6 (Joules/Mol)
                                    2.31707 (Kcal/Mol)
 Vibrational temperatures:   1165.99  1165.99
          (Kelvin)

 Zero-point correction=                           0.003692 (Hartree/Particle)
 Thermal correction to Energy=                    0.006204
 Thermal correction to Enthalpy=                  0.007148
 Thermal correction to Gibbs Free Energy=        -0.016467
 Sum of electronic and zero-point Energies=           -100.798702
 Sum of electronic and thermal Energies=              -100.796190
 Sum of electronic and thermal Enthalpies=            -100.795246
 Sum of electronic and thermal Free Energies=         -100.818862

                     E (Thermal)             CV                S
                      KCal/Mol        Cal/Mol-Kelvin    Cal/Mol-Kelvin
 Total                    3.893              6.235             49.703
 Electronic               0.000              0.000              1.377
 Translational            0.889              2.981             35.068
 Rotational               0.592              1.987             12.859
 Vibrational              2.412              1.267              0.398

 Normal termination of Gaussian 16 at Fri Aug 22 17:16:12 2025.
