 Gaussian 16, Revision C.01,
 Gaussian 16:  ES64L-G16RevC.01  3-Jul-2019

 -----------------------------------------
 # sp b3lyp/6-311g** Force nosymm scf=(qc)
 -----------------------------------------

 -------------------
 Title Card Required
 -------------------
 Symbolic Z-matrix:
 Charge =  0 Multiplicity = 2

                          Input orientation:
 ---------------------------------------------------------------------
 Center     Atomic      Atomic             Coordinates (Angstroms)
 Number     Number       Type             X           Y           Z
 ---------------------------------------------------------------------
      1          1           0        0.000000    0.000000    0.000000
      2          1           0       -3.650000    0.000000    0.000000
      3          9           0        3.550000    0.000000    0.000000
 ---------------------------------------------------------------------

 SCF Done:  E(UB3LYP) =  -100.758933430     a.u. after   34 cycles

 Alpha  occ. eigenvalues --  -24.75461  -1.21419  -0.54585  -0.45830  -0.45830
 Alpha  occ. eigenvalues --   -0.32310
 Alpha virt. eigenvalues --   -0.06702   0.24200   0.37217   0.87445   0.91434
 Alpha virt. eigenvalues --    0.91434   1.01694   1.25190   1.25190   1.25277
 Alpha virt. eigenvalues --    1.45634   1.45634   1.45706   2.14840   2.41658

  Beta  occ. eigenvalues --  -24.72343  -1.12456  -0.42704  -0.42704  -0.32762
  Beta virt. eigenvalues --   -0.25521  -0.06240   0.23961   0.38082   0.92925
  Beta virt. eigenvalues --    0.92925   0.96614   1.05719   1.24675   1.24675
  Beta virt. eigenvalues --    1.24744   1.46180   1.46383   1.46383   2.14994

 Mulliken charges and spin densities:
               1          2
     1  H    0.009991  -0.987429
     2  H    0.000110   0.998537
     3  F   -0.010101   0.988893
 Sum of Mulliken charges =  -0.00000   1.00000

 Dipole moment (field-independent basis, Debye):
    X=             -0.1865    Y=              0.0000    Z=             -0.0000  Tot=              0.1865
 Quadrupole moment (field-independent basis, Debye-Ang):
   XX=             -7.3393   YY=             -7.6202   ZZ=             -7.6202
   XY=              0.0000   XZ=             -0.0000   YZ=              0.0000

  Exact polarizability:      21.957       0.000       2.037      -0.000       0.000       2.037
 Approx polarizability:      17.088       0.000       1.934      -0.000      -0.000       1.934

 ******    2 imaginary frequencies (negative Signs) ******

                      1                      2                      3
                      A                      A                      A
 Frequencies --   -223.8529               -91.0245                63.8496
 Red. masses --      1.0323                 1.0803                 1.0183
 Frc consts  --      0.0305                 0.0053                 0.0024
 IR Inten    --      9.0613                 0.7239                 0.0868

                      4
                      A
 Frequencies --     63.8497
 Red. masses --      1.0183
 Frc consts  --      0.0024
 IR Inten    --      0.0868

 - Thermochemistry -
 -------------------
 Temperature   298.150 Kelvin.  Pressure   1.00000 Atm.
 Atom     1 has atomic number  1 and mass   1.00783

 Molecular mass:    21.01405 amu.
 Principal axes and moments of inertia in atomic units:
                           1         2         3
     Eigenvalues --     0.00000 211.98222 211.98222
           X            1.00000  -0.00000   0.00000
           Y            0.00000   1.00000   0.00000
           Z            0.00000   0.00000   1.00000
 This molecule is a prolate symmetric top.
 Rotational symmetry number  1.
 Rotational temperature (Kelvin)      0.40859
 Rotational constant (GHZ):           8.513644
    2 imaginary frequencies ignored.
 Zero-point vibrational energy        763.8 (Joules/Mol)
                                    0.18256 (Kcal/Mol)
 Warning -- explicit consideration of   2 degrees of freedom as
           vibrations may cause significant error
 Vibrational temperatures:     91.87    91.87
          (Kelvin)

 Zero-point correction=                           0.000291 (Hartree/Particle)
 Thermal correction to Energy=                    0.004264
 Thermal correction to Enthalpy=                  0.005208
 Thermal correction to Gibbs Free Energy=        -0.023396
 Sum of electronic and zero-point Energies=           -100.758643
 Sum of electronic and thermal Energies=              -100.754670
 Sum of electronic and thermal Enthalpies=            -100.753725
 Sum of electronic and thermal Free Energies=         -100.782330

                     E (Thermal)             CV                S
                      KCal/Mol        Cal/Mol-Kelvin    Cal/Mol-Kelvin
 Total                    2.676              8.911             60.203
 Electronic               0.000              0.000              1.377
 Translational            0.889              2.981             35.068
 Rotational               0.592              1.987             15.088
 Vibrational              1.194              3.943              8.669
 Vibration     1          0.597              1.972              4.335
 Vibration     2          0.597              1.972              4.335

 Normal termination of Gaussian 16 at Fri Aug 22 22:41:39 2025.
