 Gaussian 16, Revision C.01,
 Gaussian 16:  ES64L-G16RevC.01  3-Jul-2019

 -----------------------------------------
 # sp b3lyp/6-311g** Force nosymm scf=(qc)
 -----------------------------------------

 -------------------
 Title Card Required
 -------------------
 Symbolic Z-matrix:
 Charge =  0 Multiplicity = 2

                          Input orientation:
 ---------------------------------------------------------------------
 Center     Atomic      Atomic             Coordinates (Angstroms)
 Number     Number       Type             X           Y           Z
 ---------------------------------------------------------------------
      1          1           0        0.000000    0.000000    0.000000
      2          1           0       -2.550000    0.000000    0.000000
      3          9           0        1.750000    0.000000    0.000000
 ---------------------------------------------------------------------

 SCF Done:  E(UB3LYP) =  -100.807421977     a.u. after   11 cycles

 Alpha  occ. eigenvalues --  -24.63508  -1.08012  -0.40295  -0.35689  -0.35336
 Alpha  occ. eigenvalues --   -0.35336
 Alpha virt. eigenvalues --   -0.19088   0.21874   0.26375   0.95684   0.95684
 Alpha virt. eigenvalues --    0.95726   1.08354   1.21535   1.21535   1.23847
 Alpha virt. eigenvalues --    1.26727   1.26727   1.68766   2.12535   2.15866

  Beta  occ. eigenvalues --  -24.63631  -1.08348  -0.40093  -0.35455  -0.35455
  Beta virt. eigenvalues --   -0.19689  -0.09147   0.25153   0.35170   0.95761
  Beta virt. eigenvalues --    0.95761   0.96054   1.08507   1.27865   1.27865
  Beta virt. eigenvalues --    1.41849   1.41849   1.42898   1.69580   2.17407

 Mulliken charges and spin densities:
               1          2
     1  H    0.301591   0.067487
     2  H    0.026387   0.971864
     3  F   -0.327978  -0.039351
 Sum of Mulliken charges =  -0.00000   1.00000

 Dipole moment (field-independent basis, Debye):
    X=             -3.1588    Y=             -0.0000    Z=              0.0000  Tot=              3.1588
 Quadrupole moment (field-independent basis, Debye-Ang):
   XX=            -10.1530   YY=             -7.4425   ZZ=             -7.4425
   XY=             -0.0000   XZ=              0.0000   YZ=             -0.0000

  Exact polarizability:      32.144       0.000       2.090       0.000      -0.000       2.090
 Approx polarizability:      64.610       0.000       2.004      -0.000      -0.000       2.004

 ******    2 imaginary frequencies (negative Signs) ******

                      1                      2                      3
                      A                      A                      A
 Frequencies --  -1245.2923              -243.2573               817.9645
 Red. masses --      1.0493                 1.0623                 1.0231
 Frc consts  --      0.9587                 0.0370                 0.4033
 IR Inten    --    189.1494                 9.0699                77.7740

                      4
                      A
 Frequencies --    817.9645
 Red. masses --      1.0231
 Frc consts  --      0.4033
 IR Inten    --     77.7740

 - Thermochemistry -
 -------------------
 Temperature   298.150 Kelvin.  Pressure   1.00000 Atm.
 Atom     1 has atomic number  1 and mass   1.00783

 Molecular mass:    21.01405 amu.
 Principal axes and moments of inertia in atomic units:
                           1         2         3
     Eigenvalues --     0.00000  71.24979  71.24979
           X            1.00000  -0.00000   0.00000
           Y            0.00000   1.00000   0.00000
           Z            0.00000   0.00000   1.00000
 This molecule is a prolate symmetric top.
 Rotational symmetry number  1.
 Rotational temperature (Kelvin)      1.21564
 Rotational constant (GHZ):          25.329777
    2 imaginary frequencies ignored.
 Zero-point vibrational energy       9785.0 (Joules/Mol)
                                    2.33868 (Kcal/Mol)
 Vibrational temperatures:   1176.87  1176.87
          (Kelvin)

 Zero-point correction=                           0.003727 (Hartree/Particle)
 Thermal correction to Energy=                    0.006234
 Thermal correction to Enthalpy=                  0.007178
 Thermal correction to Gibbs Free Energy=        -0.016461
 Sum of electronic and zero-point Energies=           -100.803695
 Sum of electronic and thermal Energies=              -100.801188
 Sum of electronic and thermal Enthalpies=            -100.800244
 Sum of electronic and thermal Free Energies=         -100.823883

                     E (Thermal)             CV                S
                      KCal/Mol        Cal/Mol-Kelvin    Cal/Mol-Kelvin
 Total                    3.912              6.211             49.753
 Electronic               0.000              0.000              1.377
 Translational            0.889              2.981             35.068
 Rotational               0.592              1.987             12.921
 Vibrational              2.431              1.243              0.386

 Normal termination of Gaussian 16 at Fri Aug 22 16:40:59 2025.
