 Gaussian 16, Revision C.01,
 Gaussian 16:  ES64L-G16RevC.01  3-Jul-2019

 -----------------------------------------
 # sp b3lyp/6-311g** Force nosymm scf=(qc)
 -----------------------------------------

 -------------------
 Title Card Required
 -------------------
 Symbolic Z-matrix:
 Charge =  0 Multiplicity = 2

                          Input orientation:
 ---------------------------------------------------------------------
 Center     Atomic      Atomic             Coordinates (Angstroms)
 Number     Number       Type             X           Y           Z
 ---------------------------------------------------------------------
      1          1           0        0.000000    0.000000    0.000000
      2          1           0       -1.000000    0.000000    0.000000
      3          9           0        3.700000    0.000000    0.000000
 ---------------------------------------------------------------------

 SCF Done:  E(UB3LYP) =  -100.906571883     a.u. after    7 cycles

 Alpha  occ. eigenvalues --  -24.76153  -1.22062  -0.55279  -0.46425  -0.46425
 Alpha  occ. eigenvalues --   -0.39094
 Alpha virt. eigenvalues --    0.00111   0.21233   0.38385   0.87200   0.90967
 Alpha virt. eigenvalues --    0.90967   1.01266   1.09009   1.09009   1.37387
 Alpha virt. eigenvalues --    1.65653   1.65653   2.21525   2.35879   2.58708

  Beta  occ. eigenvalues --  -24.73002  -1.12998  -0.43266  -0.43266  -0.39090
  Beta virt. eigenvalues --   -0.25992   0.00132   0.21252   0.38495   0.92465
  Beta virt. eigenvalues --    0.92465   0.96495   1.05403   1.09014   1.09014
  Beta virt. eigenvalues --    1.37401   1.65658   1.65658   2.21544   2.35887

 Mulliken charges and spin densities:
               1          2
     1  H   -0.004158  -0.000546
     2  H    0.003754   0.001359
     3  F    0.000404   0.999187
 Sum of Mulliken charges =   0.00000   1.00000

 Dipole moment (field-independent basis, Debye):
    X=             -0.0114    Y=              0.0000    Z=              0.0000  Tot=              0.0114
 Quadrupole moment (field-independent basis, Debye-Ang):
   XX=             -5.5023   YY=             -7.2708   ZZ=             -7.2708
   XY=              0.0000   XZ=              0.0000   YZ=              0.0000

  Exact polarizability:      12.799      -0.000       2.057       0.000       0.000       2.057
 Approx polarizability:      16.656      -0.000       2.108       0.000      -0.000       2.108

 ******    1 imaginary frequencies (negative Signs) ******

                      1                      2                      3
                      A                      A                      A
 Frequencies --    -42.3818              1540.2230              1540.2230
 Red. masses --      1.1085                 1.0092                 1.0092
 Frc consts  --      0.0012                 1.4106                 1.4106
 IR Inten    --      0.0070                 0.0182                 0.0182

                      4
                      A
 Frequencies --   1793.3659
 Red. masses --      1.0078
 Frc consts  --      1.9097
 IR Inten    --      0.2184

 - Thermochemistry -
 -------------------
 Temperature   298.150 Kelvin.  Pressure   1.00000 Atm.
 Atom     1 has atomic number  1 and mass   1.00783

 Molecular mass:    21.01405 amu.
 Principal axes and moments of inertia in atomic units:
                           1         2         3
     Eigenvalues --     0.00000 116.59338 116.59338
           X            1.00000  -0.00000   0.00000
           Y            0.00000   1.00000   0.00000
           Z            0.00000   0.00000   1.00000
 This molecule is a prolate symmetric top.
 Rotational symmetry number  1.
 Rotational temperature (Kelvin)      0.74287
 Rotational constant (GHZ):          15.478934
    1 imaginary frequencies ignored.
 Zero-point vibrational energy      29151.9 (Joules/Mol)
                                    6.96746 (Kcal/Mol)
 Vibrational temperatures:   2216.04  2216.04  2580.25
          (Kelvin)

 Zero-point correction=                           0.011103 (Hartree/Particle)
 Thermal correction to Energy=                    0.013474
 Thermal correction to Enthalpy=                  0.014418
 Thermal correction to Gibbs Free Energy=        -0.009514
 Sum of electronic and zero-point Energies=           -100.895469
 Sum of electronic and thermal Energies=              -100.893098
 Sum of electronic and thermal Enthalpies=            -100.892154
 Sum of electronic and thermal Free Energies=         -100.916086

                     E (Thermal)             CV                S
                      KCal/Mol        Cal/Mol-Kelvin    Cal/Mol-Kelvin
 Total                    8.455              5.124             50.369
 Electronic               0.000              0.000              1.377
 Translational            0.889              2.981             35.068
 Rotational               0.592              1.987             13.900
 Vibrational              6.974              0.156              0.023

 Normal termination of Gaussian 16 at Fri Aug 22 23:43:32 2025.
