 Gaussian 16, Revision C.01,
 Gaussian 16:  ES64L-G16RevC.01  3-Jul-2019

 -----------------------------------------
 # sp b3lyp/6-311g** Force nosymm scf=(qc)
 -----------------------------------------

 -------------------
 Title Card Required
 -------------------
 Symbolic Z-matrix:
 Charge =  0 Multiplicity = 2

                          Input orientation:
 ---------------------------------------------------------------------
 Center     Atomic      Atomic             Coordinates (Angstroms)
 Number     Number       Type             X           Y           Z
 ---------------------------------------------------------------------
      1          1           0        0.000000    0.000000    0.000000
      2          1           0       -0.600000    0.000000    0.000000
      3          9           0        1.000000    0.000000    0.000000
 ---------------------------------------------------------------------

 SCF Done:  E(UB3LYP) =  -100.880707933     a.u. after    6 cycles

 Alpha  occ. eigenvalues --  -24.67634  -1.21384  -0.66174  -0.42189  -0.42189
 Alpha  occ. eigenvalues --   -0.34778
 Alpha virt. eigenvalues --    0.13961   0.18304   0.64241   0.86679   0.86679
 Alpha virt. eigenvalues --    0.94131   1.12094   1.12094   1.47934   1.71057
 Alpha virt. eigenvalues --    1.85386   1.85386   1.88857   2.58879   3.78735

  Beta  occ. eigenvalues --  -24.65797  -1.16737  -0.58167  -0.40524  -0.40524
  Beta virt. eigenvalues --   -0.16687   0.16066   0.19129   0.68969   0.88571
  Beta virt. eigenvalues --    0.88571   0.97806   1.15965   1.15965   1.50285
  Beta virt. eigenvalues --    1.78310   1.89261   1.89261   1.90270   2.65049

 Mulliken charges and spin densities:
               1          2
     1  H    0.276747  -0.016140
     2  H   -0.060946   0.557385
     3  F   -0.215801   0.458754
 Sum of Mulliken charges =   0.00000   1.00000

 Dipole moment (field-independent basis, Debye):
    X=             -1.2988    Y=              0.0000    Z=             -0.0000  Tot=              1.2988
 Quadrupole moment (field-independent basis, Debye-Ang):
   XX=             -7.3285   YY=             -6.4323   ZZ=             -6.4323
   XY=              0.0000   XZ=             -0.0000   YZ=              0.0000

  Exact polarizability:      12.133      -0.000       2.485      -0.000      -0.000       2.485
 Approx polarizability:      14.275       0.000       2.555      -0.000      -0.000       2.555

 ******    2 imaginary frequencies (negative Signs) ******

                      1                      2                      3
                      A                      A                      A
 Frequencies --  -3467.8717             -3467.8717              2259.9652
 Red. masses --      1.0129                 1.0129                 1.1085
 Frc consts  --      7.1773                 7.1773                 3.3357
 IR Inten    --     22.5647                22.5647                16.6229

                      4
                      A
 Frequencies --   6662.1793
 Red. masses --      1.0078
 Frc consts  --     26.3554
 IR Inten    --    118.6063

 - Thermochemistry -
 -------------------
 Temperature   298.150 Kelvin.  Pressure   1.00000 Atm.
 Atom     1 has atomic number  1 and mass   1.00783

 Molecular mass:    21.01405 amu.
 Principal axes and moments of inertia in atomic units:
                           1         2         3
     Eigenvalues --     0.00000  11.64565  11.64565
           X            1.00000  -0.00000   0.00000
           Y            0.00000   1.00000   0.00000
           Z            0.00000   0.00000   1.00000
 This molecule is a prolate symmetric top.
 Rotational symmetry number  1.
 Rotational temperature (Kelvin)      7.43745
 Rotational constant (GHZ):         154.971304
    2 imaginary frequencies ignored.
 Zero-point vibrational energy      53366.3 (Joules/Mol)
                                   12.75485 (Kcal/Mol)
 Vibrational temperatures:   3251.59  9585.39
          (Kelvin)

 Zero-point correction=                           0.020326 (Hartree/Particle)
 Thermal correction to Energy=                    0.022687
 Thermal correction to Enthalpy=                  0.023631
 Thermal correction to Gibbs Free Energy=         0.001885
 Sum of electronic and zero-point Energies=           -100.860382
 Sum of electronic and thermal Energies=              -100.858021
 Sum of electronic and thermal Enthalpies=            -100.857077
 Sum of electronic and thermal Free Energies=         -100.878823

                     E (Thermal)             CV                S
                      KCal/Mol        Cal/Mol-Kelvin    Cal/Mol-Kelvin
 Total                   14.236              4.972             45.768
 Electronic               0.000              0.000              1.377
 Translational            0.889              2.981             35.068
 Rotational               0.592              1.987              9.322
 Vibrational             12.755              0.004              0.000

 Normal termination of Gaussian 16 at Fri Aug 22 15:59:34 2025.
