 Gaussian 16, Revision C.01,
 Gaussian 16:  ES64L-G16RevC.01  3-Jul-2019

 -----------------------------------------
 # sp b3lyp/6-311g** Force nosymm scf=(qc)
 -----------------------------------------

 -------------------
 Title Card Required
 -------------------
 Symbolic Z-matrix:
 Charge =  0 Multiplicity = 2

                          Input orientation:
 ---------------------------------------------------------------------
 Center     Atomic      Atomic             Coordinates (Angstroms)
 Number     Number       Type             X           Y           Z
 ---------------------------------------------------------------------
      1          1           0        0.000000    0.000000    0.000000
      2          1           0       -0.850000    0.000000    0.000000
      3          9           0        0.500000    0.000000    0.000000
 ---------------------------------------------------------------------

 SCF Done:  E(UB3LYP) =  -100.172061353     a.u. after    7 cycles

 Alpha  occ. eigenvalues --  -24.67354  -1.49933  -0.70295  -0.48560  -0.48560
 Alpha  occ. eigenvalues --   -0.30645
 Alpha virt. eigenvalues --    0.16674   0.20705   0.84357   0.84357   0.84472
 Alpha virt. eigenvalues --    0.93452   1.11614   1.11614   1.50501   1.65229
 Alpha virt. eigenvalues --    1.91938   1.91938   2.31728   2.77333   3.72610

  Beta  occ. eigenvalues --  -24.66898  -1.48267  -0.68608  -0.48210  -0.48210
  Beta virt. eigenvalues --   -0.09681   0.17388   0.28099   0.85038   0.85621
  Beta virt. eigenvalues --    0.85621   0.99087   1.19324   1.19324   1.51247
  Beta virt. eigenvalues --    1.72428   1.97586   1.97586   2.44217   2.87681

 Mulliken charges and spin densities:
               1          2
     1  H    0.188289  -0.034735
     2  H   -0.108698   1.014824
     3  F   -0.079591   0.019911
 Sum of Mulliken charges =   0.00000   1.00000

 Dipole moment (field-independent basis, Debye):
    X=             -0.4962    Y=              0.0000    Z=              0.0000  Tot=              0.4962
 Quadrupole moment (field-independent basis, Debye-Ang):
   XX=             -7.3231   YY=             -6.3488   ZZ=             -6.3488
   XY=              0.0000   XZ=              0.0000   YZ=             -0.0000

  Exact polarizability:       6.256       0.000       2.432      -0.000       0.000       2.432
 Approx polarizability:       5.909      -0.000       2.517      -0.000       0.000       2.517

 ******    2 imaginary frequencies (negative Signs) ******

                      1                      2                      3
                      A                      A                      A
 Frequencies --  -9295.7679             -9295.7679              3130.5965
 Red. masses --      1.0255                 1.0255                 1.0548
 Frc consts  --     52.2081                52.2081                 6.0911
 IR Inten    --    186.4977               186.4977               233.2094

                      4
                      A
 Frequencies --  19229.6839
 Red. masses --      1.0567
 Frc consts  --    230.2225
 IR Inten    --     10.2355

 - Thermochemistry -
 -------------------
 Temperature   298.150 Kelvin.  Pressure   1.00000 Atm.
 Atom     1 has atomic number  1 and mass   1.00783

 Molecular mass:    21.01405 amu.
 Principal axes and moments of inertia in atomic units:
                           1         2         3
     Eigenvalues --     0.00000   6.86820   6.86820
           X            1.00000  -0.00000   0.00000
           Y            0.00000   1.00000   0.00000
           Z            0.00000   0.00000   1.00000
 This molecule is a prolate symmetric top.
 Rotational symmetry number  1.
 Rotational temperature (Kelvin)     12.61087
 Rotational constant (GHZ):         262.767788
    2 imaginary frequencies ignored.
 Zero-point vibrational energy     133744.2 (Joules/Mol)
                                   31.96563 (Kcal/Mol)
 Vibrational temperatures:   4504.23 27667.23
          (Kelvin)

 Zero-point correction=                           0.050940 (Hartree/Particle)
 Thermal correction to Energy=                    0.053301
 Thermal correction to Enthalpy=                  0.054245
 Thermal correction to Gibbs Free Energy=         0.032998
 Sum of electronic and zero-point Energies=           -100.121121
 Sum of electronic and thermal Energies=              -100.118760
 Sum of electronic and thermal Enthalpies=            -100.117816
 Sum of electronic and thermal Free Energies=         -100.139063

                     E (Thermal)             CV                S
                      KCal/Mol        Cal/Mol-Kelvin    Cal/Mol-Kelvin
 Total                   33.447              4.968             44.718
 Electronic               0.000              0.000              1.377
 Translational            0.889              2.981             35.068
 Rotational               0.592              1.987              8.273
 Vibrational             31.966              0.000              0.000

 Normal termination of Gaussian 16 at Fri Aug 22 15:36:06 2025.
