 Gaussian 16, Revision C.01,
 Gaussian 16:  ES64L-G16RevC.01  3-Jul-2019

 -----------------------------------------
 # sp b3lyp/6-311g** Force nosymm scf=(qc)
 -----------------------------------------

 -------------------
 Title Card Required
 -------------------
 Symbolic Z-matrix:
 Charge =  0 Multiplicity = 2

                          Input orientation:
 ---------------------------------------------------------------------
 Center     Atomic      Atomic             Coordinates (Angstroms)
 Number     Number       Type             X           Y           Z
 ---------------------------------------------------------------------
      1          1           0        0.000000    0.000000    0.000000
      2          1           0       -0.800000    0.000000    0.000000
      3          9           0        1.000000    0.000000    0.000000
 ---------------------------------------------------------------------

 SCF Done:  E(UB3LYP) =  -100.941427008     a.u. after    6 cycles

 Alpha  occ. eigenvalues --  -24.66259  -1.19379  -0.61723  -0.40872  -0.40872
 Alpha  occ. eigenvalues --   -0.35719
 Alpha virt. eigenvalues --    0.13608   0.18415   0.53517   0.87867   0.87867
 Alpha virt. eigenvalues --    0.95862   1.09114   1.09114   1.45537   1.73037
 Alpha virt. eigenvalues --    1.73103   1.73103   2.10453   2.32939   3.46531

  Beta  occ. eigenvalues --  -24.64879  -1.15886  -0.54659  -0.39628  -0.39628
  Beta virt. eigenvalues --   -0.18155   0.15636   0.20139   0.58939   0.89780
  Beta virt. eigenvalues --    0.89780   0.98672   1.13680   1.13680   1.47570
  Beta virt. eigenvalues --    1.77395   1.77395   1.81536   2.10725   2.41772

 Mulliken charges and spin densities:
               1          2
     1  H    0.277773  -0.020450
     2  H   -0.017729   0.669262
     3  F   -0.260044   0.351188
 Sum of Mulliken charges =   0.00000   1.00000

 Dipole moment (field-independent basis, Debye):
    X=             -1.6390    Y=             -0.0000    Z=             -0.0000  Tot=              1.6390
 Quadrupole moment (field-independent basis, Debye-Ang):
   XX=             -7.5203   YY=             -6.5824   ZZ=             -6.5824
   XY=             -0.0000   XZ=             -0.0000   YZ=             -0.0000

  Exact polarizability:      14.020      -0.000       2.550      -0.000       0.000       2.550
 Approx polarizability:      16.805      -0.000       2.597      -0.000       0.000       2.597

 ******    2 imaginary frequencies (negative Signs) ******

                      1                      2                      3
                      A                      A                      A
 Frequencies --  -1561.9238             -1561.9238              2101.2927
 Red. masses --      1.0155                 1.0155                 1.1083
 Frc consts  --      1.4596                 1.4596                 2.8833
 IR Inten    --     38.9229                38.9229                32.8955

                      4
                      A
 Frequencies --   3201.7499
 Red. masses --      1.0080
 Frc consts  --      6.0880
 IR Inten    --    108.6359

 - Thermochemistry -
 -------------------
 Temperature   298.150 Kelvin.  Pressure   1.00000 Atm.
 Atom     1 has atomic number  1 and mass   1.00783

 Molecular mass:    21.01405 amu.
 Principal axes and moments of inertia in atomic units:
                           1         2         3
     Eigenvalues --     0.00000  13.90656  13.90656
           X            1.00000  -0.00000   0.00000
           Y            0.00000   1.00000   0.00000
           Z            0.00000   0.00000   1.00000
 This molecule is a prolate symmetric top.
 Rotational symmetry number  1.
 Rotational temperature (Kelvin)      6.22828
 Rotational constant (GHZ):         129.776268
    2 imaginary frequencies ignored.
 Zero-point vibrational energy      31719.2 (Joules/Mol)
                                    7.58108 (Kcal/Mol)
 Vibrational temperatures:   3023.29  4606.60
          (Kelvin)

 Zero-point correction=                           0.012081 (Hartree/Particle)
 Thermal correction to Energy=                    0.014442
 Thermal correction to Enthalpy=                  0.015386
 Thermal correction to Gibbs Free Energy=        -0.006527
 Sum of electronic and zero-point Energies=           -100.929346
 Sum of electronic and thermal Energies=              -100.926985
 Sum of electronic and thermal Enthalpies=            -100.926041
 Sum of electronic and thermal Free Energies=         -100.947954

                     E (Thermal)             CV                S
                      KCal/Mol        Cal/Mol-Kelvin    Cal/Mol-Kelvin
 Total                    9.063              4.976             46.121
 Electronic               0.000              0.000              1.377
 Translational            0.889              2.981             35.068
 Rotational               0.592              1.987              9.675
 Vibrational              7.581              0.008              0.001

 Normal termination of Gaussian 16 at Fri Aug 22 15:59:42 2025.
