 Gaussian 16, Revision C.01,
 Gaussian 16:  ES64L-G16RevC.01  3-Jul-2019

 -----------------------------------------
 # sp b3lyp/6-311g** Force nosymm scf=(qc)
 -----------------------------------------

 -------------------
 Title Card Required
 -------------------
 Symbolic Z-matrix:
 Charge =  0 Multiplicity = 2

                          Input orientation:
 ---------------------------------------------------------------------
 Center     Atomic      Atomic             Coordinates (Angstroms)
 Number     Number       Type             X           Y           Z
 ---------------------------------------------------------------------
      1          1           0        0.000000    0.000000    0.000000
      2          1           0       -2.100000    0.000000    0.000000
      3          9           0        2.550000    0.000000    0.000000
 ---------------------------------------------------------------------

 SCF Done:  E(UB3LYP) =  -100.777574358     a.u. after   19 cycles

 Alpha  occ. eigenvalues --  -24.72123  -1.18305  -0.51229  -0.43017  -0.43017
 Alpha  occ. eigenvalues --   -0.34478
 Alpha virt. eigenvalues --   -0.12568   0.24977   0.32289   0.90201   0.93430
 Alpha virt. eigenvalues --    0.93430   1.06149   1.22871   1.23425   1.23425
 Alpha virt. eigenvalues --    1.35807   1.35807   1.45953   2.11804   2.34111

  Beta  occ. eigenvalues --  -24.69249  -1.10113  -0.40150  -0.40150  -0.35023
  Beta virt. eigenvalues --   -0.23698  -0.11234   0.26447   0.32656   0.94818
  Beta virt. eigenvalues --    0.94818   0.97524   1.09272   1.22897   1.22897
  Beta virt. eigenvalues --    1.24984   1.38000   1.38000   1.46818   2.12497

 Mulliken charges and spin densities:
               1          2
     1  H    0.055818  -0.811779
     2  H    0.023559   0.903156
     3  F   -0.079376   0.908623
 Sum of Mulliken charges =   0.00000   1.00000

 Dipole moment (field-independent basis, Debye):
    X=             -1.2687    Y=             -0.0000    Z=              0.0000  Tot=              1.2687
 Quadrupole moment (field-independent basis, Debye-Ang):
   XX=             -8.2488   YY=             -7.6562   ZZ=             -7.6562
   XY=              0.0000   XZ=             -0.0000   YZ=              0.0000

  Exact polarizability:      56.761       0.000       2.008      -0.000      -0.000       2.008
 Approx polarizability:      58.466       0.000       1.924      -0.000       0.000       1.924

 ******    2 imaginary frequencies (negative Signs) ******

                      1                      2                      3
                      A                      A                      A
 Frequencies --  -1229.8350              -373.5778               488.7433
 Red. masses --      1.0096                 1.1064                 1.0158
 Frc consts  --      0.8997                 0.0910                 0.1430
 IR Inten    --     54.0356                46.5664                 1.8813

                      4
                      A
 Frequencies --    488.7433
 Red. masses --      1.0158
 Frc consts  --      0.1430
 IR Inten    --      1.8813

 - Thermochemistry -
 -------------------
 Temperature   298.150 Kelvin.  Pressure   1.00000 Atm.
 Atom     1 has atomic number  1 and mass   1.00783

 Molecular mass:    21.01405 amu.
 Principal axes and moments of inertia in atomic units:
                           1         2         3
     Eigenvalues --     0.00000  92.27417  92.27417
           X            1.00000  -0.00000   0.00000
           Y            0.00000   1.00000   0.00000
           Z            0.00000   0.00000   1.00000
 This molecule is a prolate symmetric top.
 Rotational symmetry number  1.
 Rotational temperature (Kelvin)      0.93866
 Rotational constant (GHZ):          19.558465
    2 imaginary frequencies ignored.
 Zero-point vibrational energy       5846.7 (Joules/Mol)
                                    1.39739 (Kcal/Mol)
 Warning -- explicit consideration of   2 degrees of freedom as
           vibrations may cause significant error
 Vibrational temperatures:    703.19   703.19
          (Kelvin)

 Zero-point correction=                           0.002227 (Hartree/Particle)
 Thermal correction to Energy=                    0.005052
 Thermal correction to Enthalpy=                  0.005997
 Thermal correction to Gibbs Free Energy=        -0.018356
 Sum of electronic and zero-point Energies=           -100.775347
 Sum of electronic and thermal Energies=              -100.772522
 Sum of electronic and thermal Enthalpies=            -100.771578
 Sum of electronic and thermal Free Energies=         -100.795930

                     E (Thermal)             CV                S
                      KCal/Mol        Cal/Mol-Kelvin    Cal/Mol-Kelvin
 Total                    3.170              7.518             51.254
 Electronic               0.000              0.000              1.377
 Translational            0.889              2.981             35.068
 Rotational               0.592              1.987             13.435
 Vibrational              1.689              2.550              1.374
 Vibration     1          0.845              1.275              0.687
 Vibration     2          0.845              1.275              0.687

 Normal termination of Gaussian 16 at Fri Aug 22 17:53:56 2025.
