 Gaussian 16, Revision C.01,
 Gaussian 16:  ES64L-G16RevC.01  3-Jul-2019

 -----------------------------------------
 # sp b3lyp/6-311g** Force nosymm scf=(qc)
 -----------------------------------------

 -------------------
 Title Card Required
 -------------------
 Symbolic Z-matrix:
 Charge =  0 Multiplicity = 2

                          Input orientation:
 ---------------------------------------------------------------------
 Center     Atomic      Atomic             Coordinates (Angstroms)
 Number     Number       Type             X           Y           Z
 ---------------------------------------------------------------------
      1          1           0        0.000000    0.000000    0.000000
      2          1           0       -1.550000    0.000000    0.000000
      3          9           0        3.250000    0.000000    0.000000
 ---------------------------------------------------------------------

 SCF Done:  E(UB3LYP) =  -100.813015810     a.u. after  204 cycles

 Alpha  occ. eigenvalues --  -24.76506  -1.22361  -0.55558  -0.46767  -0.46711
 Alpha  occ. eigenvalues --   -0.33346
 Alpha virt. eigenvalues --   -0.09969   0.25242   0.30504   0.85858   0.90733
 Alpha virt. eigenvalues --    0.92572   1.01947   1.06964   1.21509   1.21512
 Alpha virt. eigenvalues --    1.40444   1.40449   1.78517   2.21035   2.45879

  Beta  occ. eigenvalues --  -24.73350  -1.13286  -0.43616  -0.43546  -0.33334
  Beta virt. eigenvalues --   -0.26196  -0.09997   0.25285   0.30572   0.92235
  Beta virt. eigenvalues --    0.94078   0.95322   1.05944   1.06960   1.21495
  Beta virt. eigenvalues --    1.21500   1.40437   1.40441   1.78591   2.21283

 Mulliken charges and spin densities:
               1          2
     1  H    0.000109  -0.331858
     2  H   -0.004550   0.331619
     3  F    0.004441   1.000239
 Sum of Mulliken charges =   0.00000   1.00000

 Dipole moment (field-independent basis, Debye):
    X=              0.0758    Y=              0.0000    Z=              0.0000  Tot=              0.0758
 Quadrupole moment (field-independent basis, Debye-Ang):
   XX=             -6.2832   YY=             -7.7453   ZZ=             -6.9325
   XY=              0.0000   XZ=              0.0000   YZ=              0.1467

  Exact polarizability:      23.587       0.000       2.048       0.000       0.078       2.481
 Approx polarizability:      42.749       0.000       2.039       0.000       0.099       2.586

 ******    1 imaginary frequencies (negative Signs) ******

                      1                      2                      3
                      A                      A                      A
 Frequencies --  -2127.5737                20.8916              1135.3335
 Red. masses --      1.0078                 1.1085                 1.0114
 Frc consts  --      2.6878                 0.0003                 0.7681
 IR Inten    --      0.1701                 0.3657                 0.0040

                      4
                      A
 Frequencies --   1136.5642
 Red. masses --      1.0114
 Frc consts  --      0.7698
 IR Inten    --      0.0015

 - Thermochemistry -
 -------------------
 Temperature   298.150 Kelvin.  Pressure   1.00000 Atm.
 Atom     1 has atomic number  1 and mass   1.00783

 Molecular mass:    21.01405 amu.
 Principal axes and moments of inertia in atomic units:
                           1         2         3
     Eigenvalues --     0.00000 109.75032 109.75032
           X            1.00000  -0.00000   0.00000
           Y            0.00000   1.00000   0.00000
           Z            0.00000   0.00000   1.00000
 This molecule is a prolate symmetric top.
 Rotational symmetry number  1.
 Rotational temperature (Kelvin)      0.78919
 Rotational constant (GHZ):          16.444063
    1 imaginary frequencies ignored.
 Zero-point vibrational energy      13713.9 (Joules/Mol)
                                    3.27771 (Kcal/Mol)
 Warning -- explicit consideration of   1 degrees of freedom as
           vibrations may cause significant error
 Vibrational temperatures:     30.06  1633.49  1635.26
          (Kelvin)

 Zero-point correction=                           0.005223 (Hartree/Particle)
 Thermal correction to Energy=                    0.008524
 Thermal correction to Enthalpy=                  0.009469
 Thermal correction to Gibbs Free Energy=        -0.017557
 Sum of electronic and zero-point Energies=           -100.807792
 Sum of electronic and thermal Energies=              -100.804491
 Sum of electronic and thermal Enthalpies=            -100.803547
 Sum of electronic and thermal Free Energies=         -100.830573

                     E (Thermal)             CV                S
                      KCal/Mol        Cal/Mol-Kelvin    Cal/Mol-Kelvin
 Total                    5.349              7.455             56.881
 Electronic               0.000              0.000              1.377
 Translational            0.889              2.981             35.068
 Rotational               0.592              1.987             13.780
 Vibrational              3.868              2.487              6.655
 Vibration     1          0.593              1.986              6.548

 Normal termination of Gaussian 16 at Fri Aug 22 20:33:31 2025.
