 Gaussian 16, Revision C.01,
 Gaussian 16:  ES64L-G16RevC.01  3-Jul-2019

 -----------------------------------------
 # sp b3lyp/6-311g** Force nosymm scf=(qc)
 -----------------------------------------

 -------------------
 Title Card Required
 -------------------
 Symbolic Z-matrix:
 Charge =  0 Multiplicity = 2

                          Input orientation:
 ---------------------------------------------------------------------
 Center     Atomic      Atomic             Coordinates (Angstroms)
 Number     Number       Type             X           Y           Z
 ---------------------------------------------------------------------
      1          1           0        0.000000    0.000000    0.000000
      2          1           0       -1.950000    0.000000    0.000000
      3          9           0        1.150000    0.000000    0.000000
 ---------------------------------------------------------------------

 SCF Done:  E(UB3LYP) =  -100.939444633     a.u. after    6 cycles

 Alpha  occ. eigenvalues --  -24.63722  -1.12605  -0.48789  -0.37314  -0.37314
 Alpha  occ. eigenvalues --   -0.36631
 Alpha virt. eigenvalues --   -0.00990   0.23624   0.29622   0.93807   0.93807
 Alpha virt. eigenvalues --    1.00323   1.12104   1.20483   1.20483   1.35805
 Alpha virt. eigenvalues --    1.35805   1.47826   1.74356   2.15143   2.33411

  Beta  occ. eigenvalues --  -24.63572  -1.12229  -0.47967  -0.37179  -0.37179
  Beta virt. eigenvalues --   -0.14355   0.02027   0.29215   0.33788   0.93813
  Beta virt. eigenvalues --    0.93813   1.00816   1.20868   1.34295   1.34295
  Beta virt. eigenvalues --    1.40529   1.40529   1.55935   1.76414   2.29397

 Mulliken charges and spin densities:
               1          2
     1  H    0.327681  -0.004915
     2  H    0.026192   0.961144
     3  F   -0.353873   0.043771
 Sum of Mulliken charges =  -0.00000   1.00000

 Dipole moment (field-independent basis, Debye):
    X=             -2.5080    Y=              0.0000    Z=             -0.0000  Tot=              2.5080
 Quadrupole moment (field-independent basis, Debye-Ang):
   XX=             -8.1013   YY=             -7.0418   ZZ=             -7.0418
   XY=              0.0000   XZ=             -0.0000   YZ=             -0.0000

  Exact polarizability:      14.538       0.000       2.406       0.000       0.000       2.406
 Approx polarizability:      17.337       0.000       2.375       0.000       0.000       2.375

 ******    1 imaginary frequencies (negative Signs) ******

                      1                      2                      3
                      A                      A                      A
 Frequencies --   -323.2827              1156.2655              1156.2655
 Red. masses --      1.0388                 1.0254                 1.0254
 Frc consts  --      0.0640                 0.8077                 0.8077
 IR Inten    --     21.0691               111.9980               111.9980

                      4
                      A
 Frequencies --   1282.4800
 Red. masses --      1.0733
 Frc consts  --      1.0401
 IR Inten    --    198.0357

 - Thermochemistry -
 -------------------
 Temperature   298.150 Kelvin.  Pressure   1.00000 Atm.
 Atom     1 has atomic number  1 and mass   1.00783

 Molecular mass:    21.01405 amu.
 Principal axes and moments of inertia in atomic units:
                           1         2         3
     Eigenvalues --     0.00000  36.22845  36.22845
           X            1.00000  -0.00000   0.00000
           Y            0.00000   1.00000   0.00000
           Z            0.00000   0.00000   1.00000
 This molecule is a prolate symmetric top.
 Rotational symmetry number  1.
 Rotational temperature (Kelvin)      2.39077
 Rotational constant (GHZ):          49.815581
    1 imaginary frequencies ignored.
 Zero-point vibrational energy      21502.9 (Joules/Mol)
                                    5.13933 (Kcal/Mol)
 Vibrational temperatures:   1663.61  1663.61  1845.20
          (Kelvin)

 Zero-point correction=                           0.008190 (Hartree/Particle)
 Thermal correction to Energy=                    0.010602
 Thermal correction to Enthalpy=                  0.011547
 Thermal correction to Gibbs Free Energy=        -0.011332
 Sum of electronic and zero-point Energies=           -100.931255
 Sum of electronic and thermal Energies=              -100.928842
 Sum of electronic and thermal Enthalpies=            -100.927898
 Sum of electronic and thermal Free Energies=         -100.950776

                     E (Thermal)             CV                S
                      KCal/Mol        Cal/Mol-Kelvin    Cal/Mol-Kelvin
 Total                    6.653              5.595             48.151
 Electronic               0.000              0.000              1.377
 Translational            0.889              2.981             35.068
 Rotational               0.592              1.987             11.577
 Vibrational              5.172              0.627              0.128

 Normal termination of Gaussian 16 at Fri Aug 22 16:07:42 2025.
