 Gaussian 16, Revision C.01,
 Gaussian 16:  ES64L-G16RevC.01  3-Jul-2019

 -----------------------------------------
 # sp b3lyp/6-311g** Force nosymm scf=(qc)
 -----------------------------------------

 -------------------
 Title Card Required
 -------------------
 Symbolic Z-matrix:
 Charge =  0 Multiplicity = 2

                          Input orientation:
 ---------------------------------------------------------------------
 Center     Atomic      Atomic             Coordinates (Angstroms)
 Number     Number       Type             X           Y           Z
 ---------------------------------------------------------------------
      1          1           0        0.000000    0.000000    0.000000
      2          1           0       -2.550000    0.000000    0.000000
      3          9           0        3.000000    0.000000    0.000000
 ---------------------------------------------------------------------

 SCF Done:  E(UB3LYP) =  -100.764350743     a.u. after   22 cycles

 Alpha  occ. eigenvalues --  -24.74148  -1.20200  -0.53265  -0.44725  -0.44725
 Alpha  occ. eigenvalues --   -0.33026
 Alpha virt. eigenvalues --   -0.10293   0.25312   0.33726   0.89523   0.92240
 Alpha virt. eigenvalues --    0.92240   1.03949   1.24607   1.24607   1.26473
 Alpha virt. eigenvalues --    1.40258   1.40258   1.41759   2.15499   2.36800

  Beta  occ. eigenvalues --  -24.71118  -1.11516  -0.41692  -0.41692  -0.33796
  Beta virt. eigenvalues --   -0.24825  -0.09068   0.25449   0.35047   0.93702
  Beta virt. eigenvalues --    0.93702   0.98289   1.07840   1.23685   1.23685
  Beta virt. eigenvalues --    1.25414   1.42239   1.42239   1.43597   2.16405

 Mulliken charges and spin densities:
               1          2
     1  H    0.030849  -0.934663
     2  H    0.004978   0.974523
     3  F   -0.035827   0.960140
 Sum of Mulliken charges =  -0.00000   1.00000

 Dipole moment (field-independent basis, Debye):
    X=             -0.6121    Y=             -0.0000    Z=             -0.0000  Tot=              0.6121
 Quadrupole moment (field-independent basis, Debye-Ang):
   XX=             -7.9710   YY=             -7.6478   ZZ=             -7.6478
   XY=             -0.0000   XZ=              0.0000   YZ=             -0.0000

  Exact polarizability:      42.600      -0.000       2.015       0.000       0.000       2.015
 Approx polarizability:      38.632      -0.000       1.922       0.000      -0.000       1.922

 ******    2 imaginary frequencies (negative Signs) ******

                      1                      2                      3
                      A                      A                      A
 Frequencies --   -663.6824              -232.6561               248.2549
 Red. masses --      1.0106                 1.1052                 1.0161
 Frc consts  --      0.2623                 0.0352                 0.0369
 IR Inten    --     23.7549                17.9268                 0.7532

                      4
                      A
 Frequencies --    248.2549
 Red. masses --      1.0161
 Frc consts  --      0.0369
 IR Inten    --      0.7532

 - Thermochemistry -
 -------------------
 Temperature   298.150 Kelvin.  Pressure   1.00000 Atm.
 Atom     1 has atomic number  1 and mass   1.00783

 Molecular mass:    21.01405 amu.
 Principal axes and moments of inertia in atomic units:
                           1         2         3
     Eigenvalues --     0.00000 130.63154 130.63154
           X            1.00000  -0.00000   0.00000
           Y            0.00000   1.00000   0.00000
           Z            0.00000   0.00000   1.00000
 This molecule is a prolate symmetric top.
 Rotational symmetry number  1.
 Rotational temperature (Kelvin)      0.66304
 Rotational constant (GHZ):          13.815509
    2 imaginary frequencies ignored.
 Zero-point vibrational energy       2969.8 (Joules/Mol)
                                    0.70980 (Kcal/Mol)
 Warning -- explicit consideration of   2 degrees of freedom as
           vibrations may cause significant error
 Vibrational temperatures:    357.18   357.18
          (Kelvin)

 Zero-point correction=                           0.001131 (Hartree/Particle)
 Thermal correction to Energy=                    0.004469
 Thermal correction to Enthalpy=                  0.005414
 Thermal correction to Gibbs Free Energy=        -0.020271
 Sum of electronic and zero-point Energies=           -100.763220
 Sum of electronic and thermal Energies=              -100.759881
 Sum of electronic and thermal Enthalpies=            -100.758937
 Sum of electronic and thermal Free Energies=         -100.784622

                     E (Thermal)             CV                S
                      KCal/Mol        Cal/Mol-Kelvin    Cal/Mol-Kelvin
 Total                    2.805              8.499             54.057
 Electronic               0.000              0.000              1.377
 Translational            0.889              2.981             35.068
 Rotational               0.592              1.987             14.126
 Vibrational              1.323              3.531              3.486
 Vibration     1          0.662              1.766              1.743
 Vibration     2          0.662              1.766              1.743

 Normal termination of Gaussian 16 at Fri Aug 22 19:32:07 2025.
