 Gaussian 16, Revision C.01,
 Gaussian 16:  ES64L-G16RevC.01  3-Jul-2019

 -----------------------------------------
 # sp b3lyp/6-311g** Force nosymm scf=(qc)
 -----------------------------------------

 -------------------
 Title Card Required
 -------------------
 Symbolic Z-matrix:
 Charge =  0 Multiplicity = 2

                          Input orientation:
 ---------------------------------------------------------------------
 Center     Atomic      Atomic             Coordinates (Angstroms)
 Number     Number       Type             X           Y           Z
 ---------------------------------------------------------------------
      1          1           0        0.000000    0.000000    0.000000
      2          1           0       -0.650000    0.000000    0.000000
      3          9           0        1.900000    0.000000    0.000000
 ---------------------------------------------------------------------

 SCF Done:  E(UB3LYP) =  -100.926942608     a.u. after    6 cycles

 Alpha  occ. eigenvalues --  -24.74739  -1.20897  -0.55369  -0.46219  -0.45326
 Alpha  occ. eigenvalues --   -0.45326
 Alpha virt. eigenvalues --    0.09473   0.20068   0.47284   0.90258   0.90258
 Alpha virt. eigenvalues --    0.93652   1.08602   1.08602   1.17721   1.66869
 Alpha virt. eigenvalues --    1.83815   1.88253   1.88253   2.43236   3.68532

  Beta  occ. eigenvalues --  -24.71710  -1.12289  -0.47220  -0.42312  -0.42312
  Beta virt. eigenvalues --   -0.25382   0.10184   0.20682   0.48046   0.91599
  Beta virt. eigenvalues --    0.91599   1.01280   1.09344   1.09344   1.21314
  Beta virt. eigenvalues --    1.68251   1.84387   1.88589   1.88589   2.44079

 Mulliken charges and spin densities:
               1          2
     1  H    0.013719  -0.024847
     2  H    0.025048   0.078144
     3  F   -0.038767   0.946704
 Sum of Mulliken charges =   0.00000   1.00000

 Dipole moment (field-independent basis, Debye):
    X=             -0.4196    Y=              0.0000    Z=             -0.0000  Tot=              0.4196
 Quadrupole moment (field-independent basis, Debye-Ang):
   XX=             -6.0271   YY=             -6.7662   ZZ=             -6.7662
   XY=              0.0000   XZ=             -0.0000   YZ=             -0.0000

  Exact polarizability:      14.964       0.000       2.076       0.000       0.000       2.076
 Approx polarizability:      16.335      -0.000       2.143      -0.000       0.000       2.143

 ******    2 imaginary frequencies (negative Signs) ******

                      1                      2                      3
                      A                      A                      A
 Frequencies --  -2037.6808             -2037.6808               132.3617
 Red. masses --      1.0099                 1.0099                 1.1085
 Frc consts  --      2.4707                 2.4707                 0.0114
 IR Inten    --      0.2940                 0.2940                26.6883

                      4
                      A
 Frequencies --   5911.7665
 Red. masses --      1.0078
 Frc consts  --     20.7526
 IR Inten    --    235.7328

 - Thermochemistry -
 -------------------
 Temperature   298.150 Kelvin.  Pressure   1.00000 Atm.
 Atom     1 has atomic number  1 and mass   1.00783

 Molecular mass:    21.01405 amu.
 Principal axes and moments of inertia in atomic units:
                           1         2         3
     Eigenvalues --     0.00000  32.97693  32.97693
           X            1.00000  -0.00000   0.00000
           Y            0.00000   1.00000   0.00000
           Z            0.00000   0.00000   1.00000
 This molecule is a prolate symmetric top.
 Rotational symmetry number  1.
 Rotational temperature (Kelvin)      2.62650
 Rotational constant (GHZ):          54.727394
    2 imaginary frequencies ignored.
 Zero-point vibrational energy      36151.9 (Joules/Mol)
                                    8.64052 (Kcal/Mol)
 Warning -- explicit consideration of   1 degrees of freedom as
           vibrations may cause significant error
 Vibrational temperatures:    190.44  8505.71
          (Kelvin)

 Zero-point correction=                           0.013770 (Hartree/Particle)
 Thermal correction to Energy=                    0.016805
 Thermal correction to Enthalpy=                  0.017749
 Thermal correction to Gibbs Free Energy=        -0.006363
 Sum of electronic and zero-point Energies=           -100.913173
 Sum of electronic and thermal Energies=              -100.910138
 Sum of electronic and thermal Enthalpies=            -100.909194
 Sum of electronic and thermal Free Energies=         -100.933306

                     E (Thermal)             CV                S
                      KCal/Mol        Cal/Mol-Kelvin    Cal/Mol-Kelvin
 Total                   10.545              6.889             50.747
 Electronic               0.000              0.000              1.377
 Translational            0.889              2.981             35.068
 Rotational               0.592              1.987             11.391
 Vibrational              9.064              1.921              2.911
 Vibration     1          0.612              1.921              2.911

 Normal termination of Gaussian 16 at Fri Aug 22 16:48:49 2025.
