 Gaussian 16, Revision C.01,
 Gaussian 16:  ES64L-G16RevC.01  3-Jul-2019

 -----------------------------------------
 # sp b3lyp/6-311g** Force nosymm scf=(qc)
 -----------------------------------------

 -------------------
 Title Card Required
 -------------------
 Symbolic Z-matrix:
 Charge =  0 Multiplicity = 2

                          Input orientation:
 ---------------------------------------------------------------------
 Center     Atomic      Atomic             Coordinates (Angstroms)
 Number     Number       Type             X           Y           Z
 ---------------------------------------------------------------------
      1          1           0        0.000000    0.000000    0.000000
      2          1           0       -0.500000    0.000000    0.000000
      3          9           0        1.900000    0.000000    0.000000
 ---------------------------------------------------------------------

 SCF Done:  E(UB3LYP) =  -100.860698624     a.u. after    6 cycles

 Alpha  occ. eigenvalues --  -24.75149  -1.21279  -0.56499  -0.49104  -0.45662
 Alpha  occ. eigenvalues --   -0.45662
 Alpha virt. eigenvalues --    0.11915   0.19668   0.52826   0.90107   0.90107
 Alpha virt. eigenvalues --    0.94243   1.11459   1.11459   1.20783   1.65956
 Alpha virt. eigenvalues --    1.84068   1.98944   1.98944   2.47435   3.68133

  Beta  occ. eigenvalues --  -24.72071  -1.12517  -0.50941  -0.42597  -0.42597
  Beta virt. eigenvalues --   -0.25376   0.12393   0.20291   0.53725   0.91478
  Beta virt. eigenvalues --    0.91478   1.01747   1.12016   1.12016   1.24576
  Beta virt. eigenvalues --    1.67074   1.84625   1.99123   1.99123   2.48176

 Mulliken charges and spin densities:
               1          2
     1  H    0.005055  -0.019167
     2  H    0.021211   0.056571
     3  F   -0.026266   0.962596
 Sum of Mulliken charges =   0.00000   1.00000

 Dipole moment (field-independent basis, Debye):
    X=             -0.2751    Y=              0.0000    Z=              0.0000  Tot=              0.2751
 Quadrupole moment (field-independent basis, Debye-Ang):
   XX=             -5.8117   YY=             -6.5555   ZZ=             -6.5555
   XY=              0.0000   XZ=             -0.0000   YZ=             -0.0000

  Exact polarizability:      10.362      -0.000       1.995       0.000       0.000       1.995
 Approx polarizability:      10.762       0.000       2.071       0.000       0.000       2.071

 ******    2 imaginary frequencies (negative Signs) ******

                      1                      2                      3
                      A                      A                      A
 Frequencies --  -4854.1811             -4854.1811               294.8199
 Red. masses --      1.0092                 1.0092                 1.1085
 Frc consts  --     14.0103                14.0103                 0.0568
 IR Inten    --      0.7313                 0.7313                14.3687

                      4
                      A
 Frequencies --   9930.9299
 Red. masses --      1.0078
 Frc consts  --     58.5619
 IR Inten    --    115.0096

 - Thermochemistry -
 -------------------
 Temperature   298.150 Kelvin.  Pressure   1.00000 Atm.
 Atom     1 has atomic number  1 and mass   1.00783

 Molecular mass:    21.01405 amu.
 Principal axes and moments of inertia in atomic units:
                           1         2         3
     Eigenvalues --     0.00000  30.53121  30.53121
           X            1.00000  -0.00000   0.00000
           Y            0.00000   1.00000   0.00000
           Z            0.00000   0.00000   1.00000
 This molecule is a prolate symmetric top.
 Rotational symmetry number  1.
 Rotational temperature (Kelvin)      2.83690
 Rotational constant (GHZ):          59.111359
    2 imaginary frequencies ignored.
 Zero-point vibrational energy      61163.6 (Joules/Mol)
                                   14.61844 (Kcal/Mol)
 Warning -- explicit consideration of   1 degrees of freedom as
           vibrations may cause significant error
 Vibrational temperatures:    424.18 14288.39
          (Kelvin)

 Zero-point correction=                           0.023296 (Hartree/Particle)
 Thermal correction to Energy=                    0.026083
 Thermal correction to Enthalpy=                  0.027027
 Thermal correction to Gibbs Free Energy=         0.003685
 Sum of electronic and zero-point Energies=           -100.837403
 Sum of electronic and thermal Energies=              -100.834616
 Sum of electronic and thermal Enthalpies=            -100.833671
 Sum of electronic and thermal Free Energies=         -100.857014

                     E (Thermal)             CV                S
                      KCal/Mol        Cal/Mol-Kelvin    Cal/Mol-Kelvin
 Total                   16.367              6.651             49.129
 Electronic               0.000              0.000              1.377
 Translational            0.889              2.981             35.068
 Rotational               0.592              1.987             11.237
 Vibrational             14.886              1.683              1.446
 Vibration     1          0.689              1.683              1.446

 Normal termination of Gaussian 16 at Fri Aug 22 16:48:43 2025.
