 Gaussian 16, Revision C.01,
 Gaussian 16:  ES64L-G16RevC.01  3-Jul-2019

 -----------------------------------------
 # sp b3lyp/6-311g** Force nosymm scf=(qc)
 -----------------------------------------

 -------------------
 Title Card Required
 -------------------
 Symbolic Z-matrix:
 Charge =  0 Multiplicity = 2

                          Input orientation:
 ---------------------------------------------------------------------
 Center     Atomic      Atomic             Coordinates (Angstroms)
 Number     Number       Type             X           Y           Z
 ---------------------------------------------------------------------
      1          1           0        0.000000    0.000000    0.000000
      2          1           0       -2.600000    0.000000    0.000000
      3          9           0        3.250000    0.000000    0.000000
 ---------------------------------------------------------------------

 SCF Done:  E(UB3LYP) =  -100.762680425     a.u. after   24 cycles

 Alpha  occ. eigenvalues --  -24.74915  -1.20911  -0.54035  -0.45369  -0.45369
 Alpha  occ. eigenvalues --   -0.32765
 Alpha virt. eigenvalues --   -0.09598   0.25437   0.34210   0.88527   0.91771
 Alpha virt. eigenvalues --    0.91771   1.02645   1.24850   1.24850   1.26482
 Alpha virt. eigenvalues --    1.41342   1.41342   1.42414   2.15789   2.37449

  Beta  occ. eigenvalues --  -24.71833  -1.12064  -0.42282  -0.42282  -0.33295
  Beta virt. eigenvalues --   -0.25246  -0.08779   0.25316   0.35309   0.93250
  Beta virt. eigenvalues --    0.93250   0.97522   1.06604   1.24212   1.24212
  Beta virt. eigenvalues --    1.25705   1.42653   1.42653   1.43707   2.16552

 Mulliken charges and spin densities:
               1          2
     1  H    0.017782  -0.954730
     2  H    0.002901   0.977723
     3  F   -0.020683   0.977007
 Sum of Mulliken charges =  -0.00000   1.00000

 Dipole moment (field-independent basis, Debye):
    X=             -0.3811    Y=             -0.0000    Z=             -0.0000  Tot=              0.3811
 Quadrupole moment (field-independent basis, Debye-Ang):
   XX=             -7.5503   YY=             -7.6526   ZZ=             -7.6526
   XY=             -0.0000   XZ=             -0.0000   YZ=              0.0000

  Exact polarizability:      37.818      -0.000       2.020      -0.000      -0.000       2.020
 Approx polarizability:      31.031      -0.000       1.926      -0.000      -0.000       1.926

 ******    2 imaginary frequencies (negative Signs) ******

                      1                      2                      3
                      A                      A                      A
 Frequencies --   -599.9515              -182.1639               219.6071
 Red. masses --      1.0091                 1.1070                 1.0155
 Frc consts  --      0.2140                 0.0216                 0.0289
 IR Inten    --     13.6708                11.3526                 0.2450

                      4
                      A
 Frequencies --    219.6071
 Red. masses --      1.0155
 Frc consts  --      0.0289
 IR Inten    --      0.2450

 - Thermochemistry -
 -------------------
 Temperature   298.150 Kelvin.  Pressure   1.00000 Atm.
 Atom     1 has atomic number  1 and mass   1.00783

 Molecular mass:    21.01405 amu.
 Principal axes and moments of inertia in atomic units:
                           1         2         3
     Eigenvalues --     0.00000 146.88802 146.88802
           X            1.00000  -0.00000   0.00000
           Y            0.00000   1.00000   0.00000
           Z            0.00000   0.00000   1.00000
 This molecule is a prolate symmetric top.
 Rotational symmetry number  1.
 Rotational temperature (Kelvin)      0.58966
 Rotational constant (GHZ):          12.286511
    2 imaginary frequencies ignored.
 Zero-point vibrational energy       2627.1 (Joules/Mol)
                                    0.62789 (Kcal/Mol)
 Warning -- explicit consideration of   2 degrees of freedom as
           vibrations may cause significant error
 Vibrational temperatures:    315.97   315.97
          (Kelvin)

 Zero-point correction=                           0.001001 (Hartree/Particle)
 Thermal correction to Energy=                    0.004422
 Thermal correction to Enthalpy=                  0.005367
 Thermal correction to Gibbs Free Energy=        -0.020637
 Sum of electronic and zero-point Energies=           -100.761680
 Sum of electronic and thermal Energies=              -100.758258
 Sum of electronic and thermal Enthalpies=            -100.757314
 Sum of electronic and thermal Free Energies=         -100.783318

                     E (Thermal)             CV                S
                      KCal/Mol        Cal/Mol-Kelvin    Cal/Mol-Kelvin
 Total                    2.775              8.590             54.729
 Electronic               0.000              0.000              1.377
 Translational            0.889              2.981             35.068
 Rotational               0.592              1.987             14.359
 Vibrational              1.294              3.622              3.925
 Vibration     1          0.647              1.811              1.962
 Vibration     2          0.647              1.811              1.962

 Normal termination of Gaussian 16 at Fri Aug 22 20:35:09 2025.
