 Gaussian 16, Revision C.01,
 Gaussian 16:  ES64L-G16RevC.01  3-Jul-2019

 -----------------------------------------
 # sp b3lyp/6-311g** Force nosymm scf=(qc)
 -----------------------------------------

 -------------------
 Title Card Required
 -------------------
 Symbolic Z-matrix:
 Charge =  0 Multiplicity = 2

                          Input orientation:
 ---------------------------------------------------------------------
 Center     Atomic      Atomic             Coordinates (Angstroms)
 Number     Number       Type             X           Y           Z
 ---------------------------------------------------------------------
      1          1           0        0.000000    0.000000    0.000000
      2          1           0       -3.700000    0.000000    0.000000
      3          9           0        3.700000    0.000000    0.000000
 ---------------------------------------------------------------------

 SCF Done:  E(UB3LYP) =  -100.758703426     a.u. after   32 cycles

 Alpha  occ. eigenvalues --  -24.75655  -1.21598  -0.54779  -0.45993  -0.45993
 Alpha  occ. eigenvalues --   -0.32276
 Alpha virt. eigenvalues --   -0.06483   0.24212   0.37494   0.87059   0.91313
 Alpha virt. eigenvalues --    0.91313   1.01404   1.25223   1.25223   1.25295
 Alpha virt. eigenvalues --    1.45870   1.45918   1.45918   2.14814   2.41785

  Beta  occ. eigenvalues --  -24.72524  -1.12597  -0.42854  -0.42854  -0.32615
  Beta virt. eigenvalues --   -0.25619  -0.06156   0.23997   0.38130   0.92808
  Beta virt. eigenvalues --    0.92808   0.96313   1.05476   1.24843   1.24843
  Beta virt. eigenvalues --    1.24897   1.46279   1.46464   1.46464   2.14887

 Mulliken charges and spin densities:
               1          2
     1  H    0.006438  -0.991519
     2  H    0.000071   0.998697
     3  F   -0.006508   0.992822
 Sum of Mulliken charges =  -0.00000   1.00000

 Dipole moment (field-independent basis, Debye):
    X=             -0.1254    Y=              0.0000    Z=             -0.0000  Tot=              0.1254
 Quadrupole moment (field-independent basis, Debye-Ang):
   XX=             -7.1575   YY=             -7.6206   ZZ=             -7.6206
   XY=             -0.0000   XZ=              0.0000   YZ=              0.0000

  Exact polarizability:      17.717      -0.000       2.029      -0.000      -0.000       2.029
 Approx polarizability:      13.238      -0.000       1.935       0.000      -0.000       1.935

 ******    2 imaginary frequencies (negative Signs) ******

                      1                      2                      3
                      A                      A                      A
 Frequencies --   -192.7270               -81.5499                62.9498
 Red. masses --      1.0265                 1.0867                 1.0179
 Frc consts  --      0.0225                 0.0043                 0.0024
 IR Inten    --      4.6770                 0.6103                 0.0422

                      4
                      A
 Frequencies --     62.9498
 Red. masses --      1.0179
 Frc consts  --      0.0024
 IR Inten    --      0.0422

 - Thermochemistry -
 -------------------
 Temperature   298.150 Kelvin.  Pressure   1.00000 Atm.
 Atom     1 has atomic number  1 and mass   1.00783

 Molecular mass:    21.01405 amu.
 Principal axes and moments of inertia in atomic units:
                           1         2         3
     Eigenvalues --     0.00000 225.08524 225.08524
           X            1.00000  -0.00000   0.00000
           Y            0.00000   1.00000   0.00000
           Z            0.00000   0.00000   1.00000
 This molecule is a prolate symmetric top.
 Rotational symmetry number  1.
 Rotational temperature (Kelvin)      0.38480
 Rotational constant (GHZ):           8.018035
    2 imaginary frequencies ignored.
 Zero-point vibrational energy        753.0 (Joules/Mol)
                                    0.17998 (Kcal/Mol)
 Warning -- explicit consideration of   2 degrees of freedom as
           vibrations may cause significant error
 Vibrational temperatures:     90.57    90.57
          (Kelvin)

 Zero-point correction=                           0.000287 (Hartree/Particle)
 Thermal correction to Energy=                    0.004263
 Thermal correction to Enthalpy=                  0.005208
 Thermal correction to Gibbs Free Energy=        -0.023480
 Sum of electronic and zero-point Energies=           -100.758417
 Sum of electronic and thermal Energies=              -100.754440
 Sum of electronic and thermal Enthalpies=            -100.753496
 Sum of electronic and thermal Free Energies=         -100.782183

                     E (Thermal)             CV                S
                      KCal/Mol        Cal/Mol-Kelvin    Cal/Mol-Kelvin
 Total                    2.675              8.912             60.378
 Electronic               0.000              0.000              1.377
 Translational            0.889              2.981             35.068
 Rotational               0.592              1.987             15.207
 Vibrational              1.194              3.944              8.725
 Vibration     1          0.597              1.972              4.363
 Vibration     2          0.597              1.972              4.363

 Normal termination of Gaussian 16 at Sat Aug 23 00:05:11 2025.
