 Gaussian 16, Revision C.01,
 Gaussian 16:  ES64L-G16RevC.01  3-Jul-2019

 -----------------------------------------
 # sp b3lyp/6-311g** Force nosymm scf=(qc)
 -----------------------------------------

 -------------------
 Title Card Required
 -------------------
 Symbolic Z-matrix:
 Charge =  0 Multiplicity = 2

                          Input orientation:
 ---------------------------------------------------------------------
 Center     Atomic      Atomic             Coordinates (Angstroms)
 Number     Number       Type             X           Y           Z
 ---------------------------------------------------------------------
      1          1           0        0.000000    0.000000    0.000000
      2          1           0       -0.750000    0.000000    0.000000
      3          9           0        1.300000    0.000000    0.000000
 ---------------------------------------------------------------------

 SCF Done:  E(UB3LYP) =  -100.939917319     a.u. after    6 cycles

 Alpha  occ. eigenvalues --  -24.69004  -1.17302  -0.58278  -0.41462  -0.41462
 Alpha  occ. eigenvalues --   -0.40243
 Alpha virt. eigenvalues --    0.10451   0.19279   0.45582   0.88053   0.88053
 Alpha virt. eigenvalues --    0.96892   1.09063   1.09063   1.41033   1.63890
 Alpha virt. eigenvalues --    1.79465   1.79465   2.00765   2.38546   3.09393

  Beta  occ. eigenvalues --  -24.66724  -1.11255  -0.49908  -0.39299  -0.39299
  Beta virt. eigenvalues --   -0.21775   0.12071   0.20348   0.49168   0.89372
  Beta virt. eigenvalues --    0.89372   1.01903   1.12263   1.12263   1.44749
  Beta virt. eigenvalues --    1.68107   1.81693   1.81693   2.01599   2.43566

 Mulliken charges and spin densities:
               1          2
     1  H    0.209354  -0.039861
     2  H    0.002921   0.377165
     3  F   -0.212275   0.662696
 Sum of Mulliken charges =   0.00000   1.00000

 Dipole moment (field-independent basis, Debye):
    X=             -1.4686    Y=              0.0000    Z=             -0.0000  Tot=              1.4686
 Quadrupole moment (field-independent basis, Debye-Ang):
   XX=             -7.1955   YY=             -6.6943   ZZ=             -6.6943
   XY=              0.0000   XZ=             -0.0000   YZ=              0.0000

  Exact polarizability:      18.505      -0.000       2.416      -0.000       0.000       2.416
 Approx polarizability:      24.198       0.000       2.450       0.000       0.000       2.450

 ******    3 imaginary frequencies (negative Signs) ******

                      1                      2                      3
                      A                      A                      A
 Frequencies --  -1175.4568             -1175.4568              -332.6818
 Red. masses --      1.0127                 1.0127                 1.1061
 Frc consts  --      0.8244                 0.8244                 0.0721
 IR Inten    --      5.3249                 5.3249                96.3115

                      4
                      A
 Frequencies --   3740.9507
 Red. masses --      1.0099
 Frc consts  --      8.3267
 IR Inten    --    597.2360

 - Thermochemistry -
 -------------------
 Temperature   298.150 Kelvin.  Pressure   1.00000 Atm.
 Atom     1 has atomic number  1 and mass   1.00783

 Molecular mass:    21.01405 amu.
 Principal axes and moments of inertia in atomic units:
                           1         2         3
     Eigenvalues --     0.00000  19.27008  19.27008
           X            1.00000  -0.00000   0.00000
           Y            0.00000   1.00000   0.00000
           Z            0.00000   0.00000   1.00000
 This molecule is a prolate symmetric top.
 Rotational symmetry number  1.
 Rotational temperature (Kelvin)      4.49474
 Rotational constant (GHZ):          93.655113
    3 imaginary frequencies ignored.
 Zero-point vibrational energy      22375.9 (Joules/Mol)
                                    5.34796 (Kcal/Mol)
 Vibrational temperatures:   5382.39
          (Kelvin)

 Zero-point correction=                           0.008523 (Hartree/Particle)
 Thermal correction to Energy=                    0.010883
 Thermal correction to Enthalpy=                  0.011827
 Thermal correction to Gibbs Free Energy=        -0.010394
 Sum of electronic and zero-point Energies=           -100.931395
 Sum of electronic and thermal Energies=              -100.929034
 Sum of electronic and thermal Enthalpies=            -100.928090
 Sum of electronic and thermal Free Energies=         -100.950311

                     E (Thermal)             CV                S
                      KCal/Mol        Cal/Mol-Kelvin    Cal/Mol-Kelvin
 Total                    6.829              4.968             46.768
 Electronic               0.000              0.000              1.377
 Translational            0.889              2.981             35.068
 Rotational               0.592              1.987             10.323
 Vibrational              5.348              0.000              0.000

 Normal termination of Gaussian 16 at Fri Aug 22 16:14:08 2025.
