 Gaussian 16, Revision C.01,
 Gaussian 16:  ES64L-G16RevC.01  3-Jul-2019

 -----------------------------------------
 # sp b3lyp/6-311g** Force nosymm scf=(qc)
 -----------------------------------------

 -------------------
 Title Card Required
 -------------------
 Symbolic Z-matrix:
 Charge =  0 Multiplicity = 2

                          Input orientation:
 ---------------------------------------------------------------------
 Center     Atomic      Atomic             Coordinates (Angstroms)
 Number     Number       Type             X           Y           Z
 ---------------------------------------------------------------------
      1          1           0        0.000000    0.000000    0.000000
      2          1           0       -1.650000    0.000000    0.000000
      3          9           0        3.300000    0.000000    0.000000
 ---------------------------------------------------------------------

 SCF Done:  E(UB3LYP) =  -100.800406117     a.u. after   47 cycles

 Alpha  occ. eigenvalues --  -24.75716  -1.21653  -0.54830  -0.46064  -0.46055
 Alpha  occ. eigenvalues --   -0.33652
 Alpha virt. eigenvalues --   -0.10875   0.25276   0.30276   0.87738   0.91237
 Alpha virt. eigenvalues --    0.91670   1.02209   1.06428   1.22688   1.22688
 Alpha virt. eigenvalues --    1.38286   1.38287   1.70745   2.17683   2.42892

  Beta  occ. eigenvalues --  -24.72597  -1.12688  -0.42942  -0.42928  -0.33583
  Beta virt. eigenvalues --   -0.25788  -0.10752   0.25358   0.30557   0.92727
  Beta virt. eigenvalues --    0.92939   0.97084   1.06217   1.06533   1.22759
  Beta virt. eigenvalues --    1.22760   1.38398   1.38398   1.70940   2.18214

 Mulliken charges and spin densities:
               1          2
     1  H   -0.000463  -0.539824
     2  H    0.008697   0.550803
     3  F   -0.008234   0.989021
 Sum of Mulliken charges =   0.00000   1.00000

 Dipole moment (field-independent basis, Debye):
    X=             -0.2110    Y=              0.0011    Z=             -0.0000  Tot=              0.2110
 Quadrupole moment (field-independent basis, Debye-Ang):
   XX=             -6.2230   YY=             -7.5996   ZZ=             -7.7620
   XY=              0.3359   XZ=             -0.0001   YZ=             -0.0001

  Exact polarizability:      19.803      -0.089       2.105       0.000      -0.000       2.016
 Approx polarizability:      53.959       0.172       2.098      -0.000      -0.000       1.989

 ******    2 imaginary frequencies (negative Signs) ******

                      1                      2                      3
                      A                      A                      A
 Frequencies --  -1954.6285              -101.5660               971.7072
 Red. masses --      1.0078                 1.1085                 1.0117
 Frc consts  --      2.2686                 0.0067                 0.5628
 IR Inten    --     31.1444                 0.0154                 0.0141

                      4
                      A
 Frequencies --    971.8412
 Red. masses --      1.0117
 Frc consts  --      0.5630
 IR Inten    --      0.0123

 - Thermochemistry -
 -------------------
 Temperature   298.150 Kelvin.  Pressure   1.00000 Atm.
 Atom     1 has atomic number  1 and mass   1.00783

 Molecular mass:    21.01405 amu.
 Principal axes and moments of inertia in atomic units:
                           1         2         3
     Eigenvalues --     0.00000 115.62985 115.62985
           X            1.00000  -0.00000   0.00000
           Y            0.00000   1.00000   0.00000
           Z            0.00000   0.00000   1.00000
 This molecule is a prolate symmetric top.
 Rotational symmetry number  1.
 Rotational temperature (Kelvin)      0.74906
 Rotational constant (GHZ):          15.607918
    2 imaginary frequencies ignored.
 Zero-point vibrational energy      11625.0 (Joules/Mol)
                                    2.77844 (Kcal/Mol)
 Vibrational temperatures:   1398.07  1398.26
          (Kelvin)

 Zero-point correction=                           0.004428 (Hartree/Particle)
 Thermal correction to Energy=                    0.006870
 Thermal correction to Enthalpy=                  0.007815
 Thermal correction to Gibbs Free Energy=        -0.016198
 Sum of electronic and zero-point Energies=           -100.795978
 Sum of electronic and thermal Energies=              -100.793536
 Sum of electronic and thermal Enthalpies=            -100.792592
 Sum of electronic and thermal Free Energies=         -100.816604

                     E (Thermal)             CV                S
                      KCal/Mol        Cal/Mol-Kelvin    Cal/Mol-Kelvin
 Total                    4.311              5.786             50.539
 Electronic               0.000              0.000              1.377
 Translational            0.889              2.981             35.068
 Rotational               0.592              1.987             13.884
 Vibrational              2.830              0.818              0.210

 Normal termination of Gaussian 16 at Fri Aug 22 20:47:35 2025.
