 Gaussian 16, Revision C.01,
 Gaussian 16:  ES64L-G16RevC.01  3-Jul-2019

 -----------------------------------------
 # sp b3lyp/6-311g** Force nosymm scf=(qc)
 -----------------------------------------

 -------------------
 Title Card Required
 -------------------
 Symbolic Z-matrix:
 Charge =  0 Multiplicity = 2

                          Input orientation:
 ---------------------------------------------------------------------
 Center     Atomic      Atomic             Coordinates (Angstroms)
 Number     Number       Type             X           Y           Z
 ---------------------------------------------------------------------
      1          1           0        0.000000    0.000000    0.000000
      2          1           0       -4.000000    0.000000    0.000000
      3          9           0        2.900000    0.000000    0.000000
 ---------------------------------------------------------------------

 SCF Done:  E(UB3LYP) =  -100.761585032     a.u. after   21 cycles

 Alpha  occ. eigenvalues --  -24.73693  -1.19783  -0.52812  -0.44347  -0.44347
 Alpha  occ. eigenvalues --   -0.32495
 Alpha virt. eigenvalues --   -0.08074   0.23834   0.36142   0.89619   0.92509
 Alpha virt. eigenvalues --    0.92509   1.04435   1.25001   1.25001   1.25016
 Alpha virt. eigenvalues --    1.43708   1.43708   1.45094   2.14294   2.40621

  Beta  occ. eigenvalues --  -24.70693  -1.11194  -0.41346  -0.41346  -0.33984
  Beta virt. eigenvalues --   -0.24547  -0.05910   0.23768   0.38131   0.93961
  Beta virt. eigenvalues --    0.93961   0.98110   1.08005   1.23325   1.23325
  Beta virt. eigenvalues --    1.24111   1.46659   1.46769   1.46769   2.14098

 Mulliken charges and spin densities:
               1          2
     1  H    0.045183  -0.949636
     2  H    0.000141   0.999397
     3  F   -0.045323   0.950238
 Sum of Mulliken charges =  -0.00000   1.00000

 Dipole moment (field-independent basis, Debye):
    X=             -0.6770    Y=              0.0000    Z=             -0.0000  Tot=              0.6770
 Quadrupole moment (field-independent basis, Debye-Ang):
   XX=             -8.5572   YY=             -7.5996   ZZ=             -7.5996
   XY=              0.0000   XZ=             -0.0000   YZ=             -0.0000

  Exact polarizability:      31.156       0.000       2.026      -0.000       0.000       2.026
 Approx polarizability:      33.787       0.000       1.925      -0.000      -0.000       1.925

 ******    2 imaginary frequencies (negative Signs) ******

                      1                      2                      3
                      A                      A                      A
 Frequencies --   -402.2214               -69.3530               143.2531
 Red. masses --      1.0551                 1.0564                 1.0223
 Frc consts  --      0.1006                 0.0030                 0.0124
 IR Inten    --     47.0405                 0.0575                 1.9828

                      4
                      A
 Frequencies --    143.2531
 Red. masses --      1.0223
 Frc consts  --      0.0124
 IR Inten    --      1.9828

 - Thermochemistry -
 -------------------
 Temperature   298.150 Kelvin.  Pressure   1.00000 Atm.
 Atom     1 has atomic number  1 and mass   1.00783

 Molecular mass:    21.01405 amu.
 Principal axes and moments of inertia in atomic units:
                           1         2         3
     Eigenvalues --     0.00000 185.03929 185.03929
           X            1.00000  -0.00000   0.00000
           Y            0.00000   1.00000   0.00000
           Z            0.00000   0.00000   1.00000
 This molecule is a prolate symmetric top.
 Rotational symmetry number  1.
 Rotational temperature (Kelvin)      0.46808
 Rotational constant (GHZ):           9.753286
    2 imaginary frequencies ignored.
 Zero-point vibrational energy       1713.7 (Joules/Mol)
                                    0.40958 (Kcal/Mol)
 Warning -- explicit consideration of   2 degrees of freedom as
           vibrations may cause significant error
 Vibrational temperatures:    206.11   206.11
          (Kelvin)

 Zero-point correction=                           0.000653 (Hartree/Particle)
 Thermal correction to Energy=                    0.004323
 Thermal correction to Enthalpy=                  0.005268
 Thermal correction to Gibbs Free Energy=        -0.021712
 Sum of electronic and zero-point Energies=           -100.760932
 Sum of electronic and thermal Energies=              -100.757262
 Sum of electronic and thermal Enthalpies=            -100.756317
 Sum of electronic and thermal Free Energies=         -100.783297

                     E (Thermal)             CV                S
                      KCal/Mol        Cal/Mol-Kelvin    Cal/Mol-Kelvin
 Total                    2.713              8.788             56.783
 Electronic               0.000              0.000              1.377
 Translational            0.889              2.981             35.068
 Rotational               0.592              1.987             14.818
 Vibrational              1.232              3.820              5.520
 Vibration     1          0.616              1.910              2.760
 Vibration     2          0.616              1.910              2.760

 Normal termination of Gaussian 16 at Fri Aug 22 19:05:17 2025.
