 Gaussian 16, Revision C.01,
 Gaussian 16:  ES64L-G16RevC.01  3-Jul-2019

 -----------------------------------------
 # sp b3lyp/6-311g** Force nosymm scf=(qc)
 -----------------------------------------

 -------------------
 Title Card Required
 -------------------
 Symbolic Z-matrix:
 Charge =  0 Multiplicity = 2

                          Input orientation:
 ---------------------------------------------------------------------
 Center     Atomic      Atomic             Coordinates (Angstroms)
 Number     Number       Type             X           Y           Z
 ---------------------------------------------------------------------
      1          1           0        0.000000    0.000000    0.000000
      2          1           0       -3.250000    0.000000    0.000000
      3          9           0        1.100000    0.000000    0.000000
 ---------------------------------------------------------------------

 SCF Done:  E(UB3LYP) =  -100.948489926     a.u. after    6 cycles

 Alpha  occ. eigenvalues --  -24.64277  -1.13851  -0.49600  -0.38085  -0.38085
 Alpha  occ. eigenvalues --   -0.34019
 Alpha virt. eigenvalues --   -0.02385   0.23603   0.31160   0.93586   0.93586
 Alpha virt. eigenvalues --    0.99613   1.23390   1.23503   1.23503   1.29329
 Alpha virt. eigenvalues --    1.35235   1.35235   1.79811   2.14167   2.31942

  Beta  occ. eigenvalues --  -24.64272  -1.13839  -0.49585  -0.38080  -0.38080
  Beta virt. eigenvalues --   -0.07337  -0.01241   0.29846   0.38625   0.93586
  Beta virt. eigenvalues --    0.93586   0.99623   1.29019   1.35228   1.35228
  Beta virt. eigenvalues --    1.48053   1.48053   1.48593   1.79871   2.31859

 Mulliken charges and spin densities:
               1          2
     1  H    0.339505   0.000603
     2  H    0.001899   0.997758
     3  F   -0.341404   0.001639
 Sum of Mulliken charges =   0.00000   1.00000

 Dipole moment (field-independent basis, Debye):
    X=             -2.1845    Y=              0.0000    Z=              0.0000  Tot=              2.1845
 Quadrupole moment (field-independent basis, Debye-Ang):
   XX=             -8.4929   YY=             -7.0484   ZZ=             -7.0484
   XY=              0.0000   XZ=              0.0000   YZ=              0.0000

  Exact polarizability:       8.430       0.000       2.367      -0.000      -0.000       2.367
 Approx polarizability:      10.855       0.000       2.333      -0.000       0.000       2.333

 ******    1 imaginary frequencies (negative Signs) ******

                      1                      2                      3
                      A                      A                      A
 Frequencies --    -68.3428              1180.5021              1180.5021
 Red. masses --      1.0530                 1.0343                 1.0343
 Frc consts  --      0.0029                 0.8493                 0.8493
 IR Inten    --      0.1747               155.0094               155.0094

                      4
                      A
 Frequencies --   1937.8241
 Red. masses --      1.0585
 Frc consts  --      2.3420
 IR Inten    --     83.2641

 - Thermochemistry -
 -------------------
 Temperature   298.150 Kelvin.  Pressure   1.00000 Atm.
 Atom     1 has atomic number  1 and mass   1.00783

 Molecular mass:    21.01405 amu.
 Principal axes and moments of inertia in atomic units:
                           1         2         3
     Eigenvalues --     0.00000  67.33018  67.33018
           X            1.00000  -0.00000   0.00000
           Y            0.00000   1.00000   0.00000
           Z            0.00000   0.00000   1.00000
 This molecule is a prolate symmetric top.
 Rotational symmetry number  1.
 Rotational temperature (Kelvin)      1.28641
 Rotational constant (GHZ):          26.804341
    1 imaginary frequencies ignored.
 Zero-point vibrational energy      25712.7 (Joules/Mol)
                                    6.14548 (Kcal/Mol)
 Vibrational temperatures:   1698.48  1698.48  2788.10
          (Kelvin)

 Zero-point correction=                           0.009793 (Hartree/Particle)
 Thermal correction to Energy=                    0.012191
 Thermal correction to Enthalpy=                  0.013135
 Thermal correction to Gibbs Free Energy=        -0.010311
 Sum of electronic and zero-point Energies=           -100.938696
 Sum of electronic and thermal Energies=              -100.936299
 Sum of electronic and thermal Enthalpies=            -100.935355
 Sum of electronic and thermal Free Energies=         -100.958801

                     E (Thermal)             CV                S
                      KCal/Mol        Cal/Mol-Kelvin    Cal/Mol-Kelvin
 Total                    7.650              5.419             49.346
 Electronic               0.000              0.000              1.377
 Translational            0.889              2.981             35.068
 Rotational               0.592              1.987             12.809
 Vibrational              6.169              0.451              0.091

 Normal termination of Gaussian 16 at Fri Aug 22 16:06:09 2025.
