 Gaussian 16, Revision C.01,
 Gaussian 16:  ES64L-G16RevC.01  3-Jul-2019

 -----------------------------------------
 # sp b3lyp/6-311g** Force nosymm scf=(qc)
 -----------------------------------------

 -------------------
 Title Card Required
 -------------------
 Symbolic Z-matrix:
 Charge =  0 Multiplicity = 2

                          Input orientation:
 ---------------------------------------------------------------------
 Center     Atomic      Atomic             Coordinates (Angstroms)
 Number     Number       Type             X           Y           Z
 ---------------------------------------------------------------------
      1          1           0        0.000000    0.000000    0.000000
      2          1           0       -0.900000    0.000000    0.000000
      3          9           0        1.900000    0.000000    0.000000
 ---------------------------------------------------------------------

 SCF Done:  E(UB3LYP) =  -100.925373810     a.u. after    7 cycles

 Alpha  occ. eigenvalues --  -24.73535  -1.19779  -0.53768  -0.44332  -0.44332
 Alpha  occ. eigenvalues --   -0.42382
 Alpha virt. eigenvalues --    0.03700   0.20737   0.39627   0.90806   0.90806
 Alpha virt. eigenvalues --    0.92443   1.06807   1.06807   1.12454   1.58688
 Alpha virt. eigenvalues --    1.70417   1.70417   2.15984   2.35973   2.75900

  Beta  occ. eigenvalues --  -24.70627  -1.11543  -0.42746  -0.41444  -0.41444
  Beta virt. eigenvalues --   -0.25156   0.04907   0.21463   0.40308   0.92078
  Beta virt. eigenvalues --    0.92078   1.00022   1.07912   1.07912   1.15495
  Beta virt. eigenvalues --    1.60872   1.71086   1.71086   2.17112   2.37122

 Mulliken charges and spin densities:
               1          2
     1  H    0.030948  -0.047770
     2  H    0.038233   0.139008
     3  F   -0.069181   0.908763
 Sum of Mulliken charges =   0.00000   1.00000

 Dipole moment (field-independent basis, Debye):
    X=             -0.7909    Y=              0.0000    Z=             -0.0000  Tot=              0.7909
 Quadrupole moment (field-independent basis, Debye-Ang):
   XX=             -6.4648   YY=             -7.0723   ZZ=             -7.0723
   XY=             -0.0000   XZ=             -0.0000   YZ=              0.0000

  Exact polarizability:      25.762      -0.000       2.175      -0.000       0.000       2.175
 Approx polarizability:      32.057       0.000       2.211      -0.000      -0.000       2.211

 ******    1 imaginary frequencies (negative Signs) ******

                      1                      2                      3
                      A                      A                      A
 Frequencies --   -388.2798              1323.3439              1323.3439
 Red. masses --      1.1078                 1.0114                 1.0114
 Frc consts  --      0.0984                 1.0436                 1.0436
 IR Inten    --     87.1757                 0.0111                 0.0111

                      4
                      A
 Frequencies --   2428.7558
 Red. masses --      1.0084
 Frc consts  --      3.5046
 IR Inten    --    530.8323

 - Thermochemistry -
 -------------------
 Temperature   298.150 Kelvin.  Pressure   1.00000 Atm.
 Atom     1 has atomic number  1 and mass   1.00783

 Molecular mass:    21.01405 amu.
 Principal axes and moments of inertia in atomic units:
                           1         2         3
     Eigenvalues --     0.00000  37.39576  37.39576
           X            1.00000  -0.00000   0.00000
           Y            0.00000   1.00000   0.00000
           Z            0.00000   0.00000   1.00000
 This molecule is a prolate symmetric top.
 Rotational symmetry number  1.
 Rotational temperature (Kelvin)      2.31614
 Rotational constant (GHZ):          48.260582
    1 imaginary frequencies ignored.
 Zero-point vibrational energy      30357.9 (Joules/Mol)
                                    7.25571 (Kcal/Mol)
 Vibrational temperatures:   1904.00  1904.00  3494.44
          (Kelvin)

 Zero-point correction=                           0.011563 (Hartree/Particle)
 Thermal correction to Energy=                    0.013944
 Thermal correction to Enthalpy=                  0.014888
 Thermal correction to Gibbs Free Energy=        -0.007983
 Sum of electronic and zero-point Energies=           -100.913811
 Sum of electronic and thermal Energies=              -100.911430
 Sum of electronic and thermal Enthalpies=            -100.910486
 Sum of electronic and thermal Free Energies=         -100.933357

                     E (Thermal)             CV                S
                      KCal/Mol        Cal/Mol-Kelvin    Cal/Mol-Kelvin
 Total                    8.750              5.244             48.136
 Electronic               0.000              0.000              1.377
 Translational            0.889              2.981             35.068
 Rotational               0.592              1.987             11.640
 Vibrational              7.269              0.276              0.050

 Normal termination of Gaussian 16 at Fri Aug 22 16:49:00 2025.
