 Gaussian 16, Revision C.01,
 Gaussian 16:  ES64L-G16RevC.01  3-Jul-2019

 -----------------------------------------
 # sp b3lyp/6-311g** Force nosymm scf=(qc)
 -----------------------------------------

 -------------------
 Title Card Required
 -------------------
 Symbolic Z-matrix:
 Charge =  0 Multiplicity = 2

                          Input orientation:
 ---------------------------------------------------------------------
 Center     Atomic      Atomic             Coordinates (Angstroms)
 Number     Number       Type             X           Y           Z
 ---------------------------------------------------------------------
      1          1           0        0.000000    0.000000    0.000000
      2          1           0       -3.650000    0.000000    0.000000
      3          9           0        3.600000    0.000000    0.000000
 ---------------------------------------------------------------------

 SCF Done:  E(UB3LYP) =  -100.758856985     a.u. after   32 cycles

 Alpha  occ. eigenvalues --  -24.75534  -1.21486  -0.54657  -0.45891  -0.45891
 Alpha  occ. eigenvalues --   -0.32299
 Alpha virt. eigenvalues --   -0.06647   0.24214   0.37304   0.87306   0.91389
 Alpha virt. eigenvalues --    0.91389   1.01585   1.25201   1.25201   1.25288
 Alpha virt. eigenvalues --    1.45707   1.45707   1.45717   2.14852   2.41661

  Beta  occ. eigenvalues --  -24.72410  -1.12509  -0.42760  -0.42760  -0.32709
  Beta virt. eigenvalues --   -0.25558  -0.06235   0.23982   0.38087   0.92881
  Beta virt. eigenvalues --    0.92881   0.96507   1.05628   1.24736   1.24736
  Beta virt. eigenvalues --    1.24805   1.46184   1.46386   1.46386   2.14979

 Mulliken charges and spin densities:
               1          2
     1  H    0.008653  -0.988898
     2  H    0.000099   0.998533
     3  F   -0.008753   0.990365
 Sum of Mulliken charges =  -0.00000   1.00000

 Dipole moment (field-independent basis, Debye):
    X=             -0.1640    Y=              0.0000    Z=              0.0000  Tot=              0.1640
 Quadrupole moment (field-independent basis, Debye-Ang):
   XX=             -7.2724   YY=             -7.6206   ZZ=             -7.6206
   XY=             -0.0000   XZ=             -0.0000   YZ=             -0.0000

  Exact polarizability:      20.590      -0.000       2.042      -0.000      -0.000       2.042
 Approx polarizability:      15.756      -0.000       1.935      -0.000       0.000       1.935

 ******    2 imaginary frequencies (negative Signs) ******

                      1                      2                      3
                      A                      A                      A
 Frequencies --   -214.0875               -88.9696                56.9108
 Red. masses --      1.0296                 1.0833                 1.0181
 Frc consts  --      0.0278                 0.0051                 0.0019
 IR Inten    --      7.3357                 0.7395                 0.0599

                      4
                      A
 Frequencies --     56.9116
 Red. masses --      1.0181
 Frc consts  --      0.0019
 IR Inten    --      0.0599

 - Thermochemistry -
 -------------------
 Temperature   298.150 Kelvin.  Pressure   1.00000 Atm.
 Atom     1 has atomic number  1 and mass   1.00783

 Molecular mass:    21.01405 amu.
 Principal axes and moments of inertia in atomic units:
                           1         2         3
     Eigenvalues --     0.00000 215.49632 215.49632
           X            1.00000  -0.00000   0.00000
           Y            0.00000   1.00000   0.00000
           Z            0.00000   0.00000   1.00000
 This molecule is a prolate symmetric top.
 Rotational symmetry number  1.
 Rotational temperature (Kelvin)      0.40193
 Rotational constant (GHZ):           8.374812
    2 imaginary frequencies ignored.
 Zero-point vibrational energy        680.8 (Joules/Mol)
                                    0.16272 (Kcal/Mol)
 Warning -- explicit consideration of   2 degrees of freedom as
           vibrations may cause significant error
 Vibrational temperatures:     81.88    81.88
          (Kelvin)

 Zero-point correction=                           0.000259 (Hartree/Particle)
 Thermal correction to Energy=                    0.004261
 Thermal correction to Enthalpy=                  0.005205
 Thermal correction to Gibbs Free Energy=        -0.023631
 Sum of electronic and zero-point Energies=           -100.758598
 Sum of electronic and thermal Energies=              -100.754596
 Sum of electronic and thermal Enthalpies=            -100.753652
 Sum of electronic and thermal Free Energies=         -100.782488

                     E (Thermal)             CV                S
                      KCal/Mol        Cal/Mol-Kelvin    Cal/Mol-Kelvin
 Total                    2.674              8.918             60.689
 Electronic               0.000              0.000              1.377
 Translational            0.889              2.981             35.068
 Rotational               0.592              1.987             15.121
 Vibrational              1.192              3.950              9.123
 Vibration     1          0.596              1.975              4.562
 Vibration     2          0.596              1.975              4.562

 Normal termination of Gaussian 16 at Fri Aug 22 23:08:13 2025.
