 Gaussian 16, Revision C.01,
 Gaussian 16:  ES64L-G16RevC.01  3-Jul-2019

 -----------------------------------------
 # sp b3lyp/6-311g** Force nosymm scf=(qc)
 -----------------------------------------

 -------------------
 Title Card Required
 -------------------
 Symbolic Z-matrix:
 Charge =  0 Multiplicity = 2

                          Input orientation:
 ---------------------------------------------------------------------
 Center     Atomic      Atomic             Coordinates (Angstroms)
 Number     Number       Type             X           Y           Z
 ---------------------------------------------------------------------
      1          1           0        0.000000    0.000000    0.000000
      2          1           0       -1.100000    0.000000    0.000000
      3          9           0        3.550000    0.000000    0.000000
 ---------------------------------------------------------------------

 SCF Done:  E(UB3LYP) =  -100.889806912     a.u. after   95 cycles

 Alpha  occ. eigenvalues --  -24.76347  -1.22221  -0.55421  -0.46613  -0.46575
 Alpha  occ. eigenvalues --   -0.37489
 Alpha virt. eigenvalues --   -0.01847   0.22144   0.36222   0.85976   0.90852
 Alpha virt. eigenvalues --    0.92180   1.01396   1.10815   1.10818   1.29737
 Alpha virt. eigenvalues --    1.59928   1.59931   2.16545   2.34293   2.55385

  Beta  occ. eigenvalues --  -24.73190  -1.13143  -0.43449  -0.43410  -0.37486
  Beta virt. eigenvalues --   -0.26063  -0.01841   0.22152   0.36256   0.92352
  Beta virt. eigenvalues --    0.93684   0.95440   1.05500   1.10814   1.10817
  Beta virt. eigenvalues --    1.29743   1.59928   1.59931   2.16552   2.34295

 Mulliken charges and spin densities:
               1          2
     1  H    0.000014  -0.000210
     2  H   -0.002869  -0.000120
     3  F    0.002855   1.000329
 Sum of Mulliken charges =  -0.00000   1.00000

 Dipole moment (field-independent basis, Debye):
    X=              0.0436    Y=             -0.0000    Z=              0.0000  Tot=              0.0436
 Quadrupole moment (field-independent basis, Debye-Ang):
   XX=             -6.2686   YY=             -6.9562   ZZ=             -6.9586
   XY=             -0.0000   XZ=              0.0000   YZ=             -0.4322

  Exact polarizability:      14.006      -0.000       2.307       0.000      -0.232       2.306
 Approx polarizability:      19.635      -0.000       2.405       0.000      -0.291       2.403

 ******    1 imaginary frequencies (negative Signs) ******

                      1                      2                      3
                      A                      A                      A
 Frequencies --    -49.2758              1026.9268              1529.3246
 Red. masses --      1.1085                 1.0078                 1.0096
 Frc consts  --      0.0016                 0.6262                 1.3913
 IR Inten    --      0.1427                 0.1508                 0.0005

                      4
                      A
 Frequencies --   1529.3720
 Red. masses --      1.0096
 Frc consts  --      1.3913
 IR Inten    --      0.0004

 - Thermochemistry -
 -------------------
 Temperature   298.150 Kelvin.  Pressure   1.00000 Atm.
 Atom     1 has atomic number  1 and mass   1.00783

 Molecular mass:    21.01405 amu.
 Principal axes and moments of inertia in atomic units:
                           1         2         3
     Eigenvalues --     0.00000 111.56998 111.56998
           X            1.00000  -0.00000   0.00000
           Y            0.00000   1.00000   0.00000
           Z            0.00000   0.00000   1.00000
 This molecule is a prolate symmetric top.
 Rotational symmetry number  1.
 Rotational temperature (Kelvin)      0.77632
 Rotational constant (GHZ):          16.175868
    1 imaginary frequencies ignored.
 Zero-point vibrational energy      24437.5 (Joules/Mol)
                                    5.84069 (Kcal/Mol)
 Vibrational temperatures:   1477.52  2200.36  2200.43
          (Kelvin)

 Zero-point correction=                           0.009308 (Hartree/Particle)
 Thermal correction to Energy=                    0.011710
 Thermal correction to Enthalpy=                  0.012654
 Thermal correction to Gibbs Free Energy=        -0.011275
 Sum of electronic and zero-point Energies=           -100.880499
 Sum of electronic and thermal Energies=              -100.878097
 Sum of electronic and thermal Enthalpies=            -100.877153
 Sum of electronic and thermal Free Energies=         -100.901082

                     E (Thermal)             CV                S
                      KCal/Mol        Cal/Mol-Kelvin    Cal/Mol-Kelvin
 Total                    7.348              5.452             50.363
 Electronic               0.000              0.000              1.377
 Translational            0.889              2.981             35.068
 Rotational               0.592              1.987             13.813
 Vibrational              5.867              0.484              0.105

 Normal termination of Gaussian 16 at Fri Aug 22 22:22:27 2025.
