 Gaussian 16, Revision C.01,
 Gaussian 16:  ES64L-G16RevC.01  3-Jul-2019

 -----------------------------------------
 # sp b3lyp/6-311g** Force nosymm scf=(qc)
 -----------------------------------------

 -------------------
 Title Card Required
 -------------------
 Symbolic Z-matrix:
 Charge =  0 Multiplicity = 2

                          Input orientation:
 ---------------------------------------------------------------------
 Center     Atomic      Atomic             Coordinates (Angstroms)
 Number     Number       Type             X           Y           Z
 ---------------------------------------------------------------------
      1          1           0        0.000000    0.000000    0.000000
      2          1           0       -2.500000    0.000000    0.000000
      3          9           0        0.800000    0.000000    0.000000
 ---------------------------------------------------------------------

 SCF Done:  E(UB3LYP) =  -100.950546755     a.u. after    6 cycles

 Alpha  occ. eigenvalues --  -24.63603  -1.22972  -0.56164  -0.40581  -0.40581
 Alpha  occ. eigenvalues --   -0.34649
 Alpha virt. eigenvalues --    0.06478   0.25387   0.45797   0.94270   0.94270
 Alpha virt. eigenvalues --    0.96868   1.18330   1.22901   1.22901   1.39887
 Alpha virt. eigenvalues --    1.39887   1.41110   2.02658   2.14204   2.53186

  Beta  occ. eigenvalues --  -24.63591  -1.22940  -0.56116  -0.40571  -0.40571
  Beta virt. eigenvalues --   -0.08802   0.07984   0.37592   0.45916   0.94270
  Beta virt. eigenvalues --    0.94270   0.96995   1.28436   1.39867   1.39867
  Beta virt. eigenvalues --    1.45297   1.45297   1.54734   2.02619   2.42082

 Mulliken charges and spin densities:
               1          2
     1  H    0.270178   0.003606
     2  H    0.005145   0.992431
     3  F   -0.275323   0.003963
 Sum of Mulliken charges =   0.00000   1.00000

 Dipole moment (field-independent basis, Debye):
    X=             -1.7998    Y=             -0.0000    Z=             -0.0000  Tot=              1.7998
 Quadrupole moment (field-independent basis, Debye-Ang):
   XX=             -7.4080   YY=             -6.7617   ZZ=             -6.7617
   XY=             -0.0000   XZ=             -0.0000   YZ=             -0.0000

  Exact polarizability:       6.338       0.000       2.471      -0.000      -0.000       2.471
 Approx polarizability:       6.662      -0.000       2.456       0.000      -0.000       2.456

 ******    2 imaginary frequencies (negative Signs) ******

                      1                      2                      3
                      A                      A                      A
 Frequencies --  -1960.3890             -1960.3890                78.8670
 Red. masses --      1.0352                 1.0352                 1.0532
 Frc consts  --      2.3441                 2.3441                 0.0039
 IR Inten    --    181.6467               181.6467                 0.3757

                      4
                      A
 Frequencies --   6346.6520
 Red. masses --      1.0583
 Frc consts  --     25.1169
 IR Inten    --    127.5796

 - Thermochemistry -
 -------------------
 Temperature   298.150 Kelvin.  Pressure   1.00000 Atm.
 Atom     1 has atomic number  1 and mass   1.00783

 Molecular mass:    21.01405 amu.
 Principal axes and moments of inertia in atomic units:
                           1         2         3
     Eigenvalues --     0.00000  38.59505  38.59505
           X            1.00000  -0.00000   0.00000
           Y            0.00000   1.00000   0.00000
           Z            0.00000   0.00000   1.00000
 This molecule is a prolate symmetric top.
 Rotational symmetry number  1.
 Rotational temperature (Kelvin)      2.24417
 Rotational constant (GHZ):          46.760955
    2 imaginary frequencies ignored.
 Zero-point vibrational energy      38433.1 (Joules/Mol)
                                    9.18574 (Kcal/Mol)
 Warning -- explicit consideration of   1 degrees of freedom as
           vibrations may cause significant error
 Vibrational temperatures:    113.47  9131.42
          (Kelvin)

 Zero-point correction=                           0.014638 (Hartree/Particle)
 Thermal correction to Energy=                    0.017775
 Thermal correction to Enthalpy=                  0.018719
 Thermal correction to Gibbs Free Energy=        -0.006020
 Sum of electronic and zero-point Energies=           -100.935908
 Sum of electronic and thermal Energies=              -100.932772
 Sum of electronic and thermal Enthalpies=            -100.931828
 Sum of electronic and thermal Free Energies=         -100.956567

                     E (Thermal)             CV                S
                      KCal/Mol        Cal/Mol-Kelvin    Cal/Mol-Kelvin
 Total                   11.154              6.931             52.067
 Electronic               0.000              0.000              1.377
 Translational            0.889              2.981             35.068
 Rotational               0.592              1.987             11.703
 Vibrational              9.673              1.963              3.919
 Vibration     1          0.600              1.963              3.919

 Normal termination of Gaussian 16 at Fri Aug 22 15:51:26 2025.
