 Gaussian 16, Revision C.01,
 Gaussian 16:  ES64L-G16RevC.01  3-Jul-2019

 -----------------------------------------
 # sp b3lyp/6-311g** Force nosymm scf=(qc)
 -----------------------------------------

 -------------------
 Title Card Required
 -------------------
 Symbolic Z-matrix:
 Charge =  0 Multiplicity = 2

                          Input orientation:
 ---------------------------------------------------------------------
 Center     Atomic      Atomic             Coordinates (Angstroms)
 Number     Number       Type             X           Y           Z
 ---------------------------------------------------------------------
      1          1           0        0.000000    0.000000    0.000000
      2          1           0       -2.500000    0.000000    0.000000
      3          9           0        2.950000    0.000000    0.000000
 ---------------------------------------------------------------------

 SCF Done:  E(UB3LYP) =  -100.765193848     a.u. after   26 cycles

 Alpha  occ. eigenvalues --  -24.73968  -1.20033  -0.53084  -0.44573  -0.44573
 Alpha  occ. eigenvalues --   -0.33131
 Alpha virt. eigenvalues --   -0.10570   0.25319   0.33538   0.89710   0.92349
 Alpha virt. eigenvalues --    0.92349   1.04259   1.24522   1.24522   1.26462
 Alpha virt. eigenvalues --    1.39778   1.39778   1.41639   2.15308   2.36355

  Beta  occ. eigenvalues --  -24.70951  -1.11388  -0.41554  -0.41554  -0.33917
  Beta virt. eigenvalues --   -0.24725  -0.09284   0.25552   0.34835   0.93807
  Beta virt. eigenvalues --    0.93807   0.98413   1.08139   1.23581   1.23581
  Beta virt. eigenvalues --    1.25418   1.41863   1.41863   1.43550   2.16241

 Mulliken charges and spin densities:
               1          2
     1  H    0.033437  -0.926558
     2  H    0.006056   0.970582
     3  F   -0.039493   0.955976
 Sum of Mulliken charges =   0.00000   1.00000

 Dipole moment (field-independent basis, Debye):
    X=             -0.6699    Y=              0.0000    Z=             -0.0000  Tot=              0.6699
 Quadrupole moment (field-independent basis, Debye-Ang):
   XX=             -8.0264   YY=             -7.6495   ZZ=             -7.6495
   XY=              0.0000   XZ=             -0.0000   YZ=             -0.0000

  Exact polarizability:      44.279       0.000       2.014      -0.000       0.000       2.014
 Approx polarizability:      40.634       0.000       1.921      -0.000      -0.000       1.921

 ******    2 imaginary frequencies (negative Signs) ******

                      1                      2                      3
                      A                      A                      A
 Frequencies --   -710.3303              -245.6382               267.1120
 Red. masses --      1.0104                 1.1054                 1.0161
 Frc consts  --      0.3004                 0.0393                 0.0427
 IR Inten    --     25.2882                20.4610                 0.8706

                      4
                      A
 Frequencies --    267.1120
 Red. masses --      1.0161
 Frc consts  --      0.0427
 IR Inten    --      0.8706

 - Thermochemistry -
 -------------------
 Temperature   298.150 Kelvin.  Pressure   1.00000 Atm.
 Atom     1 has atomic number  1 and mass   1.00783

 Molecular mass:    21.01405 amu.
 Principal axes and moments of inertia in atomic units:
                           1         2         3
     Eigenvalues --     0.00000 126.04078 126.04078
           X            1.00000  -0.00000   0.00000
           Y            0.00000   1.00000   0.00000
           Z            0.00000   0.00000   1.00000
 This molecule is a prolate symmetric top.
 Rotational symmetry number  1.
 Rotational temperature (Kelvin)      0.68719
 Rotational constant (GHZ):          14.318709
    2 imaginary frequencies ignored.
 Zero-point vibrational energy       3195.4 (Joules/Mol)
                                    0.76371 (Kcal/Mol)
 Warning -- explicit consideration of   2 degrees of freedom as
           vibrations may cause significant error
 Vibrational temperatures:    384.31   384.31
          (Kelvin)

 Zero-point correction=                           0.001217 (Hartree/Particle)
 Thermal correction to Energy=                    0.004503
 Thermal correction to Enthalpy=                  0.005448
 Thermal correction to Gibbs Free Energy=        -0.020081
 Sum of electronic and zero-point Energies=           -100.763977
 Sum of electronic and thermal Energies=              -100.760691
 Sum of electronic and thermal Enthalpies=            -100.759746
 Sum of electronic and thermal Free Energies=         -100.785275

                     E (Thermal)             CV                S
                      KCal/Mol        Cal/Mol-Kelvin    Cal/Mol-Kelvin
 Total                    2.826              8.435             53.730
 Electronic               0.000              0.000              1.377
 Translational            0.889              2.981             35.068
 Rotational               0.592              1.987             14.055
 Vibrational              1.345              3.467              3.230
 Vibration     1          0.672              1.733              1.615
 Vibration     2          0.672              1.733              1.615

 Normal termination of Gaussian 16 at Fri Aug 22 19:17:55 2025.
