 Gaussian 16, Revision C.01,
 Gaussian 16:  ES64L-G16RevC.01  3-Jul-2019

 -----------------------------------------
 # sp b3lyp/6-311g** Force nosymm scf=(qc)
 -----------------------------------------

 -------------------
 Title Card Required
 -------------------
 Symbolic Z-matrix:
 Charge =  0 Multiplicity = 2

                          Input orientation:
 ---------------------------------------------------------------------
 Center     Atomic      Atomic             Coordinates (Angstroms)
 Number     Number       Type             X           Y           Z
 ---------------------------------------------------------------------
      1          1           0        0.000000    0.000000    0.000000
      2          1           0       -2.500000    0.000000    0.000000
      3          9           0        1.500000    0.000000    0.000000
 ---------------------------------------------------------------------

 SCF Done:  E(UB3LYP) =  -100.856195857     a.u. after    8 cycles

 Alpha  occ. eigenvalues --  -24.64099  -1.09716  -0.43416  -0.36240  -0.36240
 Alpha  occ. eigenvalues --   -0.35709
 Alpha virt. eigenvalues --   -0.13440   0.22998   0.26764   0.93841   0.93841
 Alpha virt. eigenvalues --    1.03457   1.10443   1.21770   1.21770   1.24659
 Alpha virt. eigenvalues --    1.32102   1.32102   1.74561   2.12779   2.20432

  Beta  occ. eigenvalues --  -24.63801  -1.08928  -0.42573  -0.35958  -0.35958
  Beta virt. eigenvalues --   -0.16025  -0.07881   0.25150   0.35453   0.93737
  Beta virt. eigenvalues --    0.93737   1.04191   1.10905   1.30784   1.30784
  Beta virt. eigenvalues --    1.42141   1.42141   1.43372   1.74301   2.18209

 Mulliken charges and spin densities:
               1          2
     1  H    0.333890  -0.071812
     2  H    0.018874   0.977968
     3  F   -0.352764   0.093844
 Sum of Mulliken charges =  -0.00000   1.00000

 Dipole moment (field-independent basis, Debye):
    X=             -2.8245    Y=              0.0000    Z=             -0.0000  Tot=              2.8245
 Quadrupole moment (field-independent basis, Debye-Ang):
   XX=             -9.3492   YY=             -7.3238   ZZ=             -7.3238
   XY=              0.0000   XZ=             -0.0000   YZ=              0.0000

  Exact polarizability:      22.146      -0.000       2.202       0.000       0.000       2.202
 Approx polarizability:      34.836      -0.000       2.130       0.000       0.000       2.130

 ******    2 imaginary frequencies (negative Signs) ******

                      1                      2                      3
                      A                      A                      A
 Frequencies --  -1402.8949              -252.1830               992.8920
 Red. masses --      1.0482                 1.0634                 1.0251
 Frc consts  --      1.2155                 0.0398                 0.5954
 IR Inten    --     87.6703                 2.5719                97.6664

                      4
                      A
 Frequencies --    992.8920
 Red. masses --      1.0251
 Frc consts  --      0.5954
 IR Inten    --     97.6664

 - Thermochemistry -
 -------------------
 Temperature   298.150 Kelvin.  Pressure   1.00000 Atm.
 Atom     1 has atomic number  1 and mass   1.00783

 Molecular mass:    21.01405 amu.
 Principal axes and moments of inertia in atomic units:
                           1         2         3
     Eigenvalues --     0.00000  60.46055  60.46055
           X            1.00000  -0.00000   0.00000
           Y            0.00000   1.00000   0.00000
           Z            0.00000   0.00000   1.00000
 This molecule is a prolate symmetric top.
 Rotational symmetry number  1.
 Rotational temperature (Kelvin)      1.43257
 Rotational constant (GHZ):          29.849899
    2 imaginary frequencies ignored.
 Zero-point vibrational energy      11877.6 (Joules/Mol)
                                    2.83882 (Kcal/Mol)
 Vibrational temperatures:   1428.55  1428.55
          (Kelvin)

 Zero-point correction=                           0.004524 (Hartree/Particle)
 Thermal correction to Energy=                    0.006960
 Thermal correction to Enthalpy=                  0.007904
 Thermal correction to Gibbs Free Energy=        -0.015488
 Sum of electronic and zero-point Energies=           -100.851672
 Sum of electronic and thermal Energies=              -100.849236
 Sum of electronic and thermal Enthalpies=            -100.848292
 Sum of electronic and thermal Free Energies=         -100.871684

                     E (Thermal)             CV                S
                      KCal/Mol        Cal/Mol-Kelvin    Cal/Mol-Kelvin
 Total                    4.368              5.738             49.233
 Electronic               0.000              0.000              1.377
 Translational            0.889              2.981             35.068
 Rotational               0.592              1.987             12.595
 Vibrational              2.886              0.770              0.193

 Normal termination of Gaussian 16 at Fri Aug 22 16:25:55 2025.
