 Gaussian 16, Revision C.01,
 Gaussian 16:  ES64L-G16RevC.01  3-Jul-2019

 -----------------------------------------
 # sp b3lyp/6-311g** Force nosymm scf=(qc)
 -----------------------------------------

 -------------------
 Title Card Required
 -------------------
 Symbolic Z-matrix:
 Charge =  0 Multiplicity = 2

                          Input orientation:
 ---------------------------------------------------------------------
 Center     Atomic      Atomic             Coordinates (Angstroms)
 Number     Number       Type             X           Y           Z
 ---------------------------------------------------------------------
      1          1           0        0.000000    0.000000    0.000000
      2          1           0       -2.300000    0.000000    0.000000
      3          9           0        2.750000    0.000000    0.000000
 ---------------------------------------------------------------------

 SCF Done:  E(UB3LYP) =  -100.769863116     a.u. after   22 cycles

 Alpha  occ. eigenvalues --  -24.73133  -1.19253  -0.52245  -0.43869  -0.43869
 Alpha  occ. eigenvalues --   -0.33681
 Alpha virt. eigenvalues --   -0.11667   0.25244   0.32885   0.90277   0.92850
 Alpha virt. eigenvalues --    0.92850   1.05533   1.24079   1.24079   1.25555
 Alpha virt. eigenvalues --    1.37760   1.37760   1.42187   2.13867   2.34673

  Beta  occ. eigenvalues --  -24.70177  -1.10803  -0.40915  -0.40915  -0.34441
  Beta virt. eigenvalues --   -0.24254  -0.10236   0.26003   0.33882   0.94283
  Beta virt. eigenvalues --    0.94283   0.98562   1.09254   1.23188   1.23188
  Beta virt. eigenvalues --    1.25255   1.40108   1.40108   1.43972   2.14741

 Mulliken charges and spin densities:
               1          2
     1  H    0.044362  -0.882669
     2  H    0.012614   0.946924
     3  F   -0.056976   0.935745
 Sum of Mulliken charges =  -0.00000   1.00000

 Dipole moment (field-independent basis, Debye):
    X=             -0.9406    Y=              0.0000    Z=              0.0000  Tot=              0.9406
 Quadrupole moment (field-independent basis, Debye-Ang):
   XX=             -8.1940   YY=             -7.6552   ZZ=             -7.6552
   XY=             -0.0000   XZ=             -0.0000   YZ=              0.0000

  Exact polarizability:      51.033       0.000       2.009       0.000      -0.000       2.009
 Approx polarizability:      49.065      -0.000       1.919      -0.000       0.000       1.919

 ******    2 imaginary frequencies (negative Signs) ******

                      1                      2                      3
                      A                      A                      A
 Frequencies --   -935.8968              -305.8948               360.6884
 Red. masses --      1.0099                 1.1060                 1.0159
 Frc consts  --      0.5212                 0.0610                 0.0779
 IR Inten    --     33.0291                32.9513                 1.3913

                      4
                      A
 Frequencies --    360.6884
 Red. masses --      1.0159
 Frc consts  --      0.0779
 IR Inten    --      1.3913

 - Thermochemistry -
 -------------------
 Temperature   298.150 Kelvin.  Pressure   1.00000 Atm.
 Atom     1 has atomic number  1 and mass   1.00783

 Molecular mass:    21.01405 amu.
 Principal axes and moments of inertia in atomic units:
                           1         2         3
     Eigenvalues --     0.00000 108.49981 108.49981
           X            1.00000  -0.00000   0.00000
           Y            0.00000   1.00000   0.00000
           Z            0.00000   0.00000   1.00000
 This molecule is a prolate symmetric top.
 Rotational symmetry number  1.
 Rotational temperature (Kelvin)      0.79829
 Rotational constant (GHZ):          16.633588
    2 imaginary frequencies ignored.
 Zero-point vibrational energy       4314.8 (Joules/Mol)
                                    1.03126 (Kcal/Mol)
 Warning -- explicit consideration of   2 degrees of freedom as
           vibrations may cause significant error
 Vibrational temperatures:    518.95   518.95
          (Kelvin)

 Zero-point correction=                           0.001643 (Hartree/Particle)
 Thermal correction to Energy=                    0.004703
 Thermal correction to Enthalpy=                  0.005647
 Thermal correction to Gibbs Free Energy=        -0.019269
 Sum of electronic and zero-point Energies=           -100.768220
 Sum of electronic and thermal Energies=              -100.765160
 Sum of electronic and thermal Enthalpies=            -100.764216
 Sum of electronic and thermal Free Energies=         -100.789132

                     E (Thermal)             CV                S
                      KCal/Mol        Cal/Mol-Kelvin    Cal/Mol-Kelvin
 Total                    2.951              8.075             52.441
 Electronic               0.000              0.000              1.377
 Translational            0.889              2.981             35.068
 Rotational               0.592              1.987             13.757
 Vibrational              1.470              3.106              2.238
 Vibration     1          0.735              1.553              1.119
 Vibration     2          0.735              1.553              1.119

 Normal termination of Gaussian 16 at Fri Aug 22 18:33:57 2025.
