 Gaussian 16, Revision C.01,
 Gaussian 16:  ES64L-G16RevC.01  3-Jul-2019

 -----------------------------------------
 # sp b3lyp/6-311g** Force nosymm scf=(qc)
 -----------------------------------------

 -------------------
 Title Card Required
 -------------------
 Symbolic Z-matrix:
 Charge =  0 Multiplicity = 2

                          Input orientation:
 ---------------------------------------------------------------------
 Center     Atomic      Atomic             Coordinates (Angstroms)
 Number     Number       Type             X           Y           Z
 ---------------------------------------------------------------------
      1          1           0        0.000000    0.000000    0.000000
      2          1           0       -0.900000    0.000000    0.000000
      3          9           0        1.950000    0.000000    0.000000
 ---------------------------------------------------------------------

 SCF Done:  E(UB3LYP) =  -100.924862198     a.u. after    7 cycles

 Alpha  occ. eigenvalues --  -24.73863  -1.20054  -0.53892  -0.44587  -0.44587
 Alpha  occ. eigenvalues --   -0.42303
 Alpha virt. eigenvalues --    0.03560   0.20786   0.40013   0.90920   0.90920
 Alpha virt. eigenvalues --    0.91689   1.06809   1.06809   1.12220   1.56945
 Alpha virt. eigenvalues --    1.70479   1.70479   2.16078   2.36183   2.75604

  Beta  occ. eigenvalues --  -24.70923  -1.11709  -0.42527  -0.41662  -0.41662
  Beta virt. eigenvalues --   -0.25302   0.04681   0.21457   0.40607   0.92224
  Beta virt. eigenvalues --    0.92224   0.99368   1.07778   1.07778   1.15331
  Beta virt. eigenvalues --    1.58969   1.71070   1.71070   2.17099   2.37180

 Mulliken charges and spin densities:
               1          2
     1  H    0.022837  -0.043588
     2  H    0.036909   0.123198
     3  F   -0.059746   0.920390
 Sum of Mulliken charges =   0.00000   1.00000

 Dipole moment (field-independent basis, Debye):
    X=             -0.7150    Y=              0.0000    Z=             -0.0000  Tot=              0.7150
 Quadrupole moment (field-independent basis, Debye-Ang):
   XX=             -6.3802   YY=             -7.0829   ZZ=             -7.0829
   XY=              0.0000   XZ=             -0.0000   YZ=              0.0000

  Exact polarizability:      25.388      -0.000       2.159       0.000      -0.000       2.159
 Approx polarizability:      31.078       0.000       2.198       0.000      -0.000       2.198

 ******    1 imaginary frequencies (negative Signs) ******

                      1                      2                      3
                      A                      A                      A
 Frequencies --   -357.6201              1336.5807              1336.5807
 Red. masses --      1.1080                 1.0113                 1.0113
 Frc consts  --      0.0835                 1.0644                 1.0644
 IR Inten    --     72.9136                 0.0385                 0.0385

                      4
                      A
 Frequencies --   2457.8384
 Red. masses --      1.0082
 Frc consts  --      3.5885
 IR Inten    --    476.1044

 - Thermochemistry -
 -------------------
 Temperature   298.150 Kelvin.  Pressure   1.00000 Atm.
 Atom     1 has atomic number  1 and mass   1.00783

 Molecular mass:    21.01405 amu.
 Principal axes and moments of inertia in atomic units:
                           1         2         3
     Eigenvalues --     0.00000  38.94131  38.94131
           X            1.00000  -0.00000   0.00000
           Y            0.00000   1.00000   0.00000
           Z            0.00000   0.00000   1.00000
 This molecule is a prolate symmetric top.
 Rotational symmetry number  1.
 Rotational temperature (Kelvin)      2.22422
 Rotational constant (GHZ):          46.345155
    1 imaginary frequencies ignored.
 Zero-point vibrational energy      30690.2 (Joules/Mol)
                                    7.33513 (Kcal/Mol)
 Vibrational temperatures:   1923.04  1923.04  3536.28
          (Kelvin)

 Zero-point correction=                           0.011689 (Hartree/Particle)
 Thermal correction to Energy=                    0.014069
 Thermal correction to Enthalpy=                  0.015013
 Thermal correction to Gibbs Free Energy=        -0.007894
 Sum of electronic and zero-point Energies=           -100.913173
 Sum of electronic and thermal Energies=              -100.910793
 Sum of electronic and thermal Enthalpies=            -100.909849
 Sum of electronic and thermal Free Energies=         -100.932757

                     E (Thermal)             CV                S
                      KCal/Mol        Cal/Mol-Kelvin    Cal/Mol-Kelvin
 Total                    8.828              5.232             48.213
 Electronic               0.000              0.000              1.377
 Translational            0.889              2.981             35.068
 Rotational               0.592              1.987             11.721
 Vibrational              7.347              0.264              0.047

 Normal termination of Gaussian 16 at Fri Aug 22 16:52:17 2025.
