 Gaussian 16, Revision C.01,
 Gaussian 16:  ES64L-G16RevC.01  3-Jul-2019

 -----------------------------------------
 # sp b3lyp/6-311g** Force nosymm scf=(qc)
 -----------------------------------------

 -------------------
 Title Card Required
 -------------------
 Symbolic Z-matrix:
 Charge =  0 Multiplicity = 2

                          Input orientation:
 ---------------------------------------------------------------------
 Center     Atomic      Atomic             Coordinates (Angstroms)
 Number     Number       Type             X           Y           Z
 ---------------------------------------------------------------------
      1          1           0        0.000000    0.000000    0.000000
      2          1           0       -1.950000    0.000000    0.000000
      3          9           0        2.750000    0.000000    0.000000
 ---------------------------------------------------------------------

 SCF Done:  E(UB3LYP) =  -100.780584279     a.u. after   21 cycles

 Alpha  occ. eigenvalues --  -24.73334  -1.19439  -0.52451  -0.44038  -0.44038
 Alpha  occ. eigenvalues --   -0.34291
 Alpha virt. eigenvalues --   -0.12245   0.25146   0.31674   0.90268   0.92725
 Alpha virt. eigenvalues --    0.92725   1.05266   1.15931   1.23645   1.23645
 Alpha virt. eigenvalues --    1.35868   1.35868   1.51737   2.11962   2.36718

  Beta  occ. eigenvalues --  -24.70367  -1.10955  -0.41073  -0.41073  -0.34421
  Beta virt. eigenvalues --   -0.24451  -0.11481   0.26261   0.31844   0.94161
  Beta virt. eigenvalues --    0.94161   0.98425   1.08688   1.16880   1.23490
  Beta virt. eigenvalues --    1.23490   1.37049   1.37049   1.52573   2.13067

 Mulliken charges and spin densities:
               1          2
     1  H    0.030290  -0.779884
     2  H    0.022853   0.840691
     3  F   -0.053143   0.939193
 Sum of Mulliken charges =  -0.00000   1.00000

 Dipole moment (field-independent basis, Debye):
    X=             -0.9608    Y=              0.0000    Z=             -0.0000  Tot=              0.9608
 Quadrupole moment (field-independent basis, Debye-Ang):
   XX=             -7.6661   YY=             -7.6974   ZZ=             -7.6974
   XY=             -0.0000   XZ=              0.0000   YZ=              0.0000

  Exact polarizability:      61.634      -0.000       2.005       0.000       0.000       2.005
 Approx polarizability:      62.585      -0.000       1.933       0.000      -0.000       1.933

 ******    2 imaginary frequencies (negative Signs) ******

                      1                      2                      3
                      A                      A                      A
 Frequencies --  -1466.5590              -308.5249               599.5932
 Red. masses --      1.0082                 1.1080                 1.0143
 Frc consts  --      1.2776                 0.0621                 0.2149
 IR Inten    --     68.0964                41.5340                 0.3749

                      4
                      A
 Frequencies --    599.5932
 Red. masses --      1.0143
 Frc consts  --      0.2149
 IR Inten    --      0.3749

 - Thermochemistry -
 -------------------
 Temperature   298.150 Kelvin.  Pressure   1.00000 Atm.
 Atom     1 has atomic number  1 and mass   1.00783

 Molecular mass:    21.01405 amu.
 Principal axes and moments of inertia in atomic units:
                           1         2         3
     Eigenvalues --     0.00000  97.13949  97.13949
           X            1.00000  -0.00000   0.00000
           Y            0.00000   1.00000   0.00000
           Z            0.00000   0.00000   1.00000
 This molecule is a prolate symmetric top.
 Rotational symmetry number  1.
 Rotational temperature (Kelvin)      0.89164
 Rotational constant (GHZ):          18.578863
    2 imaginary frequencies ignored.
 Zero-point vibrational energy       7172.7 (Joules/Mol)
                                    1.71432 (Kcal/Mol)
 Warning -- explicit consideration of   2 degrees of freedom as
           vibrations may cause significant error
 Vibrational temperatures:    862.68   862.68
          (Kelvin)

 Zero-point correction=                           0.002732 (Hartree/Particle)
 Thermal correction to Energy=                    0.005413
 Thermal correction to Enthalpy=                  0.006357
 Thermal correction to Gibbs Free Energy=        -0.017819
 Sum of electronic and zero-point Energies=           -100.777852
 Sum of electronic and thermal Energies=              -100.775172
 Sum of electronic and thermal Enthalpies=            -100.774227
 Sum of electronic and thermal Free Energies=         -100.798404

                     E (Thermal)             CV                S
                      KCal/Mol        Cal/Mol-Kelvin    Cal/Mol-Kelvin
 Total                    3.397              7.033             50.884
 Electronic               0.000              0.000              1.377
 Translational            0.889              2.981             35.068
 Rotational               0.592              1.987             13.537
 Vibrational              1.915              2.065              0.901
 Vibration     1          0.958              1.033              0.450
 Vibration     2          0.958              1.033              0.450

 Normal termination of Gaussian 16 at Fri Aug 22 18:33:33 2025.
