 Gaussian 16, Revision C.01,
 Gaussian 16:  ES64L-G16RevC.01  3-Jul-2019

 -----------------------------------------
 # sp b3lyp/6-311g** Force nosymm scf=(qc)
 -----------------------------------------

 -------------------
 Title Card Required
 -------------------
 Symbolic Z-matrix:
 Charge =  0 Multiplicity = 2

                          Input orientation:
 ---------------------------------------------------------------------
 Center     Atomic      Atomic             Coordinates (Angstroms)
 Number     Number       Type             X           Y           Z
 ---------------------------------------------------------------------
      1          1           0        0.000000    0.000000    0.000000
      2          1           0       -3.300000    0.000000    0.000000
      3          9           0        3.200000    0.000000    0.000000
 ---------------------------------------------------------------------

 SCF Done:  E(UB3LYP) =  -100.760230401     a.u. after   21 cycles

 Alpha  occ. eigenvalues --  -24.74726  -1.20738  -0.53847  -0.45211  -0.45211
 Alpha  occ. eigenvalues --   -0.32490
 Alpha virt. eigenvalues --   -0.07907   0.24365   0.36136   0.88678   0.91887
 Alpha virt. eigenvalues --    0.91887   1.02880   1.25024   1.25024   1.25335
 Alpha virt. eigenvalues --    1.44100   1.44100   1.44237   2.15196   2.40329

  Beta  occ. eigenvalues --  -24.71655  -1.11926  -0.42136  -0.42136  -0.33306
  Beta virt. eigenvalues --   -0.25134  -0.06891   0.24197   0.37547   0.93363
  Beta virt. eigenvalues --    0.93363   0.97593   1.06758   1.24076   1.24076
  Beta virt. eigenvalues --    1.24405   1.45410   1.45651   1.45651   2.15575

 Mulliken charges and spin densities:
               1          2
     1  H    0.023691  -0.969962
     2  H    0.000539   0.996566
     3  F   -0.024230   0.973396
 Sum of Mulliken charges =  -0.00000   1.00000

 Dipole moment (field-independent basis, Debye):
    X=             -0.4070    Y=             -0.0000    Z=              0.0000  Tot=              0.4070
 Quadrupole moment (field-independent basis, Debye-Ang):
   XX=             -7.8797   YY=             -7.6201   ZZ=             -7.6201
   XY=             -0.0000   XZ=              0.0000   YZ=              0.0000

  Exact polarizability:      30.747      -0.000       2.028       0.000       0.000       2.028
 Approx polarizability:      27.836      -0.000       1.929       0.000      -0.000       1.929

 ******    2 imaginary frequencies (negative Signs) ******

                      1                      2                      3
                      A                      A                      A
 Frequencies --   -333.9300              -136.0766               116.1034
 Red. masses --      1.0315                 1.0812                 1.0183
 Frc consts  --      0.0678                 0.0118                 0.0081
 IR Inten    --     24.5963                 2.2436                 0.5074

                      4
                      A
 Frequencies --    116.1034
 Red. masses --      1.0183
 Frc consts  --      0.0081
 IR Inten    --      0.5074

 - Thermochemistry -
 -------------------
 Temperature   298.150 Kelvin.  Pressure   1.00000 Atm.
 Atom     1 has atomic number  1 and mass   1.00783

 Molecular mass:    21.01405 amu.
 Principal axes and moments of inertia in atomic units:
                           1         2         3
     Eigenvalues --     0.00000 172.67137 172.67137
           X            1.00000  -0.00000   0.00000
           Y            0.00000   1.00000   0.00000
           Z            0.00000   0.00000   1.00000
 This molecule is a prolate symmetric top.
 Rotational symmetry number  1.
 Rotational temperature (Kelvin)      0.50161
 Rotational constant (GHZ):          10.451884
    2 imaginary frequencies ignored.
 Zero-point vibrational energy       1388.9 (Joules/Mol)
                                    0.33196 (Kcal/Mol)
 Warning -- explicit consideration of   2 degrees of freedom as
           vibrations may cause significant error
 Vibrational temperatures:    167.05   167.05
          (Kelvin)

 Zero-point correction=                           0.000529 (Hartree/Particle)
 Thermal correction to Energy=                    0.004298
 Thermal correction to Enthalpy=                  0.005242
 Thermal correction to Gibbs Free Energy=        -0.022056
 Sum of electronic and zero-point Energies=           -100.759701
 Sum of electronic and thermal Energies=              -100.755932
 Sum of electronic and thermal Enthalpies=            -100.754988
 Sum of electronic and thermal Free Energies=         -100.782287

                     E (Thermal)             CV                S
                      KCal/Mol        Cal/Mol-Kelvin    Cal/Mol-Kelvin
 Total                    2.697              8.840             57.454
 Electronic               0.000              0.000              1.377
 Translational            0.889              2.981             35.068
 Rotational               0.592              1.987             14.681
 Vibrational              1.216              3.872              6.328
 Vibration     1          0.608              1.936              3.164
 Vibration     2          0.608              1.936              3.164

 Normal termination of Gaussian 16 at Fri Aug 22 20:24:42 2025.
