 Gaussian 16, Revision C.01,
 Gaussian 16:  ES64L-G16RevC.01  3-Jul-2019

 -----------------------------------------
 # sp b3lyp/6-311g** Force nosymm scf=(qc)
 -----------------------------------------

 -------------------
 Title Card Required
 -------------------
 Symbolic Z-matrix:
 Charge =  0 Multiplicity = 2

                          Input orientation:
 ---------------------------------------------------------------------
 Center     Atomic      Atomic             Coordinates (Angstroms)
 Number     Number       Type             X           Y           Z
 ---------------------------------------------------------------------
      1          1           0        0.000000    0.000000    0.000000
      2          1           0       -2.200000    0.000000    0.000000
      3          9           0        0.500000    0.000000    0.000000
 ---------------------------------------------------------------------

 SCF Done:  E(UB3LYP) =  -100.268716717     a.u. after    6 cycles

 Alpha  occ. eigenvalues --  -24.63003  -1.42325  -0.63529  -0.44298  -0.44298
 Alpha  occ. eigenvalues --   -0.34593
 Alpha virt. eigenvalues --    0.10705   0.25060   0.59031   0.89393   0.90189
 Alpha virt. eigenvalues --    0.90189   1.19548   1.22960   1.22960   1.54822
 Alpha virt. eigenvalues --    1.58534   1.58534   2.00159   2.20312   3.76669

  Beta  occ. eigenvalues --  -24.62989  -1.42282  -0.63494  -0.44293  -0.44293
  Beta virt. eigenvalues --   -0.08612   0.12075   0.37207   0.59387   0.89526
  Beta virt. eigenvalues --    0.90165   0.90165   1.31437   1.44397   1.44397
  Beta virt. eigenvalues --    1.58502   1.58502   1.63781   2.04573   2.46413

 Mulliken charges and spin densities:
               1          2
     1  H    0.108451   0.007314
     2  H    0.007215   0.991190
     3  F   -0.115666   0.001496
 Sum of Mulliken charges =   0.00000   1.00000

 Dipole moment (field-independent basis, Debye):
    X=             -1.3534    Y=              0.0000    Z=             -0.0000  Tot=              1.3534
 Quadrupole moment (field-independent basis, Debye-Ang):
   XX=             -6.4627   YY=             -6.4220   ZZ=             -6.4220
   XY=              0.0000   XZ=             -0.0000   YZ=              0.0000

  Exact polarizability:       4.876       0.000       2.442      -0.000       0.000       2.442
 Approx polarizability:       4.733      -0.000       2.429       0.000      -0.000       2.429

 ******    2 imaginary frequencies (negative Signs) ******

                      1                      2                      3
                      A                      A                      A
 Frequencies --  -9512.0129             -9512.0129               279.9513
 Red. masses --      1.0403                 1.0403                 1.0533
 Frc consts  --     55.4548                55.4548                 0.0486
 IR Inten    --    252.8356               252.8356                 0.0352

                      4
                      A
 Frequencies --  19158.5601
 Red. masses --      1.0583
 Frc consts  --    228.8677
 IR Inten    --     86.2980

 - Thermochemistry -
 -------------------
 Temperature   298.150 Kelvin.  Pressure   1.00000 Atm.
 Atom     1 has atomic number  1 and mass   1.00783

 Molecular mass:    21.01405 amu.
 Principal axes and moments of inertia in atomic units:
                           1         2         3
     Eigenvalues --     0.00000  25.36903  25.36903
           X            1.00000  -0.00000   0.00000
           Y            0.00000   1.00000   0.00000
           Z            0.00000   0.00000   1.00000
 This molecule is a prolate symmetric top.
 Rotational symmetry number  1.
 Rotational temperature (Kelvin)      3.41416
 Rotational constant (GHZ):          71.139544
    2 imaginary frequencies ignored.
 Zero-point vibrational energy     116268.1 (Joules/Mol)
                                   27.78875 (Kcal/Mol)
 Warning -- explicit consideration of   1 degrees of freedom as
           vibrations may cause significant error
 Vibrational temperatures:    402.79 27564.89
          (Kelvin)

 Zero-point correction=                           0.044284 (Hartree/Particle)
 Thermal correction to Energy=                    0.047090
 Thermal correction to Enthalpy=                  0.048035
 Thermal correction to Gibbs Free Energy=         0.024825
 Sum of electronic and zero-point Energies=           -100.224433
 Sum of electronic and thermal Energies=              -100.221626
 Sum of electronic and thermal Enthalpies=            -100.220682
 Sum of electronic and thermal Free Energies=         -100.243892

                     E (Thermal)             CV                S
                      KCal/Mol        Cal/Mol-Kelvin    Cal/Mol-Kelvin
 Total                   29.550              6.679             48.849
 Electronic               0.000              0.000              1.377
 Translational            0.889              2.981             35.068
 Rotational               0.592              1.987             10.869
 Vibrational             28.069              1.711              1.534
 Vibration     1          0.680              1.711              1.534

 Normal termination of Gaussian 16 at Fri Aug 22 15:37:03 2025.
