 Gaussian 16, Revision C.01,
 Gaussian 16:  ES64L-G16RevC.01  3-Jul-2019

 -----------------------------------------
 # sp b3lyp/6-311g** Force nosymm scf=(qc)
 -----------------------------------------

 -------------------
 Title Card Required
 -------------------
 Symbolic Z-matrix:
 Charge =  0 Multiplicity = 2

                          Input orientation:
 ---------------------------------------------------------------------
 Center     Atomic      Atomic             Coordinates (Angstroms)
 Number     Number       Type             X           Y           Z
 ---------------------------------------------------------------------
      1          1           0        0.000000    0.000000    0.000000
      2          1           0       -2.500000    0.000000    0.000000
      3          9           0        2.900000    0.000000    0.000000
 ---------------------------------------------------------------------

 SCF Done:  E(UB3LYP) =  -100.765589997     a.u. after   23 cycles

 Alpha  occ. eigenvalues --  -24.73769  -1.19848  -0.52885  -0.44406  -0.44406
 Alpha  occ. eigenvalues --   -0.33191
 Alpha virt. eigenvalues --   -0.10700   0.25272   0.33496   0.89872   0.92469
 Alpha virt. eigenvalues --    0.92469   1.04575   1.24462   1.24462   1.26477
 Alpha virt. eigenvalues --    1.39591   1.39591   1.41546   2.15251   2.36192

  Beta  occ. eigenvalues --  -24.70766  -1.11248  -0.41401  -0.41401  -0.34041
  Beta virt. eigenvalues --   -0.24610  -0.09313   0.25585   0.34816   0.93922
  Beta virt. eigenvalues --    0.93922   0.98495   1.08428   1.23452   1.23452
  Beta virt. eigenvalues --    1.25457   1.41838   1.41838   1.43533   2.16130

 Mulliken charges and spin densities:
               1          2
     1  H    0.037076  -0.921978
     2  H    0.006524   0.970625
     3  F   -0.043600   0.951353
 Sum of Mulliken charges =  -0.00000   1.00000

 Dipole moment (field-independent basis, Debye):
    X=             -0.7262    Y=             -0.0000    Z=             -0.0000  Tot=              0.7262
 Quadrupole moment (field-independent basis, Debye-Ang):
   XX=             -8.1198   YY=             -7.6467   ZZ=             -7.6467
   XY=             -0.0000   XZ=             -0.0000   YZ=             -0.0000

  Exact polarizability:      44.570      -0.000       2.013      -0.000      -0.000       2.013
 Approx polarizability:      41.747      -0.000       1.921      -0.000      -0.000       1.921

 ******    2 imaginary frequencies (negative Signs) ******

                      1                      2                      3
                      A                      A                      A
 Frequencies --   -717.0961              -256.3078               270.6852
 Red. masses --      1.0110                 1.1047                 1.0162
 Frc consts  --      0.3063                 0.0428                 0.0439
 IR Inten    --     27.8264                21.6030                 1.0783

                      4
                      A
 Frequencies --    270.6853
 Red. masses --      1.0162
 Frc consts  --      0.0439
 IR Inten    --      1.0783

 - Thermochemistry -
 -------------------
 Temperature   298.150 Kelvin.  Pressure   1.00000 Atm.
 Atom     1 has atomic number  1 and mass   1.00783

 Molecular mass:    21.01405 amu.
 Principal axes and moments of inertia in atomic units:
                           1         2         3
     Eigenvalues --     0.00000 123.32386 123.32386
           X            1.00000  -0.00000   0.00000
           Y            0.00000   1.00000   0.00000
           Z            0.00000   0.00000   1.00000
 This molecule is a prolate symmetric top.
 Rotational symmetry number  1.
 Rotational temperature (Kelvin)      0.70233
 Rotational constant (GHZ):          14.634161
    2 imaginary frequencies ignored.
 Zero-point vibrational energy       3238.1 (Joules/Mol)
                                    0.77393 (Kcal/Mol)
 Warning -- explicit consideration of   2 degrees of freedom as
           vibrations may cause significant error
 Vibrational temperatures:    389.46   389.46
          (Kelvin)

 Zero-point correction=                           0.001233 (Hartree/Particle)
 Thermal correction to Energy=                    0.004510
 Thermal correction to Enthalpy=                  0.005454
 Thermal correction to Gibbs Free Energy=        -0.020032
 Sum of electronic and zero-point Energies=           -100.764357
 Sum of electronic and thermal Energies=              -100.761080
 Sum of electronic and thermal Enthalpies=            -100.760136
 Sum of electronic and thermal Free Energies=         -100.785622

                     E (Thermal)             CV                S
                      KCal/Mol        Cal/Mol-Kelvin    Cal/Mol-Kelvin
 Total                    2.830              8.422             53.641
 Electronic               0.000              0.000              1.377
 Translational            0.889              2.981             35.068
 Rotational               0.592              1.987             14.012
 Vibrational              1.349              3.454              3.184
 Vibration     1          0.674              1.727              1.592
 Vibration     2          0.674              1.727              1.592

 Normal termination of Gaussian 16 at Fri Aug 22 19:03:44 2025.
