 Gaussian 16, Revision C.01,
 Gaussian 16:  ES64L-G16RevC.01  3-Jul-2019

 -----------------------------------------
 # sp b3lyp/6-311g** Force nosymm scf=(qc)
 -----------------------------------------

 -------------------
 Title Card Required
 -------------------
 Symbolic Z-matrix:
 Charge =  0 Multiplicity = 2

                          Input orientation:
 ---------------------------------------------------------------------
 Center     Atomic      Atomic             Coordinates (Angstroms)
 Number     Number       Type             X           Y           Z
 ---------------------------------------------------------------------
      1          1           0        0.000000    0.000000    0.000000
      2          1           0       -3.650000    0.000000    0.000000
      3          9           0        0.750000    0.000000    0.000000
 ---------------------------------------------------------------------

 SCF Done:  E(UB3LYP) =  -100.921935007     a.u. after    6 cycles

 Alpha  occ. eigenvalues --  -24.63455  -1.25478  -0.57384  -0.41195  -0.41195
 Alpha  occ. eigenvalues --   -0.33372
 Alpha virt. eigenvalues --    0.05823   0.24608   0.49242   0.93920   0.93920
 Alpha virt. eigenvalues --    0.96510   1.23962   1.24137   1.24137   1.30190
 Alpha virt. eigenvalues --    1.41703   1.41703   2.00261   2.14441   2.67710

  Beta  occ. eigenvalues --  -24.63455  -1.25477  -0.57383  -0.41195  -0.41195
  Beta virt. eigenvalues --   -0.05181   0.06177   0.39344   0.49211   0.93920
  Beta virt. eigenvalues --    0.93920   0.96503   1.29885   1.41703   1.41703
  Beta virt. eigenvalues --    1.50803   1.50853   1.50853   2.00311   2.44694

 Mulliken charges and spin densities:
               1          2
     1  H    0.267795   0.000467
     2  H    0.000586   0.999302
     3  F   -0.268381   0.000230
 Sum of Mulliken charges =   0.00000   1.00000

 Dipole moment (field-independent basis, Debye):
    X=             -1.6638    Y=              0.0000    Z=              0.0000  Tot=              1.6638
 Quadrupole moment (field-independent basis, Debye-Ang):
   XX=             -7.4569   YY=             -6.7169   ZZ=             -6.7169
   XY=              0.0000   XZ=              0.0000   YZ=             -0.0000

  Exact polarizability:       4.204      -0.000       2.445       0.000      -0.000       2.445
 Approx polarizability:       4.661      -0.000       2.426      -0.000      -0.000       2.426

 ******    3 imaginary frequencies (negative Signs) ******

                      1                      2                      3
                      A                      A                      A
 Frequencies --  -2709.4217             -2709.4217               -37.8230
 Red. masses --      1.0416                 1.0416                 1.0532
 Frc consts  --      4.5052                 4.5052                 0.0009
 IR Inten    --    205.4742               205.4742                 0.0195

                      4
                      A
 Frequencies --   7586.7290
 Red. masses --      1.0583
 Frc consts  --     35.8900
 IR Inten    --    105.6425

 - Thermochemistry -
 -------------------
 Temperature   298.150 Kelvin.  Pressure   1.00000 Atm.
 Atom     1 has atomic number  1 and mass   1.00783

 Molecular mass:    21.01405 amu.
 Principal axes and moments of inertia in atomic units:
                           1         2         3
     Eigenvalues --     0.00000  67.12328  67.12328
           X            1.00000  -0.00000   0.00000
           Y            0.00000   1.00000   0.00000
           Z            0.00000   0.00000   1.00000
 This molecule is a prolate symmetric top.
 Rotational symmetry number  1.
 Rotational temperature (Kelvin)      1.29037
 Rotational constant (GHZ):          26.886964
    3 imaginary frequencies ignored.
 Zero-point vibrational energy      45378.7 (Joules/Mol)
                                   10.84577 (Kcal/Mol)
 Vibrational temperatures:  10915.61
          (Kelvin)

 Zero-point correction=                           0.017284 (Hartree/Particle)
 Thermal correction to Energy=                    0.019644
 Thermal correction to Enthalpy=                  0.020588
 Thermal correction to Gibbs Free Energy=        -0.002811
 Sum of electronic and zero-point Energies=           -100.904651
 Sum of electronic and thermal Energies=              -100.902291
 Sum of electronic and thermal Enthalpies=            -100.901347
 Sum of electronic and thermal Free Energies=         -100.924746

                     E (Thermal)             CV                S
                      KCal/Mol        Cal/Mol-Kelvin    Cal/Mol-Kelvin
 Total                   12.327              4.968             49.248
 Electronic               0.000              0.000              1.377
 Translational            0.889              2.981             35.068
 Rotational               0.592              1.987             12.803
 Vibrational             10.846              0.000              0.000

 Normal termination of Gaussian 16 at Fri Aug 22 15:49:48 2025.
