 Gaussian 16, Revision C.01,
 Gaussian 16:  ES64L-G16RevC.01  3-Jul-2019

 -----------------------------------------
 # sp b3lyp/6-311g** Force nosymm scf=(qc)
 -----------------------------------------

 -------------------
 Title Card Required
 -------------------
 Symbolic Z-matrix:
 Charge =  0 Multiplicity = 2

                          Input orientation:
 ---------------------------------------------------------------------
 Center     Atomic      Atomic             Coordinates (Angstroms)
 Number     Number       Type             X           Y           Z
 ---------------------------------------------------------------------
      1          1           0        0.000000    0.000000    0.000000
      2          1           0       -3.100000    0.000000    0.000000
      3          9           0        2.350000    0.000000    0.000000
 ---------------------------------------------------------------------

 SCF Done:  E(UB3LYP) =  -100.770479970     a.u. after   26 cycles

 Alpha  occ. eigenvalues --  -24.67848  -1.09113  -0.39023  -0.39023  -0.36211
 Alpha  occ. eigenvalues --   -0.32990
 Alpha virt. eigenvalues --   -0.22587   0.21571   0.27925   0.94098   0.95478
 Alpha virt. eigenvalues --    0.95478   1.08616   1.21697   1.21697   1.24255
 Alpha virt. eigenvalues --    1.24255   1.24653   1.35187   2.12802   2.14933

  Beta  occ. eigenvalues --  -24.70583  -1.16866  -0.49667  -0.41743  -0.41743
  Beta virt. eigenvalues --   -0.11839  -0.04483   0.33083   0.39911   0.89421
  Beta virt. eigenvalues --    0.94218   0.94218   1.06707   1.39068   1.39068
  Beta virt. eigenvalues --    1.46822   1.47930   1.47930   1.49024   2.35452

 Mulliken charges and spin densities:
               1          2
     1  H    0.115587   0.865786
     2  H    0.002975   0.997076
     3  F   -0.118563  -0.862862
 Sum of Mulliken charges =   0.00000   1.00000

 Dipole moment (field-independent basis, Debye):
    X=             -1.4518    Y=             -0.0000    Z=             -0.0000  Tot=              1.4518
 Quadrupole moment (field-independent basis, Debye-Ang):
   XX=             -9.6472   YY=             -7.5362   ZZ=             -7.5362
   XY=             -0.0000   XZ=             -0.0000   YZ=              0.0000

  Exact polarizability:      34.164      -0.000       2.031      -0.000       0.000       2.031
 Approx polarizability:      44.992      -0.000       1.924      -0.000      -0.000       1.924

 ******    1 imaginary frequencies (negative Signs) ******

                      1                      2                      3
                      A                      A                      A
 Frequencies --   -699.3662               136.2851               281.9787
 Red. masses --      1.0631                 1.0486                 1.0216
 Frc consts  --      0.3064                 0.0115                 0.0479
 IR Inten    --     73.7758                 1.0073                12.2825

                      4
                      A
 Frequencies --    281.9787
 Red. masses --      1.0216
 Frc consts  --      0.0479
 IR Inten    --     12.2825

 - Thermochemistry -
 -------------------
 Temperature   298.150 Kelvin.  Pressure   1.00000 Atm.
 Atom     1 has atomic number  1 and mass   1.00783

 Molecular mass:    21.01405 amu.
 Principal axes and moments of inertia in atomic units:
                           1         2         3
     Eigenvalues --     0.00000 116.27367 116.27367
           X            1.00000  -0.00000   0.00000
           Y            0.00000   1.00000   0.00000
           Z            0.00000   0.00000   1.00000
 This molecule is a prolate symmetric top.
 Rotational symmetry number  1.
 Rotational temperature (Kelvin)      0.74491
 Rotational constant (GHZ):          15.521495
    1 imaginary frequencies ignored.
 Zero-point vibrational energy       4188.4 (Joules/Mol)
                                    1.00105 (Kcal/Mol)
 Warning -- explicit consideration of   3 degrees of freedom as
           vibrations may cause significant error
 Vibrational temperatures:    196.08   405.70   405.70
          (Kelvin)

 Zero-point correction=                           0.001595 (Hartree/Particle)
 Thermal correction to Energy=                    0.005510
 Thermal correction to Enthalpy=                  0.006454
 Thermal correction to Gibbs Free Energy=        -0.020267
 Sum of electronic and zero-point Energies=           -100.768885
 Sum of electronic and thermal Energies=              -100.764970
 Sum of electronic and thermal Enthalpies=            -100.764026
 Sum of electronic and thermal Free Energies=         -100.790747

                     E (Thermal)             CV                S
                      KCal/Mol        Cal/Mol-Kelvin    Cal/Mol-Kelvin
 Total                    3.457             10.299             56.239
 Electronic               0.000              0.000              1.377
 Translational            0.889              2.981             35.068
 Rotational               0.592              1.987             13.895
 Vibrational              1.976              5.331              5.899
 Vibration     1          0.614              1.917              2.855
 Vibration     2          0.681              1.707              1.522
 Vibration     3          0.681              1.707              1.522

 Normal termination of Gaussian 16 at Fri Aug 22 17:27:23 2025.
