 Gaussian 16, Revision C.01,
 Gaussian 16:  ES64L-G16RevC.01  3-Jul-2019

 -----------------------------------------
 # sp b3lyp/6-311g** Force nosymm scf=(qc)
 -----------------------------------------

 -------------------
 Title Card Required
 -------------------
 Symbolic Z-matrix:
 Charge =  0 Multiplicity = 2

                          Input orientation:
 ---------------------------------------------------------------------
 Center     Atomic      Atomic             Coordinates (Angstroms)
 Number     Number       Type             X           Y           Z
 ---------------------------------------------------------------------
      1          1           0        0.000000    0.000000    0.000000
      2          1           0       -2.150000    0.000000    0.000000
      3          9           0        3.800000    0.000000    0.000000
 ---------------------------------------------------------------------

 SCF Done:  E(UB3LYP) =  -100.768957791     a.u. after   76 cycles

 Alpha  occ. eigenvalues --  -24.75848  -1.21779  -0.54973  -0.46160  -0.46160
 Alpha  occ. eigenvalues --   -0.32808
 Alpha virt. eigenvalues --   -0.10423   0.25993   0.33321   0.86823   0.91180
 Alpha virt. eigenvalues --    0.91180   1.01198   1.22317   1.25078   1.25078
 Alpha virt. eigenvalues --    1.39165   1.39165   1.46635   2.13841   2.35480

  Beta  occ. eigenvalues --  -24.72708  -1.12749  -0.43012  -0.43012  -0.32899
  Beta virt. eigenvalues --   -0.25746  -0.10239   0.25845   0.33618   0.92677
  Beta virt. eigenvalues --    0.92677   0.96150   1.05310   1.22254   1.24975
  Beta virt. eigenvalues --    1.24975   1.39421   1.39421   1.46829   2.14093

 Mulliken charges and spin densities:
               1          2
     1  H    0.001090  -0.907219
     2  H    0.002601   0.911525
     3  F   -0.003691   0.995693
 Sum of Mulliken charges =   0.00000   1.00000

 Dipole moment (field-independent basis, Debye):
    X=             -0.0983    Y=             -0.0000    Z=             -0.0000  Tot=              0.0983
 Quadrupole moment (field-independent basis, Debye-Ang):
   XX=             -6.5270   YY=             -7.7068   ZZ=             -7.7068
   XY=             -0.0000   XZ=             -0.0000   YZ=              0.0000

  Exact polarizability:      30.594      -0.000       2.012      -0.000      -0.000       2.012
 Approx polarizability:      25.728      -0.000       1.933      -0.000       0.000       1.933

 ******    2 imaginary frequencies (negative Signs) ******

                      1                      2                      3
                      A                      A                      A
 Frequencies --  -1096.7182               -92.1809               430.7258
 Red. masses --      1.0078                 1.1085                 1.0125
 Frc consts  --      0.7142                 0.0055                 0.1107
 IR Inten    --      1.8209                 1.7443                 0.0000

                      4
                      A
 Frequencies --    430.7258
 Red. masses --      1.0125
 Frc consts  --      0.1107
 IR Inten    --      0.0000

 - Thermochemistry -
 -------------------
 Temperature   298.150 Kelvin.  Pressure   1.00000 Atm.
 Atom     1 has atomic number  1 and mass   1.00783

 Molecular mass:    21.01405 amu.
 Principal axes and moments of inertia in atomic units:
                           1         2         3
     Eigenvalues --     0.00000 162.97514 162.97514
           X            1.00000  -0.00000   0.00000
           Y            0.00000   1.00000   0.00000
           Z            0.00000   0.00000   1.00000
 This molecule is a prolate symmetric top.
 Rotational symmetry number  1.
 Rotational temperature (Kelvin)      0.53145
 Rotational constant (GHZ):          11.073721
    2 imaginary frequencies ignored.
 Zero-point vibrational energy       5152.6 (Joules/Mol)
                                    1.23151 (Kcal/Mol)
 Warning -- explicit consideration of   2 degrees of freedom as
           vibrations may cause significant error
 Vibrational temperatures:    619.72   619.72
          (Kelvin)

 Zero-point correction=                           0.001963 (Hartree/Particle)
 Thermal correction to Energy=                    0.004884
 Thermal correction to Enthalpy=                  0.005828
 Thermal correction to Gibbs Free Energy=        -0.019222
 Sum of electronic and zero-point Energies=           -100.766995
 Sum of electronic and thermal Energies=              -100.764074
 Sum of electronic and thermal Enthalpies=            -100.763129
 Sum of electronic and thermal Free Energies=         -100.788180

                     E (Thermal)             CV                S
                      KCal/Mol        Cal/Mol-Kelvin    Cal/Mol-Kelvin
 Total                    3.065              7.775             52.724
 Electronic               0.000              0.000              1.377
 Translational            0.889              2.981             35.068
 Rotational               0.592              1.987             14.566
 Vibrational              1.584              2.807              1.713
 Vibration     1          0.792              1.403              0.856
 Vibration     2          0.792              1.403              0.856

 Normal termination of Gaussian 16 at Sat Aug 23 00:49:36 2025.
