 Gaussian 16, Revision C.01,
 Gaussian 16:  ES64L-G16RevC.01  3-Jul-2019

 -----------------------------------------
 # sp b3lyp/6-311g** Force nosymm scf=(qc)
 -----------------------------------------

 -------------------
 Title Card Required
 -------------------
 Symbolic Z-matrix:
 Charge =  0 Multiplicity = 2

                          Input orientation:
 ---------------------------------------------------------------------
 Center     Atomic      Atomic             Coordinates (Angstroms)
 Number     Number       Type             X           Y           Z
 ---------------------------------------------------------------------
      1          1           0        0.000000    0.000000    0.000000
      2          1           0       -3.700000    0.000000    0.000000
      3          9           0        1.200000    0.000000    0.000000
 ---------------------------------------------------------------------

 SCF Done:  E(UB3LYP) =  -100.925550745     a.u. after    6 cycles

 Alpha  occ. eigenvalues --  -24.64356  -1.12274  -0.47748  -0.37533  -0.37533
 Alpha  occ. eigenvalues --   -0.33677
 Alpha virt. eigenvalues --   -0.05761   0.22142   0.29316   0.93170   0.93170
 Alpha virt. eigenvalues --    1.00802   1.23781   1.23834   1.23834   1.26121
 Alpha virt. eigenvalues --    1.34614   1.34614   1.72651   2.13644   2.28459

  Beta  occ. eigenvalues --  -24.64353  -1.12267  -0.47741  -0.37531  -0.37531
  Beta virt. eigenvalues --   -0.07167  -0.04404   0.26734   0.38858   0.93170
  Beta virt. eigenvalues --    0.93170   1.00809   1.26112   1.34608   1.34608
  Beta virt. eigenvalues --    1.48095   1.48095   1.48543   1.72675   2.27898

 Mulliken charges and spin densities:
               1          2
     1  H    0.353322   0.000039
     2  H    0.000800   0.999127
     3  F   -0.354122   0.000835
 Sum of Mulliken charges =   0.00000   1.00000

 Dipole moment (field-independent basis, Debye):
    X=             -2.2892    Y=             -0.0000    Z=              0.0000  Tot=              2.2892
 Quadrupole moment (field-independent basis, Debye-Ang):
   XX=             -8.8951   YY=             -7.1277   ZZ=             -7.1277
   XY=             -0.0000   XZ=              0.0000   YZ=              0.0000

  Exact polarizability:       9.334      -0.000       2.323       0.000      -0.000       2.323
 Approx polarizability:      13.319      -0.000       2.277       0.000       0.000       2.277

 ******    1 imaginary frequencies (negative Signs) ******

                      1                      2                      3
                      A                      A                      A
 Frequencies --    -46.8195              1005.7095              1207.6457
 Red. masses --      1.0529                 1.0587                 1.0350
 Frc consts  --      0.0014                 0.6309                 0.8894
 IR Inten    --      0.0585                65.6776               147.4683

                      4
                      A
 Frequencies --   1207.6457
 Red. masses --      1.0350
 Frc consts  --      0.8894
 IR Inten    --    147.4683

 - Thermochemistry -
 -------------------
 Temperature   298.150 Kelvin.  Pressure   1.00000 Atm.
 Atom     1 has atomic number  1 and mass   1.00783

 Molecular mass:    21.01405 amu.
 Principal axes and moments of inertia in atomic units:
                           1         2         3
     Eigenvalues --     0.00000  85.17206  85.17206
           X            1.00000  -0.00000   0.00000
           Y            0.00000   1.00000   0.00000
           Z            0.00000   0.00000   1.00000
 This molecule is a prolate symmetric top.
 Rotational symmetry number  1.
 Rotational temperature (Kelvin)      1.01693
 Rotational constant (GHZ):          21.189356
    1 imaginary frequencies ignored.
 Zero-point vibrational energy      20462.1 (Joules/Mol)
                                    4.89057 (Kcal/Mol)
 Vibrational temperatures:   1446.99  1737.53  1737.53
          (Kelvin)

 Zero-point correction=                           0.007794 (Hartree/Particle)
 Thermal correction to Energy=                    0.010223
 Thermal correction to Enthalpy=                  0.011167
 Thermal correction to Gibbs Free Energy=        -0.012539
 Sum of electronic and zero-point Energies=           -100.917757
 Sum of electronic and thermal Energies=              -100.915328
 Sum of electronic and thermal Enthalpies=            -100.914384
 Sum of electronic and thermal Free Energies=         -100.938090

                     E (Thermal)             CV                S
                      KCal/Mol        Cal/Mol-Kelvin    Cal/Mol-Kelvin
 Total                    6.415              5.739             49.893
 Electronic               0.000              0.000              1.377
 Translational            0.889              2.981             35.068
 Rotational               0.592              1.987             13.276
 Vibrational              4.934              0.771              0.172

 Normal termination of Gaussian 16 at Fri Aug 22 16:11:16 2025.
