 Gaussian 16, Revision C.01,
 Gaussian 16:  ES64L-G16RevC.01  3-Jul-2019

 -----------------------------------------
 # sp b3lyp/6-311g** Force nosymm scf=(qc)
 -----------------------------------------

 -------------------
 Title Card Required
 -------------------
 Symbolic Z-matrix:
 Charge =  0 Multiplicity = 2

                          Input orientation:
 ---------------------------------------------------------------------
 Center     Atomic      Atomic             Coordinates (Angstroms)
 Number     Number       Type             X           Y           Z
 ---------------------------------------------------------------------
      1          1           0        0.000000    0.000000    0.000000
      2          1           0       -1.300000    0.000000    0.000000
      3          9           0        0.650000    0.000000    0.000000
 ---------------------------------------------------------------------

 SCF Done:  E(UB3LYP) =  -100.786434945     a.u. after    7 cycles

 Alpha  occ. eigenvalues --  -24.63408  -1.32247  -0.61577  -0.42864  -0.42864
 Alpha  occ. eigenvalues --   -0.35615
 Alpha virt. eigenvalues --    0.14909   0.20870   0.61391   0.91556   0.91556
 Alpha virt. eigenvalues --    0.92964   1.13860   1.13860   1.44846   1.56562
 Alpha virt. eigenvalues --    1.56562   1.68037   1.95752   2.27272   3.54825

  Beta  occ. eigenvalues --  -24.63217  -1.31670  -0.60487  -0.42718  -0.42718
  Beta virt. eigenvalues --   -0.12593   0.15917   0.28367   0.66630   0.92021
  Beta virt. eigenvalues --    0.92021   0.93384   1.25153   1.25153   1.46547
  Beta virt. eigenvalues --    1.61777   1.61777   1.79650   1.96398   2.48417

 Mulliken charges and spin densities:
               1          2
     1  H    0.244775   0.011991
     2  H    0.005239   0.963438
     3  F   -0.250014   0.024571
 Sum of Mulliken charges =   0.00000   1.00000

 Dipole moment (field-independent basis, Debye):
    X=             -1.4464    Y=             -0.0000    Z=             -0.0000  Tot=              1.4464
 Quadrupole moment (field-independent basis, Debye-Ang):
   XX=             -7.0845   YY=             -6.4960   ZZ=             -6.4960
   XY=             -0.0000   XZ=             -0.0000   YZ=              0.0000

  Exact polarizability:       7.021      -0.000       2.543       0.000      -0.000       2.543
 Approx polarizability:       6.774      -0.000       2.570       0.000      -0.000       2.570

 ******    2 imaginary frequencies (negative Signs) ******

                      1                      2                      3
                      A                      A                      A
 Frequencies --  -4475.0743             -4475.0743              1227.8367
 Red. masses --      1.0281                 1.0281                 1.0538
 Frc consts  --     12.1302                12.1302                 0.9360
 IR Inten    --    150.4416               150.4416                18.2401

                      4
                      A
 Frequencies --  10855.7717
 Red. masses --      1.0578
 Frc consts  --     73.4464
 IR Inten    --    111.1551

 - Thermochemistry -
 -------------------
 Temperature   298.150 Kelvin.  Pressure   1.00000 Atm.
 Atom     1 has atomic number  1 and mass   1.00783

 Molecular mass:    21.01405 amu.
 Principal axes and moments of inertia in atomic units:
                           1         2         3
     Eigenvalues --     0.00000  14.03899  14.03899
           X            1.00000  -0.00000   0.00000
           Y            0.00000   1.00000   0.00000
           Z            0.00000   0.00000   1.00000
 This molecule is a prolate symmetric top.
 Rotational symmetry number  1.
 Rotational temperature (Kelvin)      6.16953
 Rotational constant (GHZ):         128.552084
    2 imaginary frequencies ignored.
 Zero-point vibrational energy      72276.0 (Joules/Mol)
                                   17.27439 (Kcal/Mol)
 Vibrational temperatures:   1766.58 15619.03
          (Kelvin)

 Zero-point correction=                           0.027528 (Hartree/Particle)
 Thermal correction to Energy=                    0.029904
 Thermal correction to Enthalpy=                  0.030848
 Thermal correction to Gibbs Free Energy=         0.008908
 Sum of electronic and zero-point Energies=           -100.758906
 Sum of electronic and thermal Energies=              -100.756531
 Sum of electronic and thermal Enthalpies=            -100.755587
 Sum of electronic and thermal Free Energies=         -100.777526

                     E (Thermal)             CV                S
                      KCal/Mol        Cal/Mol-Kelvin    Cal/Mol-Kelvin
 Total                   18.765              5.155             46.176
 Electronic               0.000              0.000              1.377
 Translational            0.889              2.981             35.068
 Rotational               0.592              1.987              9.694
 Vibrational             17.284              0.187              0.037

 Normal termination of Gaussian 16 at Fri Aug 22 15:43:35 2025.
