 Gaussian 16, Revision C.01,
 Gaussian 16:  ES64L-G16RevC.01  3-Jul-2019

 -----------------------------------------
 # sp b3lyp/6-311g** Force nosymm scf=(qc)
 -----------------------------------------

 -------------------
 Title Card Required
 -------------------
 Symbolic Z-matrix:
 Charge =  0 Multiplicity = 2

                          Input orientation:
 ---------------------------------------------------------------------
 Center     Atomic      Atomic             Coordinates (Angstroms)
 Number     Number       Type             X           Y           Z
 ---------------------------------------------------------------------
      1          1           0        0.000000    0.000000    0.000000
      2          1           0       -0.750000    0.000000    0.000000
      3          9           0        1.600000    0.000000    0.000000
 ---------------------------------------------------------------------

 SCF Done:  E(UB3LYP) =  -100.937015268     a.u. after    7 cycles

 Alpha  occ. eigenvalues --  -24.72122  -1.18859  -0.55395  -0.43633  -0.43384
 Alpha  occ. eigenvalues --   -0.43384
 Alpha virt. eigenvalues --    0.08509   0.20021   0.43002   0.89199   0.89199
 Alpha virt. eigenvalues --    0.96883   1.07994   1.07994   1.24157   1.69561
 Alpha virt. eigenvalues --    1.80970   1.80970   1.97017   2.42467   3.12013

  Beta  occ. eigenvalues --  -24.69363  -1.11194  -0.46892  -0.40680  -0.40680
  Beta virt. eigenvalues --   -0.24038   0.09734   0.20885   0.44744   0.90380
  Beta virt. eigenvalues --    0.90380   1.03516   1.09837   1.09837   1.27707
  Beta virt. eigenvalues --    1.72197   1.81996   1.81996   1.98013   2.44508

 Mulliken charges and spin densities:
               1          2
     1  H    0.094231  -0.044010
     2  H    0.024015   0.199440
     3  F   -0.118246   0.844570
 Sum of Mulliken charges =   0.00000   1.00000

 Dipole moment (field-independent basis, Debye):
    X=             -0.9953    Y=              0.0000    Z=             -0.0000  Tot=              0.9953
 Quadrupole moment (field-independent basis, Debye-Ang):
   XX=             -6.7073   YY=             -6.8209   ZZ=             -6.8209
   XY=              0.0000   XZ=             -0.0000   YZ=              0.0000

  Exact polarizability:      20.313       0.000       2.253      -0.000      -0.000       2.253
 Approx polarizability:      25.407       0.000       2.295      -0.000      -0.000       2.295

 ******    3 imaginary frequencies (negative Signs) ******

                      1                      2                      3
                      A                      A                      A
 Frequencies --   -757.8860              -757.8860              -339.3779
 Red. masses --      1.0113                 1.0113                 1.1082
 Frc consts  --      0.3423                 0.3423                 0.0752
 IR Inten    --      0.1907                 0.1907                88.0132

                      4
                      A
 Frequencies --   4078.8348
 Red. masses --      1.0081
 Frc consts  --      9.8814
 IR Inten    --    636.9157

 - Thermochemistry -
 -------------------
 Temperature   298.150 Kelvin.  Pressure   1.00000 Atm.
 Atom     1 has atomic number  1 and mass   1.00783

 Molecular mass:    21.01405 amu.
 Principal axes and moments of inertia in atomic units:
                           1         2         3
     Eigenvalues --     0.00000  26.39589  26.39589
           X            1.00000  -0.00000   0.00000
           Y            0.00000   1.00000   0.00000
           Z            0.00000   0.00000   1.00000
 This molecule is a prolate symmetric top.
 Rotational symmetry number  1.
 Rotational temperature (Kelvin)      3.28134
 Rotational constant (GHZ):          68.372061
    3 imaginary frequencies ignored.
 Zero-point vibrational energy      24396.8 (Joules/Mol)
                                    5.83099 (Kcal/Mol)
 Vibrational temperatures:   5868.53
          (Kelvin)

 Zero-point correction=                           0.009292 (Hartree/Particle)
 Thermal correction to Energy=                    0.011653
 Thermal correction to Enthalpy=                  0.012597
 Thermal correction to Gibbs Free Energy=        -0.009921
 Sum of electronic and zero-point Energies=           -100.927723
 Sum of electronic and thermal Energies=              -100.925363
 Sum of electronic and thermal Enthalpies=            -100.924418
 Sum of electronic and thermal Free Energies=         -100.946937

                     E (Thermal)             CV                S
                      KCal/Mol        Cal/Mol-Kelvin    Cal/Mol-Kelvin
 Total                    7.312              4.968             47.394
 Electronic               0.000              0.000              1.377
 Translational            0.889              2.981             35.068
 Rotational               0.592              1.987             10.948
 Vibrational              5.831              0.000              0.000

 Normal termination of Gaussian 16 at Fri Aug 22 16:30:02 2025.
