 Gaussian 16, Revision C.01,
 Gaussian 16:  ES64L-G16RevC.01  3-Jul-2019

 -----------------------------------------
 # sp b3lyp/6-311g** Force nosymm scf=(qc)
 -----------------------------------------

 -------------------
 Title Card Required
 -------------------
 Symbolic Z-matrix:
 Charge =  0 Multiplicity = 2

                          Input orientation:
 ---------------------------------------------------------------------
 Center     Atomic      Atomic             Coordinates (Angstroms)
 Number     Number       Type             X           Y           Z
 ---------------------------------------------------------------------
      1          1           0        0.000000    0.000000    0.000000
      2          1           0       -3.200000    0.000000    0.000000
      3          9           0        1.450000    0.000000    0.000000
 ---------------------------------------------------------------------

 SCF Done:  E(UB3LYP) =  -100.865950110     a.u. after    8 cycles

 Alpha  occ. eigenvalues --  -24.64321  -1.09937  -0.43867  -0.36525  -0.36525
 Alpha  occ. eigenvalues --   -0.34318
 Alpha virt. eigenvalues --   -0.13121   0.20946   0.27821   0.93319   0.93319
 Alpha virt. eigenvalues --    1.03522   1.12445   1.23199   1.23199   1.23441
 Alpha virt. eigenvalues --    1.31990   1.31990   1.72709   2.13749   2.19904

  Beta  occ. eigenvalues --  -24.64286  -1.09844  -0.43772  -0.36492  -0.36492
  Beta virt. eigenvalues --   -0.13739  -0.06868   0.24011   0.37816   0.93306
  Beta virt. eigenvalues --    0.93306   1.03618   1.12521   1.31844   1.31844
  Beta virt. eigenvalues --    1.45185   1.45639   1.45639   1.72715   2.19673

 Mulliken charges and spin densities:
               1          2
     1  H    0.351354  -0.007306
     2  H    0.003647   0.996063
     3  F   -0.355001   0.011243
 Sum of Mulliken charges =   0.00000   1.00000

 Dipole moment (field-independent basis, Debye):
    X=             -2.5973    Y=              0.0000    Z=             -0.0000  Tot=              2.5973
 Quadrupole moment (field-independent basis, Debye-Ang):
   XX=             -9.6180   YY=             -7.2946   ZZ=             -7.2946
   XY=              0.0000   XZ=             -0.0000   YZ=              0.0000

  Exact polarizability:      15.428       0.000       2.212      -0.000       0.000       2.212
 Approx polarizability:      26.525       0.000       2.142      -0.000      -0.000       2.142

 ******    2 imaginary frequencies (negative Signs) ******

                      1                      2                      3
                      A                      A                      A
 Frequencies --  -1111.6633              -109.3723              1048.7145
 Red. masses --      1.0565                 1.0550                 1.0296
 Frc consts  --      0.7693                 0.0074                 0.6672
 IR Inten    --     58.5355                 0.4859               118.8003

                      4
                      A
 Frequencies --   1048.7145
 Red. masses --      1.0296
 Frc consts  --      0.6672
 IR Inten    --    118.8003

 - Thermochemistry -
 -------------------
 Temperature   298.150 Kelvin.  Pressure   1.00000 Atm.
 Atom     1 has atomic number  1 and mass   1.00783

 Molecular mass:    21.01405 amu.
 Principal axes and moments of inertia in atomic units:
                           1         2         3
     Eigenvalues --     0.00000  78.96377  78.96377
           X            1.00000  -0.00000   0.00000
           Y            0.00000   1.00000   0.00000
           Z            0.00000   0.00000   1.00000
 This molecule is a prolate symmetric top.
 Rotational symmetry number  1.
 Rotational temperature (Kelvin)      1.09688
 Rotational constant (GHZ):          22.855306
    2 imaginary frequencies ignored.
 Zero-point vibrational energy      12545.4 (Joules/Mol)
                                    2.99843 (Kcal/Mol)
 Vibrational temperatures:   1508.87  1508.87
          (Kelvin)

 Zero-point correction=                           0.004778 (Hartree/Particle)
 Thermal correction to Energy=                    0.007200
 Thermal correction to Enthalpy=                  0.008144
 Thermal correction to Gibbs Free Energy=        -0.015482
 Sum of electronic and zero-point Energies=           -100.861172
 Sum of electronic and thermal Energies=              -100.858750
 Sum of electronic and thermal Enthalpies=            -100.857806
 Sum of electronic and thermal Free Energies=         -100.881432

                     E (Thermal)             CV                S
                      KCal/Mol        Cal/Mol-Kelvin    Cal/Mol-Kelvin
 Total                    4.518              5.622             49.725
 Electronic               0.000              0.000              1.377
 Translational            0.889              2.981             35.068
 Rotational               0.592              1.987             13.126
 Vibrational              3.037              0.654              0.154

 Normal termination of Gaussian 16 at Fri Aug 22 16:23:40 2025.
