 Gaussian 16, Revision C.01,
 Gaussian 16:  ES64L-G16RevC.01  3-Jul-2019

 -----------------------------------------
 # sp b3lyp/6-311g** Force nosymm scf=(qc)
 -----------------------------------------

 -------------------
 Title Card Required
 -------------------
 Symbolic Z-matrix:
 Charge =  0 Multiplicity = 2

                          Input orientation:
 ---------------------------------------------------------------------
 Center     Atomic      Atomic             Coordinates (Angstroms)
 Number     Number       Type             X           Y           Z
 ---------------------------------------------------------------------
      1          1           0        0.000000    0.000000    0.000000
      2          1           0       -0.550000    0.000000    0.000000
      3          9           0        1.350000    0.000000    0.000000
 ---------------------------------------------------------------------

 SCF Done:  E(UB3LYP) =  -100.886041757     a.u. after    6 cycles

 Alpha  occ. eigenvalues --  -24.70939  -1.18906  -0.61191  -0.42955  -0.42955
 Alpha  occ. eigenvalues --   -0.42551
 Alpha virt. eigenvalues --    0.12391   0.19264   0.55413   0.87734   0.87734
 Alpha virt. eigenvalues --    0.95942   1.12532   1.12532   1.45766   1.62276
 Alpha virt. eigenvalues --    1.84860   1.93617   1.93617   2.45793   3.77412

  Beta  occ. eigenvalues --  -24.68274  -1.11761  -0.53397  -0.40404  -0.40404
  Beta virt. eigenvalues --   -0.21697   0.13369   0.19945   0.58274   0.89023
  Beta virt. eigenvalues --    0.89023   1.01847   1.14894   1.14894   1.49664
  Beta virt. eigenvalues --    1.65476   1.85896   1.95170   1.95170   2.49574

 Mulliken charges and spin densities:
               1          2
     1  H    0.177957  -0.019612
     2  H   -0.024174   0.240451
     3  F   -0.153783   0.779161
 Sum of Mulliken charges =   0.00000   1.00000

 Dipole moment (field-independent basis, Debye):
    X=             -1.0129    Y=             -0.0000    Z=              0.0000  Tot=              1.0129
 Quadrupole moment (field-independent basis, Debye-Ang):
   XX=             -6.7962   YY=             -6.4978   ZZ=             -6.4978
   XY=             -0.0000   XZ=              0.0000   YZ=              0.0000

  Exact polarizability:      13.907      -0.000       2.301      -0.000      -0.000       2.301
 Approx polarizability:      16.632      -0.000       2.360       0.000      -0.000       2.360

 ******    2 imaginary frequencies (negative Signs) ******

                      1                      2                      3
                      A                      A                      A
 Frequencies --  -3880.1580             -3880.1580               846.0680
 Red. masses --      1.0106                 1.0106                 1.1085
 Frc consts  --      8.9649                 8.9649                 0.4675
 IR Inten    --      0.7083                 0.7083                49.2872

                      4
                      A
 Frequencies --   8126.3133
 Red. masses --      1.0079
 Frc consts  --     39.2133
 IR Inten    --    465.1878

 - Thermochemistry -
 -------------------
 Temperature   298.150 Kelvin.  Pressure   1.00000 Atm.
 Atom     1 has atomic number  1 and mass   1.00783

 Molecular mass:    21.01405 amu.
 Principal axes and moments of inertia in atomic units:
                           1         2         3
     Eigenvalues --     0.00000  17.72845  17.72845
           X            1.00000  -0.00000   0.00000
           Y            0.00000   1.00000   0.00000
           Z            0.00000   0.00000   1.00000
 This molecule is a prolate symmetric top.
 Rotational symmetry number  1.
 Rotational temperature (Kelvin)      4.88559
 Rotational constant (GHZ):         101.799134
    2 imaginary frequencies ignored.
 Zero-point vibrational energy      53666.8 (Joules/Mol)
                                   12.82666 (Kcal/Mol)
 Vibrational temperatures:   1217.30 11691.95
          (Kelvin)

 Zero-point correction=                           0.020441 (Hartree/Particle)
 Thermal correction to Energy=                    0.022867
 Thermal correction to Enthalpy=                  0.023811
 Thermal correction to Gibbs Free Energy=         0.001587
 Sum of electronic and zero-point Energies=           -100.865601
 Sum of electronic and thermal Energies=              -100.863175
 Sum of electronic and thermal Enthalpies=            -100.862230
 Sum of electronic and thermal Free Energies=         -100.884455

                     E (Thermal)             CV                S
                      KCal/Mol        Cal/Mol-Kelvin    Cal/Mol-Kelvin
 Total                   14.349              5.546             46.776
 Electronic               0.000              0.000              1.377
 Translational            0.889              2.981             35.068
 Rotational               0.592              1.987             10.157
 Vibrational             12.868              0.578              0.173

 Normal termination of Gaussian 16 at Fri Aug 22 16:16:28 2025.
