 Gaussian 16, Revision C.01,
 Gaussian 16:  ES64L-G16RevC.01  3-Jul-2019

 -----------------------------------------
 # sp b3lyp/6-311g** Force nosymm scf=(qc)
 -----------------------------------------

 -------------------
 Title Card Required
 -------------------
 Symbolic Z-matrix:
 Charge =  0 Multiplicity = 2

                          Input orientation:
 ---------------------------------------------------------------------
 Center     Atomic      Atomic             Coordinates (Angstroms)
 Number     Number       Type             X           Y           Z
 ---------------------------------------------------------------------
      1          1           0        0.000000    0.000000    0.000000
      2          1           0       -3.650000    0.000000    0.000000
      3          9           0        0.500000    0.000000    0.000000
 ---------------------------------------------------------------------

 SCF Done:  E(UB3LYP) =  -100.268965796     a.u. after    6 cycles

 Alpha  occ. eigenvalues --  -24.63031  -1.42355  -0.63507  -0.44336  -0.44336
 Alpha  occ. eigenvalues --   -0.33168
 Alpha virt. eigenvalues --    0.08029   0.24913   0.62071   0.88992   0.90149
 Alpha virt. eigenvalues --    0.90149   1.24182   1.24338   1.24338   1.36604
 Alpha virt. eigenvalues --    1.58514   1.58514   2.00232   2.14764   3.76631

  Beta  occ. eigenvalues --  -24.63031  -1.42354  -0.63507  -0.44336  -0.44336
  Beta virt. eigenvalues --   -0.05241   0.08357   0.38979   0.62068   0.88988
  Beta virt. eigenvalues --    0.90148   0.90148   1.36092   1.48783   1.49392
  Beta virt. eigenvalues --    1.49392   1.58515   1.58515   2.00192   2.45804

 Mulliken charges and spin densities:
               1          2
     1  H    0.126496   0.000351
     2  H    0.000552   0.999381
     3  F   -0.127048   0.000268
 Sum of Mulliken charges =   0.00000   1.00000

 Dipole moment (field-independent basis, Debye):
    X=             -1.2984    Y=             -0.0000    Z=             -0.0000  Tot=              1.2984
 Quadrupole moment (field-independent basis, Debye-Ang):
   XX=             -6.6616   YY=             -6.4388   ZZ=             -6.4388
   XY=             -0.0000   XZ=              0.0000   YZ=              0.0000

  Exact polarizability:       2.936      -0.000       2.412       0.000       0.000       2.412
 Approx polarizability:       3.104      -0.000       2.388      -0.000       0.000       2.388

 ******    3 imaginary frequencies (negative Signs) ******

                      1                      2                      3
                      A                      A                      A
 Frequencies --  -9602.9149             -9602.9149               -27.7774
 Red. masses --      1.0463                 1.0463                 1.0532
 Frc consts  --     56.8501                56.8501                 0.0005
 IR Inten    --    284.7189               284.7189                 0.0152

                      4
                      A
 Frequencies --  19159.3988
 Red. masses --      1.0583
 Frc consts  --    228.8901
 IR Inten    --     76.4438

 - Thermochemistry -
 -------------------
 Temperature   298.150 Kelvin.  Pressure   1.00000 Atm.
 Atom     1 has atomic number  1 and mass   1.00783

 Molecular mass:    21.01405 amu.
 Principal axes and moments of inertia in atomic units:
                           1         2         3
     Eigenvalues --     0.00000  59.15148  59.15148
           X            1.00000  -0.00000   0.00000
           Y            0.00000   1.00000   0.00000
           Z            0.00000   0.00000   1.00000
 This molecule is a prolate symmetric top.
 Rotational symmetry number  1.
 Rotational temperature (Kelvin)      1.46427
 Rotational constant (GHZ):          30.510498
    3 imaginary frequencies ignored.
 Zero-point vibrational energy     114598.7 (Joules/Mol)
                                   27.38974 (Kcal/Mol)
 Vibrational temperatures:  27566.10
          (Kelvin)

 Zero-point correction=                           0.043648 (Hartree/Particle)
 Thermal correction to Energy=                    0.046009
 Thermal correction to Enthalpy=                  0.046953
 Thermal correction to Gibbs Free Energy=         0.023673
 Sum of electronic and zero-point Energies=           -100.225317
 Sum of electronic and thermal Energies=              -100.222957
 Sum of electronic and thermal Enthalpies=            -100.222013
 Sum of electronic and thermal Free Energies=         -100.245293

                     E (Thermal)             CV                S
                      KCal/Mol        Cal/Mol-Kelvin    Cal/Mol-Kelvin
 Total                   28.871              4.968             48.997
 Electronic               0.000              0.000              1.377
 Translational            0.889              2.981             35.068
 Rotational               0.592              1.987             12.552
 Vibrational             27.390              0.000              0.000

 Normal termination of Gaussian 16 at Fri Aug 22 15:38:01 2025.
