 Gaussian 16, Revision C.01,
 Gaussian 16:  ES64L-G16RevC.01  3-Jul-2019

 -----------------------------------------
 # sp b3lyp/6-311g** Force nosymm scf=(qc)
 -----------------------------------------

 -------------------
 Title Card Required
 -------------------
 Symbolic Z-matrix:
 Charge =  0 Multiplicity = 2

                          Input orientation:
 ---------------------------------------------------------------------
 Center     Atomic      Atomic             Coordinates (Angstroms)
 Number     Number       Type             X           Y           Z
 ---------------------------------------------------------------------
      1          1           0        0.000000    0.000000    0.000000
      2          1           0       -2.550000    0.000000    0.000000
      3          9           0        3.450000    0.000000    0.000000
 ---------------------------------------------------------------------

 SCF Done:  E(UB3LYP) =  -100.762564219     a.u. after   30 cycles

 Alpha  occ. eigenvalues --  -24.75357  -1.21322  -0.54479  -0.45742  -0.45742
 Alpha  occ. eigenvalues --   -0.32671
 Alpha virt. eigenvalues --   -0.09440   0.25602   0.34380   0.87774   0.91496
 Alpha virt. eigenvalues --    0.91496   1.01921   1.24961   1.24961   1.26565
 Alpha virt. eigenvalues --    1.41516   1.41516   1.42815   2.15833   2.37156

  Beta  occ. eigenvalues --  -24.72247  -1.12385  -0.42625  -0.42625  -0.33020
  Beta virt. eigenvalues --   -0.25481  -0.08891   0.25413   0.35179   0.92984
  Beta virt. eigenvalues --    0.92984   0.96910   1.05946   1.24544   1.24544
  Beta virt. eigenvalues --    1.26062   1.42374   1.42374   1.43675   2.16388

 Mulliken charges and spin densities:
               1          2
     1  H    0.010055  -0.960305
     2  H    0.002248   0.974060
     3  F   -0.012303   0.986245
 Sum of Mulliken charges =  -0.00000   1.00000

 Dipole moment (field-independent basis, Debye):
    X=             -0.2453    Y=             -0.0000    Z=              0.0000  Tot=              0.2453
 Quadrupole moment (field-independent basis, Debye-Ang):
   XX=             -7.2053   YY=             -7.6602   ZZ=             -7.6602
   XY=              0.0000   XZ=             -0.0000   YZ=             -0.0000

  Exact polarizability:      33.679       0.000       2.023      -0.000       0.000       2.023
 Approx polarizability:      25.709       0.000       1.928      -0.000       0.000       1.928

 ******    2 imaginary frequencies (negative Signs) ******

                      1                      2                      3
                      A                      A                      A
 Frequencies --   -627.6167              -145.9801               229.0214
 Red. masses --      1.0082                 1.1081                 1.0147
 Frc consts  --      0.2340                 0.0139                 0.0314
 IR Inten    --      7.2272                 7.0331                 0.0716

                      4
                      A
 Frequencies --    229.0214
 Red. masses --      1.0147
 Frc consts  --      0.0314
 IR Inten    --      0.0716

 - Thermochemistry -
 -------------------
 Temperature   298.150 Kelvin.  Pressure   1.00000 Atm.
 Atom     1 has atomic number  1 and mass   1.00783

 Molecular mass:    21.01405 amu.
 Principal axes and moments of inertia in atomic units:
                           1         2         3
     Eigenvalues --     0.00000 156.98728 156.98728
           X            1.00000  -0.00000   0.00000
           Y            0.00000   1.00000   0.00000
           Z            0.00000   0.00000   1.00000
 This molecule is a prolate symmetric top.
 Rotational symmetry number  1.
 Rotational temperature (Kelvin)      0.55173
 Rotational constant (GHZ):          11.496098
    2 imaginary frequencies ignored.
 Zero-point vibrational energy       2739.7 (Joules/Mol)
                                    0.65481 (Kcal/Mol)
 Warning -- explicit consideration of   2 degrees of freedom as
           vibrations may cause significant error
 Vibrational temperatures:    329.51   329.51
          (Kelvin)

 Zero-point correction=                           0.001043 (Hartree/Particle)
 Thermal correction to Energy=                    0.004437
 Thermal correction to Enthalpy=                  0.005381
 Thermal correction to Gibbs Free Energy=        -0.020613
 Sum of electronic and zero-point Energies=           -100.761521
 Sum of electronic and thermal Energies=              -100.758127
 Sum of electronic and thermal Enthalpies=            -100.757183
 Sum of electronic and thermal Free Energies=         -100.783177

                     E (Thermal)             CV                S
                      KCal/Mol        Cal/Mol-Kelvin    Cal/Mol-Kelvin
 Total                    2.784              8.561             54.710
 Electronic               0.000              0.000              1.377
 Translational            0.889              2.981             35.068
 Rotational               0.592              1.987             14.491
 Vibrational              1.303              3.593              3.773
 Vibration     1          0.652              1.797              1.887
 Vibration     2          0.652              1.797              1.887

 Normal termination of Gaussian 16 at Fri Aug 22 21:41:56 2025.
