 Gaussian 16, Revision C.01,
 Gaussian 16:  ES64L-G16RevC.01  3-Jul-2019

 -----------------------------------------
 # sp b3lyp/6-311g** Force nosymm scf=(qc)
 -----------------------------------------

 -------------------
 Title Card Required
 -------------------
 Symbolic Z-matrix:
 Charge =  0 Multiplicity = 2

                          Input orientation:
 ---------------------------------------------------------------------
 Center     Atomic      Atomic             Coordinates (Angstroms)
 Number     Number       Type             X           Y           Z
 ---------------------------------------------------------------------
      1          1           0        0.000000    0.000000    0.000000
      2          1           0       -2.650000    0.000000    0.000000
      3          9           0        1.300000    0.000000    0.000000
 ---------------------------------------------------------------------

 SCF Done:  E(UB3LYP) =  -100.901874171     a.u. after    7 cycles

 Alpha  occ. eigenvalues --  -24.64193  -1.10993  -0.46013  -0.36921  -0.36921
 Alpha  occ. eigenvalues --   -0.35122
 Alpha virt. eigenvalues --   -0.08356   0.23572   0.27451   0.93155   0.93155
 Alpha virt. eigenvalues --    1.02158   1.20409   1.22403   1.22403   1.26292
 Alpha virt. eigenvalues --    1.34003   1.34003   1.71814   2.13604   2.25586

  Beta  occ. eigenvalues --  -24.64144  -1.10867  -0.45830  -0.36875  -0.36875
  Beta virt. eigenvalues --   -0.12024  -0.05062   0.26550   0.36606   0.93148
  Beta virt. eigenvalues --    0.93148   1.02276   1.22771   1.33869   1.33869
  Beta virt. eigenvalues --    1.43902   1.43902   1.44434   1.72137   2.25344

 Mulliken charges and spin densities:
               1          2
     1  H    0.351634  -0.004147
     2  H    0.009460   0.988802
     3  F   -0.361094   0.015345
 Sum of Mulliken charges =  -0.00000   1.00000

 Dipole moment (field-independent basis, Debye):
    X=             -2.5200    Y=              0.0000    Z=             -0.0000  Tot=              2.5200
 Quadrupole moment (field-independent basis, Debye-Ang):
   XX=             -8.8972   YY=             -7.1984   ZZ=             -7.1984
   XY=              0.0000   XZ=             -0.0000   YZ=             -0.0000

  Exact polarizability:      14.403       0.000       2.295       0.000       0.000       2.295
 Approx polarizability:      20.249       0.000       2.242      -0.000       0.000       2.242

 ******    2 imaginary frequencies (negative Signs) ******

                      1                      2                      3
                      A                      A                      A
 Frequencies --   -694.9334              -146.4164              1141.3973
 Red. masses --      1.0448                 1.0670                 1.0284
 Frc consts  --      0.2973                 0.0135                 0.7893
 IR Inten    --    108.5321                 0.0231               123.7878

                      4
                      A
 Frequencies --   1141.3973
 Red. masses --      1.0284
 Frc consts  --      0.7893
 IR Inten    --    123.7878

 - Thermochemistry -
 -------------------
 Temperature   298.150 Kelvin.  Pressure   1.00000 Atm.
 Atom     1 has atomic number  1 and mass   1.00783

 Molecular mass:    21.01405 amu.
 Principal axes and moments of inertia in atomic units:
                           1         2         3
     Eigenvalues --     0.00000  57.47838  57.47838
           X            1.00000  -0.00000   0.00000
           Y            0.00000   1.00000   0.00000
           Z            0.00000   0.00000   1.00000
 This molecule is a prolate symmetric top.
 Rotational symmetry number  1.
 Rotational temperature (Kelvin)      1.50690
 Rotational constant (GHZ):          31.398611
    2 imaginary frequencies ignored.
 Zero-point vibrational energy      13654.1 (Joules/Mol)
                                    3.26342 (Kcal/Mol)
 Vibrational temperatures:   1642.22  1642.22
          (Kelvin)

 Zero-point correction=                           0.005201 (Hartree/Particle)
 Thermal correction to Energy=                    0.007603
 Thermal correction to Enthalpy=                  0.008548
 Thermal correction to Gibbs Free Energy=        -0.014755
 Sum of electronic and zero-point Energies=           -100.896674
 Sum of electronic and thermal Energies=              -100.894271
 Sum of electronic and thermal Enthalpies=            -100.893327
 Sum of electronic and thermal Free Energies=         -100.916630

                     E (Thermal)             CV                S
                      KCal/Mol        Cal/Mol-Kelvin    Cal/Mol-Kelvin
 Total                    4.771              5.461             49.045
 Electronic               0.000              0.000              1.377
 Translational            0.889              2.981             35.068
 Rotational               0.592              1.987             12.495
 Vibrational              3.290              0.493              0.105

 Normal termination of Gaussian 16 at Fri Aug 22 16:15:30 2025.
