 Gaussian 16, Revision C.01,
 Gaussian 16:  ES64L-G16RevC.01  3-Jul-2019

 -----------------------------------------
 # sp b3lyp/6-311g** Force nosymm scf=(qc)
 -----------------------------------------

 -------------------
 Title Card Required
 -------------------
 Symbolic Z-matrix:
 Charge =  0 Multiplicity = 2

                          Input orientation:
 ---------------------------------------------------------------------
 Center     Atomic      Atomic             Coordinates (Angstroms)
 Number     Number       Type             X           Y           Z
 ---------------------------------------------------------------------
      1          1           0        0.000000    0.000000    0.000000
      2          1           0       -2.200000    0.000000    0.000000
      3          9           0        3.050000    0.000000    0.000000
 ---------------------------------------------------------------------

 SCF Done:  E(UB3LYP) =  -100.769456737     a.u. after   31 cycles

 Alpha  occ. eigenvalues --  -24.74409  -1.20441  -0.53527  -0.44943  -0.44943
 Alpha  occ. eigenvalues --   -0.33361
 Alpha virt. eigenvalues --   -0.11221   0.25570   0.32725   0.89395   0.92081
 Alpha virt. eigenvalues --    0.92081   1.03663   1.23300   1.24477   1.24477
 Alpha virt. eigenvalues --    1.38174   1.38174   1.44397   2.13541   2.35509

  Beta  occ. eigenvalues --  -24.71363  -1.11706  -0.41894  -0.41894  -0.33724
  Beta virt. eigenvalues --   -0.24993  -0.10405   0.25821   0.33575   0.93548
  Beta virt. eigenvalues --    0.93548   0.98219   1.07607   1.22848   1.24004
  Beta virt. eigenvalues --    1.24004   1.39475   1.39475   1.45529   2.14718

 Mulliken charges and spin densities:
               1          2
     1  H    0.020828  -0.891965
     2  H    0.009914   0.926579
     3  F   -0.030742   0.965386
 Sum of Mulliken charges =   0.00000   1.00000

 Dipole moment (field-independent basis, Debye):
    X=             -0.5850    Y=             -0.0000    Z=              0.0000  Tot=              0.5850
 Quadrupole moment (field-independent basis, Debye-Ang):
   XX=             -7.5398   YY=             -7.6860   ZZ=             -7.6860
   XY=              0.0000   XZ=             -0.0000   YZ=             -0.0000

  Exact polarizability:      52.283       0.000       2.008      -0.000       0.000       2.008
 Approx polarizability:      45.117       0.000       1.925      -0.000       0.000       1.925

 ******    2 imaginary frequencies (negative Signs) ******

                      1                      2                      3
                      A                      A                      A
 Frequencies --  -1040.4989              -230.7940               401.4422
 Red. masses --      1.0082                 1.1081                 1.0145
 Frc consts  --      0.6431                 0.0348                 0.0963
 IR Inten    --     23.0632                23.6031                 0.2495

                      4
                      A
 Frequencies --    401.4422
 Red. masses --      1.0145
 Frc consts  --      0.0963
 IR Inten    --      0.2495

 - Thermochemistry -
 -------------------
 Temperature   298.150 Kelvin.  Pressure   1.00000 Atm.
 Atom     1 has atomic number  1 and mass   1.00783

 Molecular mass:    21.01405 amu.
 Principal axes and moments of inertia in atomic units:
                           1         2         3
     Eigenvalues --     0.00000 120.78656 120.78656
           X            1.00000  -0.00000   0.00000
           Y            0.00000   1.00000   0.00000
           Z            0.00000   0.00000   1.00000
 This molecule is a prolate symmetric top.
 Rotational symmetry number  1.
 Rotational temperature (Kelvin)      0.71708
 Rotational constant (GHZ):          14.941573
    2 imaginary frequencies ignored.
 Zero-point vibrational energy       4802.3 (Joules/Mol)
                                    1.14778 (Kcal/Mol)
 Warning -- explicit consideration of   2 degrees of freedom as
           vibrations may cause significant error
 Vibrational temperatures:    577.59   577.59
          (Kelvin)

 Zero-point correction=                           0.001829 (Hartree/Particle)
 Thermal correction to Energy=                    0.004805
 Thermal correction to Enthalpy=                  0.005750
 Thermal correction to Gibbs Free Energy=        -0.019114
 Sum of electronic and zero-point Energies=           -100.767628
 Sum of electronic and thermal Energies=              -100.764651
 Sum of electronic and thermal Enthalpies=            -100.763707
 Sum of electronic and thermal Free Energies=         -100.788571

                     E (Thermal)             CV                S
                      KCal/Mol        Cal/Mol-Kelvin    Cal/Mol-Kelvin
 Total                    3.015              7.902             52.331
 Electronic               0.000              0.000              1.377
 Translational            0.889              2.981             35.068
 Rotational               0.592              1.987             13.970
 Vibrational              1.534              2.934              1.915
 Vibration     1          0.767              1.467              0.957
 Vibration     2          0.767              1.467              0.957

 Normal termination of Gaussian 16 at Fri Aug 22 19:43:51 2025.
