 Gaussian 16, Revision C.01,
 Gaussian 16:  ES64L-G16RevC.01  3-Jul-2019

 -----------------------------------------
 # sp b3lyp/6-311g** Force nosymm scf=(qc)
 -----------------------------------------

 -------------------
 Title Card Required
 -------------------
 Symbolic Z-matrix:
 Charge =  0 Multiplicity = 2

                          Input orientation:
 ---------------------------------------------------------------------
 Center     Atomic      Atomic             Coordinates (Angstroms)
 Number     Number       Type             X           Y           Z
 ---------------------------------------------------------------------
      1          1           0        0.000000    0.000000    0.000000
      2          1           0       -1.200000    0.000000    0.000000
      3          9           0        1.000000    0.000000    0.000000
 ---------------------------------------------------------------------

 SCF Done:  E(UB3LYP) =  -100.964837906     a.u. after    6 cycles

 Alpha  occ. eigenvalues --  -24.64001  -1.16523  -0.55334  -0.38806  -0.38806
 Alpha  occ. eigenvalues --   -0.36971
 Alpha virt. eigenvalues --    0.10827   0.19406   0.38635   0.92358   0.92358
 Alpha virt. eigenvalues --    0.98291   1.09872   1.09872   1.32426   1.51745
 Alpha virt. eigenvalues --    1.51745   1.57275   2.15736   2.29120   2.71294

  Beta  occ. eigenvalues --  -24.63392  -1.14993  -0.51427  -0.38265  -0.38265
  Beta virt. eigenvalues --   -0.17903   0.12953   0.23324   0.43494   0.93238
  Beta virt. eigenvalues --    0.93238   0.99564   1.17347   1.17347   1.38084
  Beta virt. eigenvalues --    1.56889   1.56889   1.62176   2.23618   2.36480

 Mulliken charges and spin densities:
               1          2
     1  H    0.284386  -0.014858
     2  H    0.032507   0.855864
     3  F   -0.316892   0.158993
 Sum of Mulliken charges =   0.00000   1.00000

 Dipole moment (field-independent basis, Debye):
    X=             -2.1766    Y=             -0.0000    Z=              0.0000  Tot=              2.1766
 Quadrupole moment (field-independent basis, Debye-Ang):
   XX=             -7.6590   YY=             -6.7576   ZZ=             -6.7576
   XY=             -0.0000   XZ=              0.0000   YZ=             -0.0000

  Exact polarizability:      14.440       0.000       2.560       0.000       0.000       2.560
 Approx polarizability:      16.422       0.000       2.571      -0.000       0.000       2.571

                      1                      2                      3
                      A                      A                      A
 Frequencies --    632.4690               632.4690               665.5238
 Red. masses --      1.0203                 1.0203                 1.0354
 Frc consts  --      0.2405                 0.2405                 0.2702
 IR Inten    --     74.7018                74.7018                14.1757

                      4
                      A
 Frequencies --   2477.5832
 Red. masses --      1.0770
 Frc consts  --      3.8951
 IR Inten    --     78.0944

 - Thermochemistry -
 -------------------
 Temperature   298.150 Kelvin.  Pressure   1.00000 Atm.
 Atom     1 has atomic number  1 and mass   1.00783

 Molecular mass:    21.01405 amu.
 Principal axes and moments of inertia in atomic units:
                           1         2         3
     Eigenvalues --     0.00000  19.25072  19.25072
           X            1.00000  -0.00000   0.00000
           Y            0.00000   1.00000   0.00000
           Z            0.00000   0.00000   1.00000
 This molecule is a prolate symmetric top.
 Rotational symmetry number  1.
 Rotational temperature (Kelvin)      4.49926
 Rotational constant (GHZ):          93.749307
 Zero-point vibrational energy      26366.0 (Joules/Mol)
                                    6.30162 (Kcal/Mol)
 Vibrational temperatures:    909.98   909.98   957.54  3564.69
          (Kelvin)

 Zero-point correction=                           0.010042 (Hartree/Particle)
 Thermal correction to Energy=                    0.012816
 Thermal correction to Enthalpy=                  0.013760
 Thermal correction to Gibbs Free Energy=        -0.009004
 Sum of electronic and zero-point Energies=           -100.954796
 Sum of electronic and thermal Energies=              -100.952022
 Sum of electronic and thermal Enthalpies=            -100.951078
 Sum of electronic and thermal Free Energies=         -100.973841

                     E (Thermal)             CV                S
                      KCal/Mol        Cal/Mol-Kelvin    Cal/Mol-Kelvin
 Total                    8.042              7.794             47.910
 Electronic               0.000              0.000              1.377
 Translational            0.889              2.981             35.068
 Rotational               0.592              1.987             10.321
 Vibrational              6.561              2.826              1.144

 Normal termination of Gaussian 16 at Fri Aug 22 15:59:59 2025.
