 Gaussian 16, Revision C.01,
 Gaussian 16:  ES64L-G16RevC.01  3-Jul-2019

 -----------------------------------------
 # sp b3lyp/6-311g** Force nosymm scf=(qc)
 -----------------------------------------

 -------------------
 Title Card Required
 -------------------
 Symbolic Z-matrix:
 Charge =  0 Multiplicity = 2

                          Input orientation:
 ---------------------------------------------------------------------
 Center     Atomic      Atomic             Coordinates (Angstroms)
 Number     Number       Type             X           Y           Z
 ---------------------------------------------------------------------
      1          1           0        0.000000    0.000000    0.000000
      2          1           0       -2.600000    0.000000    0.000000
      3          9           0        3.200000    0.000000    0.000000
 ---------------------------------------------------------------------

 SCF Done:  E(UB3LYP) =  -100.762870761     a.u. after   25 cycles

 Alpha  occ. eigenvalues --  -24.74781  -1.20788  -0.53901  -0.45257  -0.45257
 Alpha  occ. eigenvalues --   -0.32802
 Alpha virt. eigenvalues --   -0.09695   0.25406   0.34133   0.88728   0.91854
 Alpha virt. eigenvalues --    0.91854   1.02870   1.24813   1.24813   1.26469
 Alpha virt. eigenvalues --    1.41200   1.41200   1.42290   2.15755   2.37416

  Beta  occ. eigenvalues --  -24.71708  -1.11968  -0.42179  -0.42179  -0.33382
  Beta virt. eigenvalues --   -0.25174  -0.08797   0.25318   0.35296   0.93330
  Beta virt. eigenvalues --    0.93330   0.97685   1.06814   1.24116   1.24116
  Beta virt. eigenvalues --    1.25621   1.42640   1.42640   1.43700   2.16562

 Mulliken charges and spin densities:
               1          2
     1  H    0.020096  -0.951918
     2  H    0.003170   0.977769
     3  F   -0.023265   0.974149
 Sum of Mulliken charges =  -0.00000   1.00000

 Dipole moment (field-independent basis, Debye):
    X=             -0.4216    Y=             -0.0000    Z=             -0.0000  Tot=              0.4216
 Quadrupole moment (field-independent basis, Debye-Ang):
   XX=             -7.6373   YY=             -7.6513   ZZ=             -7.6513
   XY=             -0.0000   XZ=             -0.0000   YZ=             -0.0000

  Exact polarizability:      38.786      -0.000       2.019      -0.000      -0.000       2.019
 Approx polarizability:      32.503      -0.000       1.925      -0.000      -0.000       1.925

 ******    2 imaginary frequencies (negative Signs) ******

                      1                      2                      3
                      A                      A                      A
 Frequencies --   -603.4343              -189.9429               221.9051
 Red. masses --      1.0093                 1.1067                 1.0156
 Frc consts  --      0.2165                 0.0235                 0.0295
 IR Inten    --     15.4856                12.5230                 0.3159

                      4
                      A
 Frequencies --    221.9051
 Red. masses --      1.0156
 Frc consts  --      0.0295
 IR Inten    --      0.3159

 - Thermochemistry -
 -------------------
 Temperature   298.150 Kelvin.  Pressure   1.00000 Atm.
 Atom     1 has atomic number  1 and mass   1.00783

 Molecular mass:    21.01405 amu.
 Principal axes and moments of inertia in atomic units:
                           1         2         3
     Eigenvalues --     0.00000 143.94333 143.94333
           X            1.00000  -0.00000   0.00000
           Y            0.00000   1.00000   0.00000
           Z            0.00000   0.00000   1.00000
 This molecule is a prolate symmetric top.
 Rotational symmetry number  1.
 Rotational temperature (Kelvin)      0.60172
 Rotational constant (GHZ):          12.537859
    2 imaginary frequencies ignored.
 Zero-point vibrational energy       2654.6 (Joules/Mol)
                                    0.63446 (Kcal/Mol)
 Warning -- explicit consideration of   2 degrees of freedom as
           vibrations may cause significant error
 Vibrational temperatures:    319.27   319.27
          (Kelvin)

 Zero-point correction=                           0.001011 (Hartree/Particle)
 Thermal correction to Energy=                    0.004426
 Thermal correction to Enthalpy=                  0.005370
 Thermal correction to Gibbs Free Energy=        -0.020597
 Sum of electronic and zero-point Energies=           -100.761860
 Sum of electronic and thermal Energies=              -100.758445
 Sum of electronic and thermal Enthalpies=            -100.757501
 Sum of electronic and thermal Free Energies=         -100.783467

                     E (Thermal)             CV                S
                      KCal/Mol        Cal/Mol-Kelvin    Cal/Mol-Kelvin
 Total                    2.777              8.583             54.651
 Electronic               0.000              0.000              1.377
 Translational            0.889              2.981             35.068
 Rotational               0.592              1.987             14.319
 Vibrational              1.296              3.615              3.887
 Vibration     1          0.648              1.808              1.943
 Vibration     2          0.648              1.808              1.943

 Normal termination of Gaussian 16 at Fri Aug 22 20:23:52 2025.
