 Gaussian 16, Revision C.01,
 Gaussian 16:  ES64L-G16RevC.01  3-Jul-2019

 -----------------------------------------
 # sp b3lyp/6-311g** Force nosymm scf=(qc)
 -----------------------------------------

 -------------------
 Title Card Required
 -------------------
 Symbolic Z-matrix:
 Charge =  0 Multiplicity = 2

                          Input orientation:
 ---------------------------------------------------------------------
 Center     Atomic      Atomic             Coordinates (Angstroms)
 Number     Number       Type             X           Y           Z
 ---------------------------------------------------------------------
      1          1           0        0.000000    0.000000    0.000000
      2          1           0       -3.100000    0.000000    0.000000
      3          9           0        3.900000    0.000000    0.000000
 ---------------------------------------------------------------------

 SCF Done:  E(UB3LYP) =  -100.759290147     a.u. after   34 cycles

 Alpha  occ. eigenvalues --  -24.75833  -1.21764  -0.54958  -0.46144  -0.46144
 Alpha  occ. eigenvalues --   -0.32328
 Alpha virt. eigenvalues --   -0.07469   0.24893   0.36780   0.86691   0.91199
 Alpha virt. eigenvalues --    0.91199   1.01154   1.25198   1.25198   1.25734
 Alpha virt. eigenvalues --    1.44607   1.44735   1.44735   2.15671   2.39926

  Beta  occ. eigenvalues --  -24.72691  -1.12729  -0.42994  -0.42994  -0.32536
  Beta virt. eigenvalues --   -0.25710  -0.07225   0.24727   0.37115   0.92697
  Beta virt. eigenvalues --    0.92697   0.96043   1.05271   1.24970   1.24970
  Beta virt. eigenvalues --    1.25489   1.44977   1.45104   1.45104   2.15708

 Mulliken charges and spin densities:
               1          2
     1  H    0.003085  -0.990398
     2  H    0.000230   0.994101
     3  F   -0.003315   0.996297
 Sum of Mulliken charges =   0.00000   1.00000

 Dipole moment (field-independent basis, Debye):
    X=             -0.0703    Y=             -0.0000    Z=             -0.0000  Tot=              0.0703
 Quadrupole moment (field-independent basis, Debye-Ang):
   XX=             -6.9133   YY=             -7.6328   ZZ=             -7.6328
   XY=             -0.0000   XZ=             -0.0000   YZ=              0.0000

  Exact polarizability:      14.625      -0.000       2.030      -0.000       0.000       2.030
 Approx polarizability:      10.886      -0.000       1.935      -0.000      -0.000       1.935

 ******    2 imaginary frequencies (negative Signs) ******

                      1                      2                      3
                      A                      A                      A
 Frequencies --   -298.7659               -79.1530               104.8093
 Red. masses --      1.0084                 1.1078                 1.0154
 Frc consts  --      0.0530                 0.0041                 0.0066
 IR Inten    --      1.0780                 0.8951                 0.0085

                      4
                      A
 Frequencies --    104.8093
 Red. masses --      1.0154
 Frc consts  --      0.0066
 IR Inten    --      0.0085

 - Thermochemistry -
 -------------------
 Temperature   298.150 Kelvin.  Pressure   1.00000 Atm.
 Atom     1 has atomic number  1 and mass   1.00783

 Molecular mass:    21.01405 amu.
 Principal axes and moments of inertia in atomic units:
                           1         2         3
     Eigenvalues --     0.00000 210.58491 210.58491
           X            1.00000  -0.00000   0.00000
           Y            0.00000   1.00000   0.00000
           Z            0.00000   0.00000   1.00000
 This molecule is a prolate symmetric top.
 Rotational symmetry number  1.
 Rotational temperature (Kelvin)      0.41130
 Rotational constant (GHZ):           8.570135
    2 imaginary frequencies ignored.
 Zero-point vibrational energy       1253.8 (Joules/Mol)
                                    0.29966 (Kcal/Mol)
 Warning -- explicit consideration of   2 degrees of freedom as
           vibrations may cause significant error
 Vibrational temperatures:    150.80   150.80
          (Kelvin)

 Zero-point correction=                           0.000478 (Hartree/Particle)
 Thermal correction to Energy=                    0.004289
 Thermal correction to Enthalpy=                  0.005233
 Thermal correction to Gibbs Free Energy=        -0.022442
 Sum of electronic and zero-point Energies=           -100.758813
 Sum of electronic and thermal Energies=              -100.755001
 Sum of electronic and thermal Enthalpies=            -100.754057
 Sum of electronic and thermal Free Energies=         -100.781732

                     E (Thermal)             CV                S
                      KCal/Mol        Cal/Mol-Kelvin    Cal/Mol-Kelvin
 Total                    2.691              8.859             58.246
 Electronic               0.000              0.000              1.377
 Translational            0.889              2.981             35.068
 Rotational               0.592              1.987             15.075
 Vibrational              1.210              3.891              6.726
 Vibration     1          0.605              1.945              3.363
 Vibration     2          0.605              1.945              3.363

 Normal termination of Gaussian 16 at Sat Aug 23 01:26:25 2025.
