 Gaussian 16, Revision C.01,
 Gaussian 16:  ES64L-G16RevC.01  3-Jul-2019

 -----------------------------------------
 # sp b3lyp/6-311g** Force nosymm scf=(qc)
 -----------------------------------------

 -------------------
 Title Card Required
 -------------------
 Symbolic Z-matrix:
 Charge =  0 Multiplicity = 2

                          Input orientation:
 ---------------------------------------------------------------------
 Center     Atomic      Atomic             Coordinates (Angstroms)
 Number     Number       Type             X           Y           Z
 ---------------------------------------------------------------------
      1          1           0        0.000000    0.000000    0.000000
      2          1           0       -2.100000    0.000000    0.000000
      3          9           0        1.000000    0.000000    0.000000
 ---------------------------------------------------------------------

 SCF Done:  E(UB3LYP) =  -100.966958637     a.u. after    6 cycles

 Alpha  occ. eigenvalues --  -24.63865  -1.15821  -0.51649  -0.38539  -0.38539
 Alpha  occ. eigenvalues --   -0.35882
 Alpha virt. eigenvalues --    0.03290   0.24446   0.34079   0.94279   0.94279
 Alpha virt. eigenvalues --    0.98423   1.15399   1.21557   1.21557   1.36276
 Alpha virt. eigenvalues --    1.36276   1.47043   1.87897   2.15746   2.34788

  Beta  occ. eigenvalues --  -24.63803  -1.15666  -0.51320  -0.38484  -0.38484
  Beta virt. eigenvalues --   -0.12025   0.05541   0.33940   0.35314   0.94286
  Beta virt. eigenvalues --    0.94286   0.98786   1.24821   1.35850   1.35850
  Beta virt. eigenvalues --    1.41880   1.41880   1.56437   1.89240   2.33837

 Mulliken charges and spin densities:
               1          2
     1  H    0.308027   0.004459
     2  H    0.014589   0.978149
     3  F   -0.322617   0.017392
 Sum of Mulliken charges =   0.00000   1.00000

 Dipole moment (field-independent basis, Debye):
    X=             -2.1933    Y=             -0.0000    Z=             -0.0000  Tot=              2.1933
 Quadrupole moment (field-independent basis, Debye-Ang):
   XX=             -7.8195   YY=             -6.9322   ZZ=             -6.9322
   XY=             -0.0000   XZ=             -0.0000   YZ=              0.0000

  Exact polarizability:      10.305       0.000       2.451      -0.000      -0.000       2.451
 Approx polarizability:      11.394       0.000       2.431       0.000      -0.000       2.431

                      1                      2                      3
                      A                      A                      A
 Frequencies --     47.0858               945.8190               945.8190
 Red. masses --      1.0522                 1.0288                 1.0288
 Frc consts  --      0.0014                 0.5423                 0.5423
 IR Inten    --      2.7401               139.5700               139.5700

                      4
                      A
 Frequencies --   2986.1701
 Red. masses --      1.0594
 Frc consts  --      5.5658
 IR Inten    --    171.0965

 - Thermochemistry -
 -------------------
 Temperature   298.150 Kelvin.  Pressure   1.00000 Atm.
 Atom     1 has atomic number  1 and mass   1.00783

 Molecular mass:    21.01405 amu.
 Principal axes and moments of inertia in atomic units:
                           1         2         3
     Eigenvalues --     0.00000  35.28396  35.28396
           X            1.00000  -0.00000   0.00000
           Y            0.00000   1.00000   0.00000
           Z            0.00000   0.00000   1.00000
 This molecule is a prolate symmetric top.
 Rotational symmetry number  1.
 Rotational temperature (Kelvin)      2.45477
 Rotational constant (GHZ):          51.149057
 Zero-point vibrational energy      29457.4 (Joules/Mol)
                                    7.04049 (Kcal/Mol)
 Warning -- explicit consideration of   1 degrees of freedom as
           vibrations may cause significant error
 Vibrational temperatures:     67.75  1360.82  1360.82  4296.43
          (Kelvin)

 Zero-point correction=                           0.011220 (Hartree/Particle)
 Thermal correction to Energy=                    0.014512
 Thermal correction to Enthalpy=                  0.015456
 Thermal correction to Gibbs Free Energy=        -0.009792
 Sum of electronic and zero-point Energies=           -100.955739
 Sum of electronic and thermal Energies=              -100.952447
 Sum of electronic and thermal Enthalpies=            -100.951503
 Sum of electronic and thermal Free Energies=         -100.976751

                     E (Thermal)             CV                S
                      KCal/Mol        Cal/Mol-Kelvin    Cal/Mol-Kelvin
 Total                    9.106              7.828             53.139
 Electronic               0.000              0.000              1.377
 Translational            0.889              2.981             35.068
 Rotational               0.592              1.987             11.525
 Vibrational              7.625              2.860              5.169
 Vibration     1          0.595              1.979              4.936

 Normal termination of Gaussian 16 at Fri Aug 22 16:00:37 2025.
