 Gaussian 16, Revision C.01,
 Gaussian 16:  ES64L-G16RevC.01  3-Jul-2019

 -----------------------------------------
 # sp b3lyp/6-311g** Force nosymm scf=(qc)
 -----------------------------------------

 -------------------
 Title Card Required
 -------------------
 Symbolic Z-matrix:
 Charge =  0 Multiplicity = 2

                          Input orientation:
 ---------------------------------------------------------------------
 Center     Atomic      Atomic             Coordinates (Angstroms)
 Number     Number       Type             X           Y           Z
 ---------------------------------------------------------------------
      1          1           0        0.000000    0.000000    0.000000
      2          1           0       -3.350000    0.000000    0.000000
      3          9           0        1.500000    0.000000    0.000000
 ---------------------------------------------------------------------

 SCF Done:  E(UB3LYP) =  -100.854750854     a.u. after    7 cycles

 Alpha  occ. eigenvalues --  -24.64335  -1.09691  -0.43243  -0.36416  -0.36416
 Alpha  occ. eigenvalues --   -0.34155
 Alpha virt. eigenvalues --   -0.14422   0.20486   0.27779   0.93531   0.93531
 Alpha virt. eigenvalues --    1.03506   1.09581   1.23359   1.23359   1.23476
 Alpha virt. eigenvalues --    1.31223   1.31223   1.73219   2.13575   2.18716

  Beta  occ. eigenvalues --  -24.64288  -1.09566  -0.43129  -0.36371  -0.36371
  Beta virt. eigenvalues --   -0.14828  -0.06850   0.23454   0.38009   0.93512
  Beta virt. eigenvalues --    0.93512   1.03628   1.09604   1.31000   1.31000
  Beta virt. eigenvalues --    1.45432   1.45905   1.45905   1.73161   2.18192

 Mulliken charges and spin densities:
               1          2
     1  H    0.347994  -0.012034
     2  H    0.002757   0.997065
     3  F   -0.350751   0.014969
 Sum of Mulliken charges =  -0.00000   1.00000

 Dipole moment (field-independent basis, Debye):
    X=             -2.6298    Y=              0.0000    Z=              0.0000  Tot=              2.6298
 Quadrupole moment (field-independent basis, Debye-Ang):
   XX=             -9.8404   YY=             -7.3223   ZZ=             -7.3223
   XY=              0.0000   XZ=              0.0000   YZ=             -0.0000

  Exact polarizability:      16.054      -0.000       2.188       0.000       0.000       2.188
 Approx polarizability:      29.490      -0.000       2.113       0.000       0.000       2.113

 ******    2 imaginary frequencies (negative Signs) ******

                      1                      2                      3
                      A                      A                      A
 Frequencies --  -1159.4085               -96.1760              1013.1221
 Red. masses --      1.0570                 1.0545                 1.0298
 Frc consts  --      0.8372                 0.0057                 0.6228
 IR Inten    --     49.1365                 0.3531               115.9244

                      4
                      A
 Frequencies --   1013.1221
 Red. masses --      1.0298
 Frc consts  --      0.6228
 IR Inten    --    115.9244

 - Thermochemistry -
 -------------------
 Temperature   298.150 Kelvin.  Pressure   1.00000 Atm.
 Atom     1 has atomic number  1 and mass   1.00783

 Molecular mass:    21.01405 amu.
 Principal axes and moments of inertia in atomic units:
                           1         2         3
     Eigenvalues --     0.00000  85.79551  85.79551
           X            1.00000  -0.00000   0.00000
           Y            0.00000   1.00000   0.00000
           Z            0.00000   0.00000   1.00000
 This molecule is a prolate symmetric top.
 Rotational symmetry number  1.
 Rotational temperature (Kelvin)      1.00954
 Rotational constant (GHZ):          21.035382
    2 imaginary frequencies ignored.
 Zero-point vibrational energy      12119.6 (Joules/Mol)
                                    2.89666 (Kcal/Mol)
 Vibrational temperatures:   1457.66  1457.66
          (Kelvin)

 Zero-point correction=                           0.004616 (Hartree/Particle)
 Thermal correction to Energy=                    0.007047
 Thermal correction to Enthalpy=                  0.007991
 Thermal correction to Gibbs Free Energy=        -0.015725
 Sum of electronic and zero-point Energies=           -100.850135
 Sum of electronic and thermal Energies=              -100.847704
 Sum of electronic and thermal Enthalpies=            -100.846760
 Sum of electronic and thermal Free Energies=         -100.870476

                     E (Thermal)             CV                S
                      KCal/Mol        Cal/Mol-Kelvin    Cal/Mol-Kelvin
 Total                    4.422              5.694             49.913
 Electronic               0.000              0.000              1.377
 Translational            0.889              2.981             35.068
 Rotational               0.592              1.987             13.291
 Vibrational              2.941              0.726              0.177

 Normal termination of Gaussian 16 at Fri Aug 22 16:26:31 2025.
