 Gaussian 16, Revision C.01,
 Gaussian 16:  ES64L-G16RevC.01  3-Jul-2019

 -----------------------------------------
 # sp b3lyp/6-311g** Force nosymm scf=(qc)
 -----------------------------------------

 -------------------
 Title Card Required
 -------------------
 Symbolic Z-matrix:
 Charge =  0 Multiplicity = 2

                          Input orientation:
 ---------------------------------------------------------------------
 Center     Atomic      Atomic             Coordinates (Angstroms)
 Number     Number       Type             X           Y           Z
 ---------------------------------------------------------------------
      1          1           0        0.000000    0.000000    0.000000
      2          1           0       -1.300000    0.000000    0.000000
      3          9           0        2.750000    0.000000    0.000000
 ---------------------------------------------------------------------

 SCF Done:  E(UB3LYP) =  -100.854518538     a.u. after  245 cycles

 Alpha  occ. eigenvalues --  -24.76855  -1.22659  -0.55836  -0.47153  -0.46990
 Alpha  occ. eigenvalues --   -0.35078
 Alpha virt. eigenvalues --   -0.05817   0.23869   0.33464   0.85723   0.90499
 Alpha virt. eigenvalues --    0.93068   1.05750   1.15523   1.15533   1.16298
 Alpha virt. eigenvalues --    1.49623   1.49633   1.99413   2.29323   2.54191

  Beta  occ. eigenvalues --  -24.73696  -1.13582  -0.44007  -0.43824  -0.35041
  Beta virt. eigenvalues --   -0.26489  -0.05774   0.23904   0.33577   0.91995
  Beta virt. eigenvalues --    0.94387   0.95548   1.09472   1.15535   1.15544
  Beta virt. eigenvalues --    1.16403   1.49632   1.49642   1.99433   2.29340

 Mulliken charges and spin densities:
               1          2
     1  H   -0.001039  -0.001354
     2  H   -0.008547   0.001169
     3  F    0.009587   1.000185
 Sum of Mulliken charges =   0.00000   1.00000

 Dipole moment (field-independent basis, Debye):
    X=              0.1318    Y=             -0.0003    Z=              0.0008  Tot=              0.1318
 Quadrupole moment (field-independent basis, Debye-Ang):
   XX=             -6.1147   YY=             -7.4946   ZZ=             -6.8836
   XY=             -0.0625   XZ=              0.1616   YZ=             -0.2776

  Exact polarizability:      38.554       0.090       2.138      -0.235      -0.149       2.465
 Approx polarizability:      31.656      -0.016       2.171       0.041      -0.186       2.579

 ******    2 imaginary frequencies (negative Signs) ******

                      1                      2                      3
                      A                      A                      A
 Frequencies --  -1028.6115               -97.4685              1387.7134
 Red. masses --      1.0080                 1.1083                 1.0114
 Frc consts  --      0.6283                 0.0062                 1.1475
 IR Inten    --     55.4526                 3.1738                 3.9417

                      4
                      A
 Frequencies --   1390.0187
 Red. masses --      1.0114
 Frc consts  --      1.1514
 IR Inten    --      0.0073

 - Thermochemistry -
 -------------------
 Temperature   298.150 Kelvin.  Pressure   1.00000 Atm.
 Atom     1 has atomic number  1 and mass   1.00783

 Molecular mass:    21.01405 amu.
 Principal axes and moments of inertia in atomic units:
                           1         2         3
     Eigenvalues --     0.00000  78.26890  78.26890
           X            1.00000  -0.00000   0.00000
           Y            0.00000   1.00000   0.00000
           Z            0.00000   0.00000   1.00000
 This molecule is a prolate symmetric top.
 Rotational symmetry number  1.
 Rotational temperature (Kelvin)      1.10662
 Rotational constant (GHZ):          23.058217
    2 imaginary frequencies ignored.
 Zero-point vibrational energy      16614.5 (Joules/Mol)
                                    3.97097 (Kcal/Mol)
 Vibrational temperatures:   1996.61  1999.93
          (Kelvin)

 Zero-point correction=                           0.006328 (Hartree/Particle)
 Thermal correction to Energy=                    0.008704
 Thermal correction to Enthalpy=                  0.009648
 Thermal correction to Gibbs Free Energy=        -0.013914
 Sum of electronic and zero-point Energies=           -100.848190
 Sum of electronic and thermal Energies=              -100.845814
 Sum of electronic and thermal Enthalpies=            -100.844870
 Sum of electronic and thermal Free Energies=         -100.868433

                     E (Thermal)             CV                S
                      KCal/Mol        Cal/Mol-Kelvin    Cal/Mol-Kelvin
 Total                    5.462              5.188             49.591
 Electronic               0.000              0.000              1.377
 Translational            0.889              2.981             35.068
 Rotational               0.592              1.987             13.108
 Vibrational              3.981              0.220              0.038

 Normal termination of Gaussian 16 at Fri Aug 22 18:32:00 2025.
