 Gaussian 16, Revision C.01,
 Gaussian 16:  ES64L-G16RevC.01  3-Jul-2019

 -----------------------------------------
 # sp b3lyp/6-311g** Force nosymm scf=(qc)
 -----------------------------------------

 -------------------
 Title Card Required
 -------------------
 Symbolic Z-matrix:
 Charge =  0 Multiplicity = 2

                          Input orientation:
 ---------------------------------------------------------------------
 Center     Atomic      Atomic             Coordinates (Angstroms)
 Number     Number       Type             X           Y           Z
 ---------------------------------------------------------------------
      1          1           0        0.000000    0.000000    0.000000
      2          1           0       -1.300000    0.000000    0.000000
      3          9           0        3.900000    0.000000    0.000000
 ---------------------------------------------------------------------

 SCF Done:  E(UB3LYP) =  -100.853661825     a.u. after   68 cycles

 Alpha  occ. eigenvalues --  -24.76230  -1.22130  -0.55333  -0.46509  -0.46489
 Alpha  occ. eigenvalues --   -0.35300
 Alpha virt. eigenvalues --   -0.06186   0.23551   0.32680   0.86036   0.90913
 Alpha virt. eigenvalues --    0.91370   1.00898   1.15357   1.15359   1.15686
 Alpha virt. eigenvalues --    1.49455   1.49457   1.98322   2.28613   2.52555

  Beta  occ. eigenvalues --  -24.73075  -1.13057  -0.43346  -0.43326  -0.35299
  Beta virt. eigenvalues --   -0.25983  -0.06185   0.23554   0.32691   0.92413
  Beta virt. eigenvalues --    0.92864   0.95502   1.05046   1.15357   1.15359
  Beta virt. eigenvalues --    1.15689   1.49455   1.49457   1.98324   2.28614

 Mulliken charges and spin densities:
               1          2
     1  H    0.001005  -0.000037
     2  H   -0.002011  -0.000075
     3  F    0.001006   1.000112
 Sum of Mulliken charges =  -0.00000   1.00000

 Dipole moment (field-independent basis, Debye):
    X=              0.0235    Y=             -0.0000    Z=              0.0000  Tot=              0.0235
 Quadrupole moment (field-independent basis, Debye-Ang):
   XX=             -6.3271   YY=             -7.5915   ZZ=             -6.7270
   XY=             -0.0000   XZ=              0.0000   YZ=             -0.0080

  Exact polarizability:      17.931      -0.000       2.072       0.000      -0.004       2.544
 Approx polarizability:      29.317      -0.000       2.087       0.000      -0.005       2.669

 ******    2 imaginary frequencies (negative Signs) ******

                      1                      2                      3
                      A                      A                      A
 Frequencies --   -970.8911               -54.4599              1393.2001
 Red. masses --      1.0078                 1.1085                 1.0098
 Frc consts  --      0.5597                 0.0019                 1.1549
 IR Inten    --      0.0622                 0.0448                 0.0070

                      4
                      A
 Frequencies --   1397.0188
 Red. masses --      1.0098
 Frc consts  --      1.1612
 IR Inten    --      0.0014

 - Thermochemistry -
 -------------------
 Temperature   298.150 Kelvin.  Pressure   1.00000 Atm.
 Atom     1 has atomic number  1 and mass   1.00783

 Molecular mass:    21.01405 amu.
 Principal axes and moments of inertia in atomic units:
                           1         2         3
     Eigenvalues --     0.00000 137.76453 137.76453
           X            1.00000  -0.00000   0.00000
           Y            0.00000   1.00000   0.00000
           Z            0.00000   0.00000   1.00000
 This molecule is a prolate symmetric top.
 Rotational symmetry number  1.
 Rotational temperature (Kelvin)      0.62871
 Rotational constant (GHZ):          13.100188
    2 imaginary frequencies ignored.
 Zero-point vibrational energy      16689.2 (Joules/Mol)
                                    3.98882 (Kcal/Mol)
 Vibrational temperatures:   2004.50  2010.00
          (Kelvin)

 Zero-point correction=                           0.006357 (Hartree/Particle)
 Thermal correction to Energy=                    0.008732
 Thermal correction to Enthalpy=                  0.009676
 Thermal correction to Gibbs Free Energy=        -0.014419
 Sum of electronic and zero-point Energies=           -100.847305
 Sum of electronic and thermal Energies=              -100.844930
 Sum of electronic and thermal Enthalpies=            -100.843985
 Sum of electronic and thermal Free Energies=         -100.868081

                     E (Thermal)             CV                S
                      KCal/Mol        Cal/Mol-Kelvin    Cal/Mol-Kelvin
 Total                    5.480              5.183             50.714
 Electronic               0.000              0.000              1.377
 Translational            0.889              2.981             35.068
 Rotational               0.592              1.987             14.232
 Vibrational              3.998              0.215              0.037

 Normal termination of Gaussian 16 at Sat Aug 23 01:17:15 2025.
