 Gaussian 16, Revision C.01,
 Gaussian 16:  ES64L-G16RevC.01  3-Jul-2019

 -----------------------------------------
 # sp b3lyp/6-311g** Force nosymm scf=(qc)
 -----------------------------------------

 -------------------
 Title Card Required
 -------------------
 Symbolic Z-matrix:
 Charge =  0 Multiplicity = 2

                          Input orientation:
 ---------------------------------------------------------------------
 Center     Atomic      Atomic             Coordinates (Angstroms)
 Number     Number       Type             X           Y           Z
 ---------------------------------------------------------------------
      1          1           0        0.000000    0.000000    0.000000
      2          1           0       -0.500000    0.000000    0.000000
      3          9           0        3.150000    0.000000    0.000000
 ---------------------------------------------------------------------

 SCF Done:  E(UB3LYP) =  -100.862084106     a.u. after   65 cycles

 Alpha  occ. eigenvalues --  -24.76492  -1.22303  -0.55500  -0.49228  -0.46660
 Alpha  occ. eigenvalues --   -0.46650
 Alpha virt. eigenvalues --    0.10209   0.18404   0.56014   0.85953   0.90826
 Alpha virt. eigenvalues --    0.94000   1.05836   1.12140   1.12146   1.61870
 Alpha virt. eigenvalues --    1.86175   1.99673   1.99681   2.36550   3.64752

  Beta  occ. eigenvalues --  -24.73331  -1.13217  -0.49208  -0.43507  -0.43481
  Beta virt. eigenvalues --   -0.26125   0.10263   0.18433   0.56137   0.92325
  Beta virt. eigenvalues --    0.95412   0.95820   1.09461   1.12139   1.12145
  Beta virt. eigenvalues --    1.61894   1.86214   1.99672   1.99680   2.36553

 Mulliken charges and spin densities:
               1          2
     1  H   -0.008068  -0.001514
     2  H   -0.000569   0.000384
     3  F    0.008637   1.001130
 Sum of Mulliken charges =   0.00000   1.00000

 Dipole moment (field-independent basis, Debye):
    X=              0.0777    Y=              0.0000    Z=              0.0000  Tot=              0.0777
 Quadrupole moment (field-independent basis, Debye-Ang):
   XX=             -5.9904   YY=             -5.9193   ZZ=             -6.4058
   XY=              0.0000   XZ=              0.0000   YZ=             -0.3568

  Exact polarizability:       5.741      -0.000       2.165       0.000      -0.191       1.905
 Approx polarizability:       6.013      -0.000       2.338       0.000      -0.239       2.012

 ******    2 imaginary frequencies (negative Signs) ******

                      1                      2                      3
                      A                      A                      A
 Frequencies --  -4825.5062             -4825.3037                52.1763
 Red. masses --      1.0084                 1.0084                 1.1085
 Frc consts  --     13.8343                13.8331                 0.0018
 IR Inten    --      0.0506                 0.0493                 0.1424

                      4
                      A
 Frequencies --   9960.3569
 Red. masses --      1.0078
 Frc consts  --     58.9095
 IR Inten    --      0.1599

 - Thermochemistry -
 -------------------
 Temperature   298.150 Kelvin.  Pressure   1.00000 Atm.
 Atom     1 has atomic number  1 and mass   1.00783

 Molecular mass:    21.01405 amu.
 Principal axes and moments of inertia in atomic units:
                           1         2         3
     Eigenvalues --     0.00000  75.67761  75.67761
           X            1.00000  -0.00000   0.00000
           Y            0.00000   1.00000   0.00000
           Z            0.00000   0.00000   1.00000
 This molecule is a prolate symmetric top.
 Rotational symmetry number  1.
 Rotational temperature (Kelvin)      1.14451
 Rotational constant (GHZ):          23.847756
    2 imaginary frequencies ignored.
 Zero-point vibrational energy      59888.2 (Joules/Mol)
                                   14.31363 (Kcal/Mol)
 Warning -- explicit consideration of   1 degrees of freedom as
           vibrations may cause significant error
 Vibrational temperatures:     75.07 14330.73
          (Kelvin)

 Zero-point correction=                           0.022810 (Hartree/Particle)
 Thermal correction to Energy=                    0.026001
 Thermal correction to Enthalpy=                  0.026945
 Thermal correction to Gibbs Free Energy=         0.001184
 Sum of electronic and zero-point Energies=           -100.839274
 Sum of electronic and thermal Energies=              -100.836083
 Sum of electronic and thermal Enthalpies=            -100.835139
 Sum of electronic and thermal Free Energies=         -100.860901

                     E (Thermal)             CV                S
                      KCal/Mol        Cal/Mol-Kelvin    Cal/Mol-Kelvin
 Total                   16.316              6.945             54.220
 Electronic               0.000              0.000              1.377
 Translational            0.889              2.981             35.068
 Rotational               0.592              1.987             13.041
 Vibrational             14.835              1.977              4.733
 Vibration     1          0.596              1.977              4.733

 Normal termination of Gaussian 16 at Fri Aug 22 19:57:05 2025.
