 Gaussian 16, Revision C.01,
 Gaussian 16:  ES64L-G16RevC.01  3-Jul-2019

 -----------------------------------------
 # sp b3lyp/6-311g** Force nosymm scf=(qc)
 -----------------------------------------

 -------------------
 Title Card Required
 -------------------
 Symbolic Z-matrix:
 Charge =  0 Multiplicity = 2

                          Input orientation:
 ---------------------------------------------------------------------
 Center     Atomic      Atomic             Coordinates (Angstroms)
 Number     Number       Type             X           Y           Z
 ---------------------------------------------------------------------
      1          1           0        0.000000    0.000000    0.000000
      2          1           0       -2.100000    0.000000    0.000000
      3          9           0        3.050000    0.000000    0.000000
 ---------------------------------------------------------------------

 SCF Done:  E(UB3LYP) =  -100.772263233     a.u. after   26 cycles

 Alpha  occ. eigenvalues --  -24.74457  -1.20485  -0.53575  -0.44984  -0.44984
 Alpha  occ. eigenvalues --   -0.33493
 Alpha virt. eigenvalues --   -0.11460   0.25570   0.32329   0.89411   0.92050
 Alpha virt. eigenvalues --    0.92050   1.03665   1.20462   1.24424   1.24424
 Alpha virt. eigenvalues --    1.37524   1.37524   1.46895   2.12851   2.35862

  Beta  occ. eigenvalues --  -24.71408  -1.11742  -0.41931  -0.41931  -0.33740
  Beta virt. eigenvalues --   -0.25032  -0.10771   0.25879   0.33026   0.93518
  Beta virt. eigenvalues --    0.93518   0.98225   1.07608   1.20244   1.24085
  Beta virt. eigenvalues --    1.24085   1.38605   1.38605   1.47768   2.14024

 Mulliken charges and spin densities:
               1          2
     1  H    0.018138  -0.865237
     2  H    0.011829   0.899153
     3  F   -0.029967   0.966084
 Sum of Mulliken charges =  -0.00000   1.00000

 Dipole moment (field-independent basis, Debye):
    X=             -0.5872    Y=              0.0000    Z=             -0.0000  Tot=              0.5872
 Quadrupole moment (field-independent basis, Debye-Ang):
   XX=             -7.4033   YY=             -7.6990   ZZ=             -7.6990
   XY=              0.0000   XZ=             -0.0000   YZ=              0.0000

  Exact polarizability:      55.207       0.000       2.007      -0.000       0.000       2.007
 Approx polarizability:      48.503       0.000       1.927      -0.000      -0.000       1.927

 ******    2 imaginary frequencies (negative Signs) ******

                      1                      2                      3
                      A                      A                      A
 Frequencies --  -1193.5880              -230.1637               469.6816
 Red. masses --      1.0080                 1.1083                 1.0141
 Frc consts  --      0.8461                 0.0346                 0.1318
 IR Inten    --     27.9663                24.8802                 0.1554

                      4
                      A
 Frequencies --    469.6816
 Red. masses --      1.0141
 Frc consts  --      0.1318
 IR Inten    --      0.1554

 - Thermochemistry -
 -------------------
 Temperature   298.150 Kelvin.  Pressure   1.00000 Atm.
 Atom     1 has atomic number  1 and mass   1.00783

 Molecular mass:    21.01405 amu.
 Principal axes and moments of inertia in atomic units:
                           1         2         3
     Eigenvalues --     0.00000 117.32839 117.32839
           X            1.00000  -0.00000   0.00000
           Y            0.00000   1.00000   0.00000
           Z            0.00000   0.00000   1.00000
 This molecule is a prolate symmetric top.
 Rotational symmetry number  1.
 Rotational temperature (Kelvin)      0.73822
 Rotational constant (GHZ):          15.381965
    2 imaginary frequencies ignored.
 Zero-point vibrational energy       5618.6 (Joules/Mol)
                                    1.34289 (Kcal/Mol)
 Warning -- explicit consideration of   2 degrees of freedom as
           vibrations may cause significant error
 Vibrational temperatures:    675.77   675.77
          (Kelvin)

 Zero-point correction=                           0.002140 (Hartree/Particle)
 Thermal correction to Energy=                    0.004996
 Thermal correction to Enthalpy=                  0.005940
 Thermal correction to Gibbs Free Energy=        -0.018689
 Sum of electronic and zero-point Energies=           -100.770123
 Sum of electronic and thermal Energies=              -100.767268
 Sum of electronic and thermal Enthalpies=            -100.766324
 Sum of electronic and thermal Free Energies=         -100.790952

                     E (Thermal)             CV                S
                      KCal/Mol        Cal/Mol-Kelvin    Cal/Mol-Kelvin
 Total                    3.135              7.603             51.835
 Electronic               0.000              0.000              1.377
 Translational            0.889              2.981             35.068
 Rotational               0.592              1.987             13.913
 Vibrational              1.654              2.635              1.477
 Vibration     1          0.827              1.317              0.738
 Vibration     2          0.827              1.317              0.738

 Normal termination of Gaussian 16 at Fri Aug 22 19:43:42 2025.
