 Gaussian 16, Revision C.01,
 Gaussian 16:  ES64L-G16RevC.01  3-Jul-2019

 -----------------------------------------
 # sp b3lyp/6-311g** Force nosymm scf=(qc)
 -----------------------------------------

 -------------------
 Title Card Required
 -------------------
 Symbolic Z-matrix:
 Charge =  0 Multiplicity = 2

                          Input orientation:
 ---------------------------------------------------------------------
 Center     Atomic      Atomic             Coordinates (Angstroms)
 Number     Number       Type             X           Y           Z
 ---------------------------------------------------------------------
      1          1           0        0.000000    0.000000    0.000000
      2          1           0       -1.500000    0.000000    0.000000
      3          9           0        0.950000    0.000000    0.000000
 ---------------------------------------------------------------------

 SCF Done:  E(UB3LYP) =  -100.970590988     a.u. after    6 cycles

 Alpha  occ. eigenvalues --  -24.63548  -1.17208  -0.53845  -0.38811  -0.38811
 Alpha  occ. eigenvalues --   -0.36950
 Alpha virt. eigenvalues --    0.09257   0.21119   0.36667   0.94258   0.94258
 Alpha virt. eigenvalues --    0.98480   1.15840   1.15840   1.20158   1.41983
 Alpha virt. eigenvalues --    1.41983   1.53091   2.03365   2.28439   2.52235

  Beta  occ. eigenvalues --  -24.63299  -1.16582  -0.52195  -0.38595  -0.38595
  Beta virt. eigenvalues --   -0.15307   0.11419   0.27187   0.40364   0.94448
  Beta virt. eigenvalues --    0.94448   0.99011   1.26750   1.26750   1.28691
  Beta virt. eigenvalues --    1.47359   1.47359   1.56600   2.16622   2.30459

 Mulliken charges and spin densities:
               1          2
     1  H    0.283100   0.002991
     2  H    0.029467   0.934207
     3  F   -0.312566   0.062802
 Sum of Mulliken charges =   0.00000   1.00000

 Dipole moment (field-independent basis, Debye):
    X=             -2.1874    Y=             -0.0000    Z=             -0.0000  Tot=              2.1874
 Quadrupole moment (field-independent basis, Debye-Ang):
   XX=             -7.5607   YY=             -6.7942   ZZ=             -6.7942
   XY=             -0.0000   XZ=             -0.0000   YZ=              0.0000

  Exact polarizability:      11.720       0.000       2.528      -0.000       0.000       2.528
 Approx polarizability:      12.495       0.000       2.527       0.000       0.000       2.527

                      1                      2                      3
                      A                      A                      A
 Frequencies --    478.7408               487.1196               487.1196
 Red. masses --      1.0501                 1.0243                 1.0243
 Frc consts  --      0.1418                 0.1432                 0.1432
 IR Inten    --      0.0110               108.1646               108.1646

                      4
                      A
 Frequencies --   3510.2027
 Red. masses --      1.0615
 Frc consts  --      7.7064
 IR Inten    --    201.3175

 - Thermochemistry -
 -------------------
 Temperature   298.150 Kelvin.  Pressure   1.00000 Atm.
 Atom     1 has atomic number  1 and mass   1.00783

 Molecular mass:    21.01405 amu.
 Principal axes and moments of inertia in atomic units:
                           1         2         3
     Eigenvalues --     0.00000  22.85582  22.85582
           X            1.00000  -0.00000   0.00000
           Y            0.00000   1.00000   0.00000
           Z            0.00000   0.00000   1.00000
 This molecule is a prolate symmetric top.
 Rotational symmetry number  1.
 Rotational temperature (Kelvin)      3.78958
 Rotational constant (GHZ):          78.962004
 Zero-point vibrational energy      29686.4 (Joules/Mol)
                                    7.09523 (Kcal/Mol)
 Warning -- explicit consideration of   3 degrees of freedom as
           vibrations may cause significant error
 Vibrational temperatures:    688.80   700.86   700.86  5050.40
          (Kelvin)

 Zero-point correction=                           0.011307 (Hartree/Particle)
 Thermal correction to Energy=                    0.014375
 Thermal correction to Enthalpy=                  0.015320
 Thermal correction to Gibbs Free Energy=        -0.008058
 Sum of electronic and zero-point Energies=           -100.959284
 Sum of electronic and thermal Energies=              -100.956216
 Sum of electronic and thermal Enthalpies=            -100.955271
 Sum of electronic and thermal Free Energies=         -100.978649

                     E (Thermal)             CV                S
                      KCal/Mol        Cal/Mol-Kelvin    Cal/Mol-Kelvin
 Total                    9.021              8.822             49.203
 Electronic               0.000              0.000              1.377
 Translational            0.889              2.981             35.068
 Rotational               0.592              1.987             10.662
 Vibrational              7.539              3.854              2.096
 Vibration     1          0.835              1.297              0.713
 Vibration     2          0.843              1.279              0.691
 Vibration     3          0.843              1.279              0.691

 Normal termination of Gaussian 16 at Fri Aug 22 15:57:49 2025.
