 Gaussian 16, Revision C.01,
 Gaussian 16:  ES64L-G16RevC.01  3-Jul-2019

 -----------------------------------------
 # sp b3lyp/6-311g** Force nosymm scf=(qc)
 -----------------------------------------

 -------------------
 Title Card Required
 -------------------
 Symbolic Z-matrix:
 Charge =  0 Multiplicity = 2

                          Input orientation:
 ---------------------------------------------------------------------
 Center     Atomic      Atomic             Coordinates (Angstroms)
 Number     Number       Type             X           Y           Z
 ---------------------------------------------------------------------
      1          1           0        0.000000    0.000000    0.000000
      2          1           0       -0.700000    0.000000    0.000000
      3          9           0        2.150000    0.000000    0.000000
 ---------------------------------------------------------------------

 SCF Done:  E(UB3LYP) =  -100.932731372     a.u. after    6 cycles

 Alpha  occ. eigenvalues --  -24.75515  -1.21505  -0.55131  -0.45908  -0.45908
 Alpha  occ. eigenvalues --   -0.45214
 Alpha virt. eigenvalues --    0.07826   0.20066   0.47508   0.90731   0.90831
 Alpha virt. eigenvalues --    0.90831   1.07930   1.07930   1.14745   1.60278
 Alpha virt. eigenvalues --    1.84792   1.84792   1.89047   2.40099   3.55125

  Beta  occ. eigenvalues --  -24.72430  -1.12674  -0.45406  -0.42824  -0.42824
  Beta virt. eigenvalues --   -0.25918   0.08468   0.20546   0.47822   0.92256
  Beta virt. eigenvalues --    0.92256   0.98840   1.08310   1.08310   1.18651
  Beta virt. eigenvalues --    1.61078   1.84978   1.84978   1.89373   2.40538

 Mulliken charges and spin densities:
               1          2
     1  H   -0.008215  -0.016650
     2  H    0.024687   0.044934
     3  F   -0.016472   0.971716
 Sum of Mulliken charges =   0.00000   1.00000

 Dipole moment (field-independent basis, Debye):
    X=             -0.2505    Y=              0.0000    Z=              0.0000  Tot=              0.2505
 Quadrupole moment (field-independent basis, Debye-Ang):
   XX=             -5.7867   YY=             -6.8615   ZZ=             -6.8615
   XY=              0.0000   XZ=              0.0000   YZ=              0.0000

  Exact polarizability:      14.194      -0.000       2.027      -0.000      -0.000       2.027
 Approx polarizability:      15.145       0.000       2.094       0.000       0.000       2.094

 ******    3 imaginary frequencies (negative Signs) ******

                      1                      2                      3
                      A                      A                      A
 Frequencies --  -1292.3189             -1292.3189              -132.0254
 Red. masses --      1.0098                 1.0098                 1.1085
 Frc consts  --      0.9936                 0.9936                 0.0114
 IR Inten    --      0.2475                 0.2475                11.8658

                      4
                      A
 Frequencies --   5047.8644
 Red. masses --      1.0078
 Frc consts  --     15.1305
 IR Inten    --    113.2297

 - Thermochemistry -
 -------------------
 Temperature   298.150 Kelvin.  Pressure   1.00000 Atm.
 Atom     1 has atomic number  1 and mass   1.00783

 Molecular mass:    21.01405 amu.
 Principal axes and moments of inertia in atomic units:
                           1         2         3
     Eigenvalues --     0.00000  41.55419  41.55419
           X            1.00000  -0.00000   0.00000
           Y            0.00000   1.00000   0.00000
           Z            0.00000   0.00000   1.00000
 This molecule is a prolate symmetric top.
 Rotational symmetry number  1.
 Rotational temperature (Kelvin)      2.08436
 Rotational constant (GHZ):          43.431027
    3 imaginary frequencies ignored.
 Zero-point vibrational energy      30192.9 (Joules/Mol)
                                    7.21628 (Kcal/Mol)
 Vibrational temperatures:   7262.75
          (Kelvin)

 Zero-point correction=                           0.011500 (Hartree/Particle)
 Thermal correction to Energy=                    0.013860
 Thermal correction to Enthalpy=                  0.014805
 Thermal correction to Gibbs Free Energy=        -0.008142
 Sum of electronic and zero-point Energies=           -100.921231
 Sum of electronic and thermal Energies=              -100.918871
 Sum of electronic and thermal Enthalpies=            -100.917927
 Sum of electronic and thermal Free Energies=         -100.940874

                     E (Thermal)             CV                S
                      KCal/Mol        Cal/Mol-Kelvin    Cal/Mol-Kelvin
 Total                    8.697              4.968             48.295
 Electronic               0.000              0.000              1.377
 Translational            0.889              2.981             35.068
 Rotational               0.592              1.987             11.850
 Vibrational              7.216              0.000              0.000

 Normal termination of Gaussian 16 at Fri Aug 22 17:06:30 2025.
