 Gaussian 16, Revision C.01,
 Gaussian 16:  ES64L-G16RevC.01  3-Jul-2019

 -----------------------------------------
 # sp b3lyp/6-311g** Force nosymm scf=(qc)
 -----------------------------------------

 -------------------
 Title Card Required
 -------------------
 Symbolic Z-matrix:
 Charge =  0 Multiplicity = 2

                          Input orientation:
 ---------------------------------------------------------------------
 Center     Atomic      Atomic             Coordinates (Angstroms)
 Number     Number       Type             X           Y           Z
 ---------------------------------------------------------------------
      1          1           0        0.000000    0.000000    0.000000
      2          1           0       -2.500000    0.000000    0.000000
      3          9           0        3.900000    0.000000    0.000000
 ---------------------------------------------------------------------

 SCF Done:  E(UB3LYP) =  -100.762543038     a.u. after   46 cycles

 Alpha  occ. eigenvalues --  -24.75863  -1.21792  -0.54988  -0.46171  -0.46171
 Alpha  occ. eigenvalues --   -0.32539
 Alpha virt. eigenvalues --   -0.09207   0.25790   0.34773   0.86674   0.91177
 Alpha virt. eigenvalues --    0.91177   1.01131   1.25113   1.25113   1.26633
 Alpha virt. eigenvalues --    1.41778   1.41778   1.43382   2.15878   2.36776

  Beta  occ. eigenvalues --  -24.72720  -1.12754  -0.43019  -0.43019  -0.32685
  Beta virt. eigenvalues --   -0.25734  -0.08987   0.25629   0.35072   0.92675
  Beta virt. eigenvalues --    0.92675   0.96038   1.05254   1.24952   1.24952
  Beta virt. eigenvalues --    1.26452   1.42096   1.42096   1.43692   2.16003

 Mulliken charges and spin densities:
               1          2
     1  H    0.001978  -0.966149
     2  H    0.001035   0.969584
     3  F   -0.003013   0.996564
 Sum of Mulliken charges =   0.00000   1.00000

 Dipole moment (field-independent basis, Debye):
    X=             -0.0728    Y=              0.0000    Z=             -0.0000  Tot=              0.0728
 Quadrupole moment (field-independent basis, Debye-Ang):
   XX=             -6.7272   YY=             -7.6672   ZZ=             -7.6672
   XY=             -0.0000   XZ=             -0.0000   YZ=              0.0000

  Exact polarizability:      21.244       0.000       2.020       0.000       0.000       2.020
 Approx polarizability:      16.158      -0.000       1.931      -0.000      -0.000       1.931

 ******    2 imaginary frequencies (negative Signs) ******

                      1                      2                      3
                      A                      A                      A
 Frequencies --   -660.2810               -79.8755               244.9421
 Red. masses --      1.0078                 1.1085                 1.0135
 Frc consts  --      0.2589                 0.0042                 0.0358
 IR Inten    --      0.8794                 1.0349                 0.0024

                      4
                      A
 Frequencies --    244.9421
 Red. masses --      1.0135
 Frc consts  --      0.0358
 IR Inten    --      0.0024

 - Thermochemistry -
 -------------------
 Temperature   298.150 Kelvin.  Pressure   1.00000 Atm.
 Atom     1 has atomic number  1 and mass   1.00783

 Molecular mass:    21.01405 amu.
 Principal axes and moments of inertia in atomic units:
                           1         2         3
     Eigenvalues --     0.00000 183.84444 183.84444
           X            1.00000  -0.00000   0.00000
           Y            0.00000   1.00000   0.00000
           Z            0.00000   0.00000   1.00000
 This molecule is a prolate symmetric top.
 Rotational symmetry number  1.
 Rotational temperature (Kelvin)      0.47113
 Rotational constant (GHZ):           9.816675
    2 imaginary frequencies ignored.
 Zero-point vibrational energy       2930.2 (Joules/Mol)
                                    0.70032 (Kcal/Mol)
 Warning -- explicit consideration of   2 degrees of freedom as
           vibrations may cause significant error
 Vibrational temperatures:    352.42   352.42
          (Kelvin)

 Zero-point correction=                           0.001116 (Hartree/Particle)
 Thermal correction to Energy=                    0.004464
 Thermal correction to Enthalpy=                  0.005408
 Thermal correction to Gibbs Free Energy=        -0.020622
 Sum of electronic and zero-point Energies=           -100.761427
 Sum of electronic and thermal Energies=              -100.758079
 Sum of electronic and thermal Enthalpies=            -100.757135
 Sum of electronic and thermal Free Energies=         -100.783165

                     E (Thermal)             CV                S
                      KCal/Mol        Cal/Mol-Kelvin    Cal/Mol-Kelvin
 Total                    2.801              8.510             54.784
 Electronic               0.000              0.000              1.377
 Translational            0.889              2.981             35.068
 Rotational               0.592              1.987             14.805
 Vibrational              1.320              3.542              3.533
 Vibration     1          0.660              1.771              1.767
 Vibration     2          0.660              1.771              1.767

 Normal termination of Gaussian 16 at Sat Aug 23 01:25:20 2025.
