 Gaussian 16, Revision C.01,
 Gaussian 16:  ES64L-G16RevC.01  3-Jul-2019

 -----------------------------------------
 # sp b3lyp/6-311g** Force nosymm scf=(qc)
 -----------------------------------------

 -------------------
 Title Card Required
 -------------------
 Symbolic Z-matrix:
 Charge =  0 Multiplicity = 2

                          Input orientation:
 ---------------------------------------------------------------------
 Center     Atomic      Atomic             Coordinates (Angstroms)
 Number     Number       Type             X           Y           Z
 ---------------------------------------------------------------------
      1          1           0        0.000000    0.000000    0.000000
      2          1           0       -0.950000    0.000000    0.000000
      3          9           0        0.900000    0.000000    0.000000
 ---------------------------------------------------------------------

 SCF Done:  E(UB3LYP) =  -100.948096189     a.u. after    7 cycles

 Alpha  occ. eigenvalues --  -24.65085  -1.21098  -0.60502  -0.40799  -0.40799
 Alpha  occ. eigenvalues --   -0.35481
 Alpha virt. eigenvalues --    0.14565   0.18538   0.52951   0.89460   0.89460
 Alpha virt. eigenvalues --    0.96094   1.08299   1.08299   1.44689   1.64833
 Alpha virt. eigenvalues --    1.64833   1.72933   2.13150   2.32650   3.27740

  Beta  occ. eigenvalues --  -24.64260  -1.18977  -0.55544  -0.40073  -0.40073
  Beta virt. eigenvalues --   -0.16861   0.16179   0.21899   0.58639   0.91232
  Beta virt. eigenvalues --    0.91232   0.97753   1.14065   1.14065   1.46444
  Beta virt. eigenvalues --    1.70045   1.70045   1.82837   2.13734   2.45208

 Mulliken charges and spin densities:
               1          2
     1  H    0.271187  -0.012158
     2  H   -0.003387   0.818308
     3  F   -0.267800   0.193850
 Sum of Mulliken charges =   0.00000   1.00000

 Dipole moment (field-independent basis, Debye):
    X=             -1.7053    Y=              0.0000    Z=             -0.0000  Tot=              1.7053
 Quadrupole moment (field-independent basis, Debye-Ang):
   XX=             -7.5661   YY=             -6.6042   ZZ=             -6.6042
   XY=              0.0000   XZ=             -0.0000   YZ=              0.0000

  Exact polarizability:      12.180      -0.000       2.582       0.000       0.000       2.582
 Approx polarizability:      13.498      -0.000       2.624       0.000       0.000       2.624

 ******    2 imaginary frequencies (negative Signs) ******

                      1                      2                      3
                      A                      A                      A
 Frequencies --  -1453.2618             -1453.2618              1873.8615
 Red. masses --      1.0186                 1.0186                 1.0561
 Frc consts  --      1.2675                 1.2675                 2.1848
 IR Inten    --     72.4468                72.4468                81.7122

                      4
                      A
 Frequencies --   4020.2950
 Red. masses --      1.0555
 Frc consts  --     10.0511
 IR Inten    --     27.2362

 - Thermochemistry -
 -------------------
 Temperature   298.150 Kelvin.  Pressure   1.00000 Atm.
 Atom     1 has atomic number  1 and mass   1.00783

 Molecular mass:    21.01405 amu.
 Principal axes and moments of inertia in atomic units:
                           1         2         3
     Eigenvalues --     0.00000  13.92746  13.92746
           X            1.00000  -0.00000   0.00000
           Y            0.00000   1.00000   0.00000
           Z            0.00000   0.00000   1.00000
 This molecule is a prolate symmetric top.
 Rotational symmetry number  1.
 Rotational temperature (Kelvin)      6.21893
 Rotational constant (GHZ):         129.581467
    2 imaginary frequencies ignored.
 Zero-point vibrational energy      35254.9 (Joules/Mol)
                                    8.42612 (Kcal/Mol)
 Vibrational temperatures:   2696.07  5784.31
          (Kelvin)

 Zero-point correction=                           0.013428 (Hartree/Particle)
 Thermal correction to Energy=                    0.015789
 Thermal correction to Enthalpy=                  0.016734
 Thermal correction to Gibbs Free Energy=        -0.005182
 Sum of electronic and zero-point Energies=           -100.934668
 Sum of electronic and thermal Energies=              -100.932307
 Sum of electronic and thermal Enthalpies=            -100.931363
 Sum of electronic and thermal Free Energies=         -100.953278

                     E (Thermal)             CV                S
                      KCal/Mol        Cal/Mol-Kelvin    Cal/Mol-Kelvin
 Total                    9.908              4.987             46.125
 Electronic               0.000              0.000              1.377
 Translational            0.889              2.981             35.068
 Rotational               0.592              1.987              9.678
 Vibrational              8.427              0.019              0.002

 Normal termination of Gaussian 16 at Fri Aug 22 15:55:05 2025.
