 Gaussian 16, Revision C.01,
 Gaussian 16:  ES64L-G16RevC.01  3-Jul-2019

 -----------------------------------------
 # sp b3lyp/6-311g** Force nosymm scf=(qc)
 -----------------------------------------

 -------------------
 Title Card Required
 -------------------
 Symbolic Z-matrix:
 Charge =  0 Multiplicity = 2

                          Input orientation:
 ---------------------------------------------------------------------
 Center     Atomic      Atomic             Coordinates (Angstroms)
 Number     Number       Type             X           Y           Z
 ---------------------------------------------------------------------
      1          1           0        0.000000    0.000000    0.000000
      2          1           0       -1.950000    0.000000    0.000000
      3          9           0        0.550000    0.000000    0.000000
 ---------------------------------------------------------------------

 SCF Done:  E(UB3LYP) =  -100.518180247     a.u. after    7 cycles

 Alpha  occ. eigenvalues --  -24.62669  -1.38439  -0.62364  -0.43606  -0.43606
 Alpha  occ. eigenvalues --   -0.35058
 Alpha virt. eigenvalues --    0.11651   0.24059   0.56431   0.91218   0.91218
 Alpha virt. eigenvalues --    0.91737   1.22331   1.22331   1.23770   1.54263
 Alpha virt. eigenvalues --    1.54263   1.58705   2.00718   2.20075   3.66016

  Beta  occ. eigenvalues --  -24.62640  -1.38349  -0.62263  -0.43591  -0.43591
  Beta virt. eigenvalues --   -0.09818   0.12979   0.34923   0.58248   0.91208
  Beta virt. eigenvalues --    0.91208   0.91842   1.32827   1.42524   1.42524
  Beta virt. eigenvalues --    1.54451   1.54451   1.66553   2.04564   2.45363

 Mulliken charges and spin densities:
               1          2
     1  H    0.177488   0.011314
     2  H    0.009565   0.986685
     3  F   -0.187053   0.002001
 Sum of Mulliken charges =   0.00000   1.00000

 Dipole moment (field-independent basis, Debye):
    X=             -1.4279    Y=             -0.0000    Z=              0.0000  Tot=              1.4279
 Quadrupole moment (field-independent basis, Debye-Ang):
   XX=             -6.6008   YY=             -6.4629   ZZ=             -6.4629
   XY=             -0.0000   XZ=              0.0000   YZ=             -0.0000

  Exact polarizability:       5.498       0.000       2.470      -0.000       0.000       2.470
 Approx polarizability:       5.290       0.000       2.464      -0.000       0.000       2.464

 ******    2 imaginary frequencies (negative Signs) ******

                      1                      2                      3
                      A                      A                      A
 Frequencies --  -7405.1808             -7405.1808               430.3119
 Red. masses --      1.0372                 1.0372                 1.0533
 Frc consts  --     33.5093                33.5093                 0.1149
 IR Inten    --    217.0561               217.0561                 0.0277

                      4
                      A
 Frequencies --  15777.3451
 Red. masses --      1.0583
 Frc consts  --    155.2091
 IR Inten    --    102.9107

 - Thermochemistry -
 -------------------
 Temperature   298.150 Kelvin.  Pressure   1.00000 Atm.
 Atom     1 has atomic number  1 and mass   1.00783

 Molecular mass:    21.01405 amu.
 Principal axes and moments of inertia in atomic units:
                           1         2         3
     Eigenvalues --     0.00000  21.97683  21.97683
           X            1.00000  -0.00000   0.00000
           Y            0.00000   1.00000   0.00000
           Z            0.00000   0.00000   1.00000
 This molecule is a prolate symmetric top.
 Rotational symmetry number  1.
 Rotational temperature (Kelvin)      3.94115
 Rotational constant (GHZ):          82.120187
    2 imaginary frequencies ignored.
 Zero-point vibrational energy      96943.3 (Joules/Mol)
                                   23.17001 (Kcal/Mol)
 Warning -- explicit consideration of   1 degrees of freedom as
           vibrations may cause significant error
 Vibrational temperatures:    619.12 22700.08
          (Kelvin)

 Zero-point correction=                           0.036924 (Hartree/Particle)
 Thermal correction to Energy=                    0.039565
 Thermal correction to Enthalpy=                  0.040509
 Thermal correction to Gibbs Free Energy=         0.017757
 Sum of electronic and zero-point Energies=           -100.481256
 Sum of electronic and thermal Energies=              -100.478615
 Sum of electronic and thermal Enthalpies=            -100.477671
 Sum of electronic and thermal Free Energies=         -100.500424

                     E (Thermal)             CV                S
                      KCal/Mol        Cal/Mol-Kelvin    Cal/Mol-Kelvin
 Total                   24.828              6.372             47.887
 Electronic               0.000              0.000              1.377
 Translational            0.889              2.981             35.068
 Rotational               0.592              1.987             10.584
 Vibrational             23.346              1.404              0.858
 Vibration     1          0.792              1.404              0.858

 Normal termination of Gaussian 16 at Fri Aug 22 15:39:18 2025.
