 Gaussian 16, Revision C.01,
 Gaussian 16:  ES64L-G16RevC.01  3-Jul-2019

 -----------------------------------------
 # sp b3lyp/6-311g** Force nosymm scf=(qc)
 -----------------------------------------

 -------------------
 Title Card Required
 -------------------
 Symbolic Z-matrix:
 Charge =  0 Multiplicity = 2

                          Input orientation:
 ---------------------------------------------------------------------
 Center     Atomic      Atomic             Coordinates (Angstroms)
 Number     Number       Type             X           Y           Z
 ---------------------------------------------------------------------
      1          1           0        0.000000    0.000000    0.000000
      2          1           0       -2.050000    0.000000    0.000000
      3          9           0        1.200000    0.000000    0.000000
 ---------------------------------------------------------------------

 SCF Done:  E(UB3LYP) =  -100.927604093     a.u. after    6 cycles

 Alpha  occ. eigenvalues --  -24.63794  -1.11904  -0.47812  -0.37079  -0.37079
 Alpha  occ. eigenvalues --   -0.36468
 Alpha virt. eigenvalues --   -0.03288   0.23940   0.28756   0.93610   0.93610
 Alpha virt. eigenvalues --    1.00960   1.13340   1.20837   1.20837   1.35307
 Alpha virt. eigenvalues --    1.35307   1.43390   1.72135   2.12739   2.31526

  Beta  occ. eigenvalues --  -24.63654  -1.11550  -0.47094  -0.36952  -0.36952
  Beta virt. eigenvalues --   -0.14190  -0.00139   0.28538   0.34238   0.93607
  Beta virt. eigenvalues --    0.93607   1.01377   1.21492   1.34503   1.34503
  Beta virt. eigenvalues --    1.40560   1.40560   1.53401   1.72739   2.27045

 Mulliken charges and spin densities:
               1          2
     1  H    0.334787  -0.007325
     2  H    0.024495   0.965579
     3  F   -0.359282   0.041745
 Sum of Mulliken charges =  -0.00000   1.00000

 Dipole moment (field-independent basis, Debye):
    X=             -2.5600    Y=              0.0000    Z=             -0.0000  Tot=              2.5600
 Quadrupole moment (field-independent basis, Debye-Ang):
   XX=             -8.2763   YY=             -7.0937   ZZ=             -7.0937
   XY=              0.0000   XZ=             -0.0000   YZ=             -0.0000

  Exact polarizability:      15.333       0.000       2.375      -0.000       0.000       2.375
 Approx polarizability:      18.973       0.000       2.338       0.000       0.000       2.338

 ******    1 imaginary frequencies (negative Signs) ******

                      1                      2                      3
                      A                      A                      A
 Frequencies --   -386.5915               790.2195              1161.3051
 Red. masses --      1.0250                 1.0885                 1.0255
 Frc consts  --      0.0903                 0.4005                 0.8149
 IR Inten    --     47.5347               160.0522               111.6204

                      4
                      A
 Frequencies --   1161.3051
 Red. masses --      1.0255
 Frc consts  --      0.8149
 IR Inten    --    111.6204

 - Thermochemistry -
 -------------------
 Temperature   298.150 Kelvin.  Pressure   1.00000 Atm.
 Atom     1 has atomic number  1 and mass   1.00783

 Molecular mass:    21.01405 amu.
 Principal axes and moments of inertia in atomic units:
                           1         2         3
     Eigenvalues --     0.00000  39.77905  39.77905
           X            1.00000  -0.00000   0.00000
           Y            0.00000   1.00000   0.00000
           Z            0.00000   0.00000   1.00000
 This molecule is a prolate symmetric top.
 Rotational symmetry number  1.
 Rotational temperature (Kelvin)      2.17738
 Rotational constant (GHZ):          45.369136
    1 imaginary frequencies ignored.
 Zero-point vibrational energy      18618.9 (Joules/Mol)
                                    4.45001 (Kcal/Mol)
 Vibrational temperatures:   1136.95  1670.86  1670.86
          (Kelvin)

 Zero-point correction=                           0.007092 (Hartree/Particle)
 Thermal correction to Energy=                    0.009572
 Thermal correction to Enthalpy=                  0.010517
 Thermal correction to Gibbs Free Energy=        -0.012537
 Sum of electronic and zero-point Energies=           -100.920513
 Sum of electronic and thermal Energies=              -100.918032
 Sum of electronic and thermal Enthalpies=            -100.917088
 Sum of electronic and thermal Free Energies=         -100.940141

                     E (Thermal)             CV                S
                      KCal/Mol        Cal/Mol-Kelvin    Cal/Mol-Kelvin
 Total                    6.007              6.098             48.521
 Electronic               0.000              0.000              1.377
 Translational            0.889              2.981             35.068
 Rotational               0.592              1.987             11.763
 Vibrational              4.526              1.130              0.312

 Normal termination of Gaussian 16 at Fri Aug 22 16:10:11 2025.
