 Gaussian 16, Revision C.01,
 Gaussian 16:  ES64L-G16RevC.01  3-Jul-2019

 -----------------------------------------
 # sp b3lyp/6-311g** Force nosymm scf=(qc)
 -----------------------------------------

 -------------------
 Title Card Required
 -------------------
 Symbolic Z-matrix:
 Charge =  0 Multiplicity = 2

                          Input orientation:
 ---------------------------------------------------------------------
 Center     Atomic      Atomic             Coordinates (Angstroms)
 Number     Number       Type             X           Y           Z
 ---------------------------------------------------------------------
      1          1           0        0.000000    0.000000    0.000000
      2          1           0       -0.950000    0.000000    0.000000
      3          9           0        2.000000    0.000000    0.000000
 ---------------------------------------------------------------------

 SCF Done:  E(UB3LYP) =  -100.917915561     a.u. after    8 cycles

 Alpha  occ. eigenvalues --  -24.73889  -1.20055  -0.53727  -0.44595  -0.44595
 Alpha  occ. eigenvalues --   -0.41581
 Alpha virt. eigenvalues --    0.02111   0.20987   0.39047   0.90769   0.91162
 Alpha virt. eigenvalues --    0.91162   1.07010   1.07010   1.11172   1.52333
 Alpha virt. eigenvalues --    1.67164   1.67164   2.19798   2.35166   2.65772

  Beta  occ. eigenvalues --  -24.70945  -1.11689  -0.41664  -0.41664  -0.41630
  Beta virt. eigenvalues --   -0.25358   0.03241   0.21640   0.39575   0.92481
  Beta virt. eigenvalues --    0.92481   0.98460   1.07921   1.07921   1.14257
  Beta virt. eigenvalues --    1.54395   1.67749   1.67749   2.20897   2.36091

 Mulliken charges and spin densities:
               1          2
     1  H    0.019702  -0.046581
     2  H    0.037972   0.123557
     3  F   -0.057673   0.923024
 Sum of Mulliken charges =   0.00000   1.00000

 Dipole moment (field-independent basis, Debye):
    X=             -0.7267    Y=              0.0000    Z=              0.0000  Tot=              0.7267
 Quadrupole moment (field-independent basis, Debye-Ang):
   XX=             -6.3911   YY=             -7.1472   ZZ=             -7.1472
   XY=              0.0000   XZ=              0.0000   YZ=              0.0000

  Exact polarizability:      27.546       0.000       2.158      -0.000      -0.000       2.158
 Approx polarizability:      34.195      -0.000       2.191      -0.000      -0.000       2.191

 ******    1 imaginary frequencies (negative Signs) ******

                      1                      2                      3
                      A                      A                      A
 Frequencies --   -386.8147              1417.2703              1417.2703
 Red. masses --      1.1075                 1.0114                 1.0114
 Frc consts  --      0.0976                 1.1970                 1.1970
 IR Inten    --     85.7736                 0.0357                 0.0357

                      4
                      A
 Frequencies --   1991.1847
 Red. masses --      1.0086
 Frc consts  --      2.3562
 IR Inten    --    474.4901

 - Thermochemistry -
 -------------------
 Temperature   298.150 Kelvin.  Pressure   1.00000 Atm.
 Atom     1 has atomic number  1 and mass   1.00783

 Molecular mass:    21.01405 amu.
 Principal axes and moments of inertia in atomic units:
                           1         2         3
     Eigenvalues --     0.00000  41.48711  41.48711
           X            1.00000  -0.00000   0.00000
           Y            0.00000   1.00000   0.00000
           Z            0.00000   0.00000   1.00000
 This molecule is a prolate symmetric top.
 Rotational symmetry number  1.
 Rotational temperature (Kelvin)      2.08773
 Rotational constant (GHZ):          43.501257
    1 imaginary frequencies ignored.
 Zero-point vibrational energy      28864.2 (Joules/Mol)
                                    6.89872 (Kcal/Mol)
 Vibrational temperatures:   2039.14  2039.14  2864.87
          (Kelvin)

 Zero-point correction=                           0.010994 (Hartree/Particle)
 Thermal correction to Energy=                    0.013369
 Thermal correction to Enthalpy=                  0.014313
 Thermal correction to Gibbs Free Energy=        -0.008649
 Sum of electronic and zero-point Energies=           -100.906922
 Sum of electronic and thermal Energies=              -100.904547
 Sum of electronic and thermal Enthalpies=            -100.903603
 Sum of electronic and thermal Free Energies=         -100.926564

                     E (Thermal)             CV                S
                      KCal/Mol        Cal/Mol-Kelvin    Cal/Mol-Kelvin
 Total                    8.389              5.180             48.327
 Electronic               0.000              0.000              1.377
 Translational            0.889              2.981             35.068
 Rotational               0.592              1.987             11.847
 Vibrational              6.908              0.212              0.035

 Normal termination of Gaussian 16 at Fri Aug 22 16:55:30 2025.
