 Gaussian 16, Revision C.01,
 Gaussian 16:  ES64L-G16RevC.01  3-Jul-2019

 -----------------------------------------
 # sp b3lyp/6-311g** Force nosymm scf=(qc)
 -----------------------------------------

 -------------------
 Title Card Required
 -------------------
 Symbolic Z-matrix:
 Charge =  0 Multiplicity = 2

                          Input orientation:
 ---------------------------------------------------------------------
 Center     Atomic      Atomic             Coordinates (Angstroms)
 Number     Number       Type             X           Y           Z
 ---------------------------------------------------------------------
      1          1           0        0.000000    0.000000    0.000000
      2          1           0       -3.150000    0.000000    0.000000
      3          9           0        0.700000    0.000000    0.000000
 ---------------------------------------------------------------------

 SCF Done:  E(UB3LYP) =  -100.874831866     a.u. after    6 cycles

 Alpha  occ. eigenvalues --  -24.63190  -1.28219  -0.58583  -0.41753  -0.41753
 Alpha  occ. eigenvalues --   -0.33700
 Alpha virt. eigenvalues --    0.06638   0.25330   0.52384   0.93492   0.93492
 Alpha virt. eigenvalues --    0.95787   1.22988   1.23821   1.23821   1.33517
 Alpha virt. eigenvalues --    1.44073   1.44073   1.98097   2.14912   2.86568

  Beta  occ. eigenvalues --  -24.63188  -1.28215  -0.58580  -0.41752  -0.41752
  Beta virt. eigenvalues --   -0.05783   0.07497   0.39396   0.52506   0.93491
  Beta virt. eigenvalues --    0.93491   0.95779   1.31530   1.44074   1.44074
  Beta virt. eigenvalues --    1.51000   1.51000   1.51511   1.98108   2.44676

 Mulliken charges and spin densities:
               1          2
     1  H    0.261312   0.001038
     2  H    0.001463   0.998063
     3  F   -0.262775   0.000899
 Sum of Mulliken charges =   0.00000   1.00000

 Dipole moment (field-independent basis, Debye):
    X=             -1.6021    Y=             -0.0000    Z=             -0.0000  Tot=              1.6021
 Quadrupole moment (field-independent basis, Debye-Ang):
   XX=             -7.2378   YY=             -6.6626   ZZ=             -6.6626
   XY=             -0.0000   XZ=             -0.0000   YZ=             -0.0000

  Exact polarizability:       4.366      -0.000       2.454      -0.000       0.000       2.454
 Approx polarizability:       4.667       0.000       2.436       0.000       0.000       2.436

 ******    3 imaginary frequencies (negative Signs) ******

                      1                      2                      3
                      A                      A                      A
 Frequencies --  -3552.4567             -3552.4567               -37.2657
 Red. masses --      1.0406                 1.0406                 1.0532
 Frc consts  --      7.7371                 7.7371                 0.0009
 IR Inten    --    211.2568               211.2568                 0.0711

                      4
                      A
 Frequencies --   9073.2079
 Red. masses --      1.0583
 Frc consts  --     51.3318
 IR Inten    --    109.1614

 - Thermochemistry -
 -------------------
 Temperature   298.150 Kelvin.  Pressure   1.00000 Atm.
 Atom     1 has atomic number  1 and mass   1.00783

 Molecular mass:    21.01405 amu.
 Principal axes and moments of inertia in atomic units:
                           1         2         3
     Eigenvalues --     0.00000  51.53642  51.53642
           X            1.00000  -0.00000   0.00000
           Y            0.00000   1.00000   0.00000
           Z            0.00000   0.00000   1.00000
 This molecule is a prolate symmetric top.
 Rotational symmetry number  1.
 Rotational temperature (Kelvin)      1.68064
 Rotational constant (GHZ):          35.018751
    3 imaginary frequencies ignored.
 Zero-point vibrational energy      54269.8 (Joules/Mol)
                                   12.97080 (Kcal/Mol)
 Vibrational temperatures:  13054.32
          (Kelvin)

 Zero-point correction=                           0.020670 (Hartree/Particle)
 Thermal correction to Energy=                    0.023031
 Thermal correction to Enthalpy=                  0.023975
 Thermal correction to Gibbs Free Energy=         0.000825
 Sum of electronic and zero-point Energies=           -100.854162
 Sum of electronic and thermal Energies=              -100.851801
 Sum of electronic and thermal Enthalpies=            -100.850857
 Sum of electronic and thermal Free Energies=         -100.874007

                     E (Thermal)             CV                S
                      KCal/Mol        Cal/Mol-Kelvin    Cal/Mol-Kelvin
 Total                   14.452              4.968             48.723
 Electronic               0.000              0.000              1.377
 Translational            0.889              2.981             35.068
 Rotational               0.592              1.987             12.278
 Vibrational             12.971              0.000              0.000

 Normal termination of Gaussian 16 at Fri Aug 22 15:47:10 2025.
