 Gaussian 16, Revision C.01,
 Gaussian 16:  ES64L-G16RevC.01  3-Jul-2019

 -----------------------------------------
 # sp b3lyp/6-311g** Force nosymm scf=(qc)
 -----------------------------------------

 -------------------
 Title Card Required
 -------------------
 Symbolic Z-matrix:
 Charge =  0 Multiplicity = 2

                          Input orientation:
 ---------------------------------------------------------------------
 Center     Atomic      Atomic             Coordinates (Angstroms)
 Number     Number       Type             X           Y           Z
 ---------------------------------------------------------------------
      1          1           0        0.000000    0.000000    0.000000
      2          1           0       -2.650000    0.000000    0.000000
      3          9           0        3.500000    0.000000    0.000000
 ---------------------------------------------------------------------

 SCF Done:  E(UB3LYP) =  -100.761646726     a.u. after   27 cycles

 Alpha  occ. eigenvalues --  -24.75431  -1.21390  -0.54553  -0.45804  -0.45804
 Alpha  occ. eigenvalues --   -0.32588
 Alpha virt. eigenvalues --   -0.09055   0.25499   0.34781   0.87609   0.91451
 Alpha virt. eigenvalues --    0.91451   1.01791   1.25011   1.25011   1.26486
 Alpha virt. eigenvalues --    1.42201   1.42201   1.43014   2.15963   2.37824

  Beta  occ. eigenvalues --  -24.72315  -1.12437  -0.42681  -0.42681  -0.32938
  Beta virt. eigenvalues --   -0.25516  -0.08537   0.25293   0.35546   0.92941
  Beta virt. eigenvalues --    0.92941   0.96773   1.05827   1.24599   1.24599
  Beta virt. eigenvalues --    1.26002   1.43010   1.43010   1.43824   2.16410

 Mulliken charges and spin densities:
               1          2
     1  H    0.009282  -0.968328
     2  H    0.001600   0.980469
     3  F   -0.010882   0.987859
 Sum of Mulliken charges =  -0.00000   1.00000

 Dipole moment (field-independent basis, Debye):
    X=             -0.2159    Y=             -0.0000    Z=              0.0000  Tot=              0.2159
 Quadrupole moment (field-independent basis, Debye-Ang):
   XX=             -7.1894   YY=             -7.6531   ZZ=             -7.6531
   XY=             -0.0000   XZ=              0.0000   YZ=              0.0000

  Exact polarizability:      30.426      -0.000       2.027       0.000       0.000       2.027
 Approx polarizability:      23.075      -0.000       1.929       0.000      -0.000       1.929

 ******    2 imaginary frequencies (negative Signs) ******

                      1                      2                      3
                      A                      A                      A
 Frequencies --   -547.1452              -138.1064               196.9392
 Red. masses --      1.0083                 1.1079                 1.0149
 Frc consts  --      0.1779                 0.0125                 0.0232
 IR Inten    --      6.2331                 5.6583                 0.0627

                      4
                      A
 Frequencies --    196.9392
 Red. masses --      1.0149
 Frc consts  --      0.0232
 IR Inten    --      0.0627

 - Thermochemistry -
 -------------------
 Temperature   298.150 Kelvin.  Pressure   1.00000 Atm.
 Atom     1 has atomic number  1 and mass   1.00783

 Molecular mass:    21.01405 amu.
 Principal axes and moments of inertia in atomic units:
                           1         2         3
     Eigenvalues --     0.00000 164.13777 164.13777
           X            1.00000  -0.00000   0.00000
           Y            0.00000   1.00000   0.00000
           Z            0.00000   0.00000   1.00000
 This molecule is a prolate symmetric top.
 Rotational symmetry number  1.
 Rotational temperature (Kelvin)      0.52769
 Rotational constant (GHZ):          10.995283
    2 imaginary frequencies ignored.
 Zero-point vibrational energy       2355.9 (Joules/Mol)
                                    0.56308 (Kcal/Mol)
 Warning -- explicit consideration of   2 degrees of freedom as
           vibrations may cause significant error
 Vibrational temperatures:    283.35   283.35
          (Kelvin)

 Zero-point correction=                           0.000897 (Hartree/Particle)
 Thermal correction to Energy=                    0.004389
 Thermal correction to Enthalpy=                  0.005333
 Thermal correction to Gibbs Free Energy=        -0.020965
 Sum of electronic and zero-point Energies=           -100.760749
 Sum of electronic and thermal Energies=              -100.757258
 Sum of electronic and thermal Enthalpies=            -100.756314
 Sum of electronic and thermal Free Energies=         -100.782611

                     E (Thermal)             CV                S
                      KCal/Mol        Cal/Mol-Kelvin    Cal/Mol-Kelvin
 Total                    2.754              8.656             55.348
 Electronic               0.000              0.000              1.377
 Translational            0.889              2.981             35.068
 Rotational               0.592              1.987             14.580
 Vibrational              1.273              3.688              4.323
 Vibration     1          0.636              1.844              2.162
 Vibration     2          0.636              1.844              2.162

 Normal termination of Gaussian 16 at Fri Aug 22 22:10:01 2025.
