 Gaussian 16, Revision C.01,
 Gaussian 16:  ES64L-G16RevC.01  3-Jul-2019

 -----------------------------------------
 # sp b3lyp/6-311g** Force nosymm scf=(qc)
 -----------------------------------------

 -------------------
 Title Card Required
 -------------------
 Symbolic Z-matrix:
 Charge =  0 Multiplicity = 2

                          Input orientation:
 ---------------------------------------------------------------------
 Center     Atomic      Atomic             Coordinates (Angstroms)
 Number     Number       Type             X           Y           Z
 ---------------------------------------------------------------------
      1          1           0        0.000000    0.000000    0.000000
      2          1           0       -1.400000    0.000000    0.000000
      3          9           0        1.000000    0.000000    0.000000
 ---------------------------------------------------------------------

 SCF Done:  E(UB3LYP) =  -100.966643097     a.u. after    6 cycles

 Alpha  occ. eigenvalues --  -24.63586  -1.15909  -0.53478  -0.38399  -0.38399
 Alpha  occ. eigenvalues --   -0.37157
 Alpha virt. eigenvalues --    0.08827   0.20407   0.35419   0.93801   0.93801
 Alpha virt. eigenvalues --    0.98821   1.13617   1.13617   1.21711   1.44303
 Alpha virt. eigenvalues --    1.44303   1.53761   2.05909   2.30755   2.53206

  Beta  occ. eigenvalues --  -24.63214  -1.14977  -0.51008  -0.38071  -0.38071
  Beta virt. eigenvalues --   -0.16676   0.11168   0.25451   0.39506   0.94142
  Beta virt. eigenvalues --    0.94142   0.99614   1.23192   1.23192   1.29632
  Beta virt. eigenvalues --    1.49602   1.49602   1.56901   2.19636   2.31385

 Mulliken charges and spin densities:
               1          2
     1  H    0.289513  -0.005566
     2  H    0.035532   0.907734
     3  F   -0.325045   0.097832
 Sum of Mulliken charges =   0.00000   1.00000

 Dipole moment (field-independent basis, Debye):
    X=             -2.2812    Y=              0.0000    Z=              0.0000  Tot=              2.2812
 Quadrupole moment (field-independent basis, Debye-Ang):
   XX=             -7.6499   YY=             -6.8116   ZZ=             -6.8116
   XY=              0.0000   XZ=              0.0000   YZ=              0.0000

  Exact polarizability:      13.497       0.000       2.531      -0.000       0.000       2.531
 Approx polarizability:      14.906       0.000       2.531      -0.000       0.000       2.531

                      1                      2                      3
                      A                      A                      A
 Frequencies --    398.4856               806.7382               806.7382
 Red. masses --      1.0438                 1.0225                 1.0225
 Frc consts  --      0.0977                 0.3921                 0.3921
 IR Inten    --      0.2733                92.1063                92.1063

                      4
                      A
 Frequencies --   2707.2766
 Red. masses --      1.0680
 Frc consts  --      4.6120
 IR Inten    --    165.8591

 - Thermochemistry -
 -------------------
 Temperature   298.150 Kelvin.  Pressure   1.00000 Atm.
 Atom     1 has atomic number  1 and mass   1.00783

 Molecular mass:    21.01405 amu.
 Principal axes and moments of inertia in atomic units:
                           1         2         3
     Eigenvalues --     0.00000  22.33396  22.33396
           X            1.00000  -0.00000   0.00000
           Y            0.00000   1.00000   0.00000
           Z            0.00000   0.00000   1.00000
 This molecule is a prolate symmetric top.
 Rotational symmetry number  1.
 Rotational temperature (Kelvin)      3.87813
 Rotational constant (GHZ):          80.807034
 Zero-point vibrational energy      28227.3 (Joules/Mol)
                                    6.74649 (Kcal/Mol)
 Warning -- explicit consideration of   1 degrees of freedom as
           vibrations may cause significant error
 Vibrational temperatures:    573.33  1160.72  1160.72  3895.17
          (Kelvin)

 Zero-point correction=                           0.010751 (Hartree/Particle)
 Thermal correction to Energy=                    0.013575
 Thermal correction to Enthalpy=                  0.014520
 Thermal correction to Gibbs Free Energy=        -0.008493
 Sum of electronic and zero-point Energies=           -100.955892
 Sum of electronic and thermal Energies=              -100.953068
 Sum of electronic and thermal Enthalpies=            -100.952123
 Sum of electronic and thermal Free Energies=         -100.975136

                     E (Thermal)             CV                S
                      KCal/Mol        Cal/Mol-Kelvin    Cal/Mol-Kelvin
 Total                    8.519              7.722             48.434
 Electronic               0.000              0.000              1.377
 Translational            0.889              2.981             35.068
 Rotational               0.592              1.987             10.616
 Vibrational              7.038              2.753              1.372
 Vibration     1          0.765              1.473              0.968

 Normal termination of Gaussian 16 at Fri Aug 22 16:00:08 2025.
