 Gaussian 16, Revision C.01,
 Gaussian 16:  ES64L-G16RevC.01  3-Jul-2019

 -----------------------------------------
 # sp b3lyp/6-311g** Force nosymm scf=(qc)
 -----------------------------------------

 -------------------
 Title Card Required
 -------------------
 Symbolic Z-matrix:
 Charge =  0 Multiplicity = 2

                          Input orientation:
 ---------------------------------------------------------------------
 Center     Atomic      Atomic             Coordinates (Angstroms)
 Number     Number       Type             X           Y           Z
 ---------------------------------------------------------------------
      1          1           0        0.000000    0.000000    0.000000
      2          1           0       -1.050000    0.000000    0.000000
      3          9           0        0.900000    0.000000    0.000000
 ---------------------------------------------------------------------

 SCF Done:  E(UB3LYP) =  -100.956325027     a.u. after    7 cycles

 Alpha  occ. eigenvalues --  -24.64552  -1.20379  -0.58936  -0.40309  -0.40309
 Alpha  occ. eigenvalues --   -0.36008
 Alpha virt. eigenvalues --    0.14044   0.18885   0.48984   0.90769   0.90769
 Alpha virt. eigenvalues --    0.96606   1.08524   1.08524   1.42911   1.59526
 Alpha virt. eigenvalues --    1.59526   1.67029   2.12609   2.32007   3.10213

  Beta  occ. eigenvalues --  -24.63892  -1.18686  -0.54764  -0.39732  -0.39732
  Beta virt. eigenvalues --   -0.16819   0.15621   0.22806   0.54547   0.92215
  Beta virt. eigenvalues --    0.92215   0.97934   1.15086   1.15086   1.45206
  Beta virt. eigenvalues --    1.64930   1.64930   1.76327   2.13878   2.45999

 Mulliken charges and spin densities:
               1          2
     1  H    0.271253  -0.008245
     2  H    0.009514   0.852457
     3  F   -0.280767   0.155787
 Sum of Mulliken charges =   0.00000   1.00000

 Dipole moment (field-independent basis, Debye):
    X=             -1.8274    Y=              0.0000    Z=             -0.0000  Tot=              1.8274
 Quadrupole moment (field-independent basis, Debye-Ang):
   XX=             -7.5644   YY=             -6.6396   ZZ=             -6.6396
   XY=             -0.0000   XZ=             -0.0000   YZ=             -0.0000

  Exact polarizability:      12.082       0.000       2.585       0.000       0.000       2.585
 Approx polarizability:      13.188       0.000       2.617      -0.000       0.000       2.617

 ******    2 imaginary frequencies (negative Signs) ******

                      1                      2                      3
                      A                      A                      A
 Frequencies --  -1207.5820             -1207.5820              1463.4196
 Red. masses --      1.0199                 1.0199                 1.0513
 Frc consts  --      0.8763                 0.8763                 1.3266
 IR Inten    --     80.7041                80.7041                50.8028

                      4
                      A
 Frequencies --   4044.4794
 Red. masses --      1.0602
 Frc consts  --     10.2184
 IR Inten    --     59.8569

 - Thermochemistry -
 -------------------
 Temperature   298.150 Kelvin.  Pressure   1.00000 Atm.
 Atom     1 has atomic number  1 and mass   1.00783

 Molecular mass:    21.01405 amu.
 Principal axes and moments of inertia in atomic units:
                           1         2         3
     Eigenvalues --     0.00000  15.19843  15.19843
           X            1.00000  -0.00000   0.00000
           Y            0.00000   1.00000   0.00000
           Z            0.00000   0.00000   1.00000
 This molecule is a prolate symmetric top.
 Rotational symmetry number  1.
 Rotational temperature (Kelvin)      5.69887
 Rotational constant (GHZ):         118.745261
    2 imaginary frequencies ignored.
 Zero-point vibrational energy      32944.6 (Joules/Mol)
                                    7.87394 (Kcal/Mol)
 Vibrational temperatures:   2105.53  5819.10
          (Kelvin)

 Zero-point correction=                           0.012548 (Hartree/Particle)
 Thermal correction to Energy=                    0.014914
 Thermal correction to Enthalpy=                  0.015858
 Thermal correction to Gibbs Free Energy=        -0.006145
 Sum of electronic and zero-point Energies=           -100.943777
 Sum of electronic and thermal Energies=              -100.941411
 Sum of electronic and thermal Enthalpies=            -100.940467
 Sum of electronic and thermal Free Energies=         -100.962470

                     E (Thermal)             CV                S
                      KCal/Mol        Cal/Mol-Kelvin    Cal/Mol-Kelvin
 Total                    9.359              5.053             46.310
 Electronic               0.000              0.000              1.377
 Translational            0.889              2.981             35.068
 Rotational               0.592              1.987              9.851
 Vibrational              7.878              0.085              0.014

 Normal termination of Gaussian 16 at Fri Aug 22 15:55:10 2025.
