 Gaussian 16, Revision C.01,
 Gaussian 16:  ES64L-G16RevC.01  3-Jul-2019

 -----------------------------------------
 # sp b3lyp/6-311g** Force nosymm scf=(qc)
 -----------------------------------------

 -------------------
 Title Card Required
 -------------------
 Symbolic Z-matrix:
 Charge =  0 Multiplicity = 2

                          Input orientation:
 ---------------------------------------------------------------------
 Center     Atomic      Atomic             Coordinates (Angstroms)
 Number     Number       Type             X           Y           Z
 ---------------------------------------------------------------------
      1          1           0        0.000000    0.000000    0.000000
      2          1           0       -2.950000    0.000000    0.000000
      3          9           0        1.900000    0.000000    0.000000
 ---------------------------------------------------------------------

 SCF Done:  E(UB3LYP) =  -100.795749053     a.u. after   14 cycles

 Alpha  occ. eigenvalues --  -24.67383  -1.13663  -0.46295  -0.39030  -0.39030
 Alpha  occ. eigenvalues --   -0.34195
 Alpha virt. eigenvalues --   -0.14323   0.22768   0.30693   0.90716   0.94911
 Alpha virt. eigenvalues --    0.94911   1.05966   1.23355   1.23355   1.24197
 Alpha virt. eigenvalues --    1.34444   1.34444   1.65344   2.14116   2.28052

  Beta  occ. eigenvalues --  -24.65206  -1.07616  -0.38536  -0.36894  -0.36894
  Beta virt. eigenvalues --   -0.20073  -0.08369   0.23256   0.36567   0.91869
  Beta virt. eigenvalues --    0.95248   0.95248   1.08299   1.22768   1.22768
  Beta virt. eigenvalues --    1.43672   1.44003   1.44003   1.59796   2.12874

 Mulliken charges and spin densities:
               1          2
     1  H    0.216319  -0.674947
     2  H    0.006980   0.990217
     3  F   -0.223299   0.684731
 Sum of Mulliken charges =   0.00000   1.00000

 Dipole moment (field-independent basis, Debye):
    X=             -2.1816    Y=              0.0000    Z=              0.0000  Tot=              2.1816
 Quadrupole moment (field-independent basis, Debye-Ang):
   XX=             -9.8591   YY=             -7.4775   ZZ=             -7.4775
   XY=             -0.0000   XZ=             -0.0000   YZ=              0.0000

  Exact polarizability:      28.841      -0.000       2.077      -0.000       0.000       2.077
 Approx polarizability:      39.608      -0.000       1.965      -0.000      -0.000       1.965

 ******    2 imaginary frequencies (negative Signs) ******

                      1                      2                      3
                      A                      A                      A
 Frequencies --  -1321.3121              -229.8829               559.3001
 Red. masses --      1.0547                 1.0569                 1.0240
 Frc consts  --      1.0849                 0.0329                 0.1887
 IR Inten    --    118.8572                 2.8620                41.6746

                      4
                      A
 Frequencies --    559.3001
 Red. masses --      1.0240
 Frc consts  --      0.1887
 IR Inten    --     41.6746

 - Thermochemistry -
 -------------------
 Temperature   298.150 Kelvin.  Pressure   1.00000 Atm.
 Atom     1 has atomic number  1 and mass   1.00783

 Molecular mass:    21.01405 amu.
 Principal axes and moments of inertia in atomic units:
                           1         2         3
     Eigenvalues --     0.00000  89.78570  89.78570
           X            1.00000  -0.00000   0.00000
           Y            0.00000   1.00000   0.00000
           Z            0.00000   0.00000   1.00000
 This molecule is a prolate symmetric top.
 Rotational symmetry number  1.
 Rotational temperature (Kelvin)      0.96467
 Rotational constant (GHZ):          20.100542
    2 imaginary frequencies ignored.
 Zero-point vibrational energy       6690.7 (Joules/Mol)
                                    1.59912 (Kcal/Mol)
 Warning -- explicit consideration of   2 degrees of freedom as
           vibrations may cause significant error
 Vibrational temperatures:    804.71   804.71
          (Kelvin)

 Zero-point correction=                           0.002548 (Hartree/Particle)
 Thermal correction to Energy=                    0.005276
 Thermal correction to Enthalpy=                  0.006221
 Thermal correction to Gibbs Free Energy=        -0.017953
 Sum of electronic and zero-point Energies=           -100.793201
 Sum of electronic and thermal Energies=              -100.790473
 Sum of electronic and thermal Enthalpies=            -100.789528
 Sum of electronic and thermal Free Energies=         -100.813702

                     E (Thermal)             CV                S
                      KCal/Mol        Cal/Mol-Kelvin    Cal/Mol-Kelvin
 Total                    3.311              7.207             50.877
 Electronic               0.000              0.000              1.377
 Translational            0.889              2.981             35.068
 Rotational               0.592              1.987             13.381
 Vibrational              1.830              2.239              1.050
 Vibration     1          0.915              1.119              0.525
 Vibration     2          0.915              1.119              0.525

 Normal termination of Gaussian 16 at Fri Aug 22 16:50:50 2025.
