 Gaussian 16, Revision C.01,
 Gaussian 16:  ES64L-G16RevC.01  3-Jul-2019

 -----------------------------------------
 # sp b3lyp/6-311g** Force nosymm scf=(qc)
 -----------------------------------------

 -------------------
 Title Card Required
 -------------------
 Symbolic Z-matrix:
 Charge =  0 Multiplicity = 2

                          Input orientation:
 ---------------------------------------------------------------------
 Center     Atomic      Atomic             Coordinates (Angstroms)
 Number     Number       Type             X           Y           Z
 ---------------------------------------------------------------------
      1          1           0        0.000000    0.000000    0.000000
      2          1           0       -4.000000    0.000000    0.000000
      3          9           0        1.150000    0.000000    0.000000
 ---------------------------------------------------------------------

 SCF Done:  E(UB3LYP) =  -100.937319344     a.u. after    6 cycles

 Alpha  occ. eigenvalues --  -24.64340  -1.13014  -0.48664  -0.37810  -0.37810
 Alpha  occ. eigenvalues --   -0.33445
 Alpha virt. eigenvalues --   -0.04147   0.22567   0.29816   0.93341   0.93341
 Alpha virt. eigenvalues --    1.00182   1.24012   1.24061   1.24061   1.27413
 Alpha virt. eigenvalues --    1.34916   1.34916   1.75338   2.13541   2.30101

  Beta  occ. eigenvalues --  -24.64339  -1.13011  -0.48661  -0.37809  -0.37809
  Beta virt. eigenvalues --   -0.05808  -0.03500   0.27886   0.39171   0.93341
  Beta virt. eigenvalues --    0.93341   1.00185   1.27412   1.34914   1.34914
  Beta virt. eigenvalues --    1.49426   1.49426   1.49697   1.75357   2.29462

 Mulliken charges and spin densities:
               1          2
     1  H    0.348224   0.000073
     2  H    0.000381   0.999592
     3  F   -0.348605   0.000335
 Sum of Mulliken charges =   0.00000   1.00000

 Dipole moment (field-independent basis, Debye):
    X=             -2.2214    Y=             -0.0000    Z=              0.0000  Tot=              2.2214
 Quadrupole moment (field-independent basis, Debye-Ang):
   XX=             -8.7628   YY=             -7.0890   ZZ=             -7.0890
   XY=             -0.0000   XZ=              0.0000   YZ=              0.0000

  Exact polarizability:       8.320       0.000       2.342      -0.000       0.000       2.342
 Approx polarizability:      11.517      -0.000       2.301       0.000      -0.000       2.301

 ******    1 imaginary frequencies (negative Signs) ******

                      1                      2                      3
                      A                      A                      A
 Frequencies --    -30.7395              1213.4881              1213.4881
 Red. masses --      1.0532                 1.0369                 1.0369
 Frc consts  --      0.0006                 0.8996                 0.8996
 IR Inten    --      0.0157               154.2676               154.2676

                      4
                      A
 Frequencies --   1468.6448
 Red. masses --      1.0584
 Frc consts  --      1.3450
 IR Inten    --     68.5621

 - Thermochemistry -
 -------------------
 Temperature   298.150 Kelvin.  Pressure   1.00000 Atm.
 Atom     1 has atomic number  1 and mass   1.00783

 Molecular mass:    21.01405 amu.
 Principal axes and moments of inertia in atomic units:
                           1         2         3
     Eigenvalues --     0.00000  93.36362  93.36362
           X            1.00000  -0.00000   0.00000
           Y            0.00000   1.00000   0.00000
           Z            0.00000   0.00000   1.00000
 This molecule is a prolate symmetric top.
 Rotational symmetry number  1.
 Rotational temperature (Kelvin)      0.92771
 Rotational constant (GHZ):          19.330239
    1 imaginary frequencies ignored.
 Zero-point vibrational energy      23301.0 (Joules/Mol)
                                    5.56907 (Kcal/Mol)
 Vibrational temperatures:   1745.94  1745.94  2113.05
          (Kelvin)

 Zero-point correction=                           0.008875 (Hartree/Particle)
 Thermal correction to Energy=                    0.011273
 Thermal correction to Enthalpy=                  0.012217
 Thermal correction to Gibbs Free Energy=        -0.011538
 Sum of electronic and zero-point Energies=           -100.928444
 Sum of electronic and thermal Energies=              -100.926047
 Sum of electronic and thermal Enthalpies=            -100.925102
 Sum of electronic and thermal Free Energies=         -100.948857

                     E (Thermal)             CV                S
                      KCal/Mol        Cal/Mol-Kelvin    Cal/Mol-Kelvin
 Total                    7.074              5.444             49.996
 Electronic               0.000              0.000              1.377
 Translational            0.889              2.981             35.068
 Rotational               0.592              1.987             13.459
 Vibrational              5.593              0.476              0.092

 Normal termination of Gaussian 16 at Fri Aug 22 16:09:02 2025.
