 Gaussian 16, Revision C.01,
 Gaussian 16:  ES64L-G16RevC.01  3-Jul-2019

 -----------------------------------------
 # sp b3lyp/6-311g** Force nosymm scf=(qc)
 -----------------------------------------

 -------------------
 Title Card Required
 -------------------
 Symbolic Z-matrix:
 Charge =  0 Multiplicity = 2

                          Input orientation:
 ---------------------------------------------------------------------
 Center     Atomic      Atomic             Coordinates (Angstroms)
 Number     Number       Type             X           Y           Z
 ---------------------------------------------------------------------
      1          1           0        0.000000    0.000000    0.000000
      2          1           0       -0.650000    0.000000    0.000000
      3          9           0        2.350000    0.000000    0.000000
 ---------------------------------------------------------------------

 SCF Done:  E(UB3LYP) =  -100.926793543     a.u. after   58 cycles

 Alpha  occ. eigenvalues --  -24.76984  -1.22770  -0.55933  -0.47946  -0.47080
 Alpha  occ. eigenvalues --   -0.44162
 Alpha virt. eigenvalues --    0.09216   0.20295   0.51177   0.85478   0.90323
 Alpha virt. eigenvalues --    0.93533   1.10015   1.10057   1.13869   1.60646
 Alpha virt. eigenvalues --    1.85496   1.89809   1.89842   2.40773   3.64255

  Beta  occ. eigenvalues --  -24.73819  -1.13676  -0.46068  -0.43906  -0.42863
  Beta virt. eigenvalues --   -0.26542   0.09335   0.20379   0.51271   0.91811
  Beta virt. eigenvalues --    0.94875   0.95370   1.10060   1.10062   1.17440
  Beta virt. eigenvalues --    1.60682   1.85502   1.89813   1.89840   2.40795

 Mulliken charges and spin densities:
               1          2
     1  H   -0.009240  -0.002284
     2  H   -0.008237  -0.000413
     3  F    0.017477   1.002697
 Sum of Mulliken charges =   0.00000   1.00000

 Dipole moment (field-independent basis, Debye):
    X=              0.1749    Y=              0.0000    Z=             -0.0000  Tot=              0.1749
 Quadrupole moment (field-independent basis, Debye-Ang):
   XX=             -6.0087   YY=             -6.3913   ZZ=             -6.3908
   XY=              0.0000   XZ=             -0.0000   YZ=             -0.4315

  Exact polarizability:       7.647       0.000       2.168      -0.000      -0.213       2.168
 Approx polarizability:       8.304       0.000       2.314      -0.000      -0.274       2.314

 ******    2 imaginary frequencies (negative Signs) ******

                      1                      2                      3
                      A                      A                      A
 Frequencies --  -1959.5285             -1933.1990               284.0565
 Red. masses --      1.0093                 1.0093                 1.1085
 Frc consts  --      2.2834                 2.2224                 0.0527
 IR Inten    --      0.0134                 0.0634                 0.8514

                      4
                      A
 Frequencies --   5977.7994
 Red. masses --      1.0078
 Frc consts  --     21.2187
 IR Inten    --      5.7164

 - Thermochemistry -
 -------------------
 Temperature   298.150 Kelvin.  Pressure   1.00000 Atm.
 Atom     1 has atomic number  1 and mass   1.00783

 Molecular mass:    21.01405 amu.
 Principal axes and moments of inertia in atomic units:
                           1         2         3
     Eigenvalues --     0.00000  47.32616  47.32616
           X            1.00000  -0.00000   0.00000
           Y            0.00000   1.00000   0.00000
           Z            0.00000   0.00000   1.00000
 This molecule is a prolate symmetric top.
 Rotational symmetry number  1.
 Rotational temperature (Kelvin)      1.83015
 Rotational constant (GHZ):          38.134114
    2 imaginary frequencies ignored.
 Zero-point vibrational energy      37454.2 (Joules/Mol)
                                    8.95177 (Kcal/Mol)
 Warning -- explicit consideration of   1 degrees of freedom as
           vibrations may cause significant error
 Vibrational temperatures:    408.69  8600.72
          (Kelvin)

 Zero-point correction=                           0.014266 (Hartree/Particle)
 Thermal correction to Energy=                    0.017066
 Thermal correction to Enthalpy=                  0.018011
 Thermal correction to Gibbs Free Energy=        -0.005776
 Sum of electronic and zero-point Energies=           -100.912528
 Sum of electronic and thermal Energies=              -100.909727
 Sum of electronic and thermal Enthalpies=            -100.908783
 Sum of electronic and thermal Free Energies=         -100.932569

                     E (Thermal)             CV                S
                      KCal/Mol        Cal/Mol-Kelvin    Cal/Mol-Kelvin
 Total                   10.709              6.671             50.063
 Electronic               0.000              0.000              1.377
 Translational            0.889              2.981             35.068
 Rotational               0.592              1.987             12.108
 Vibrational              9.228              1.703              1.509
 Vibration     1          0.682              1.703              1.509

 Normal termination of Gaussian 16 at Fri Aug 22 17:24:48 2025.
