 Gaussian 16, Revision C.01,
 Gaussian 16:  ES64L-G16RevC.01  3-Jul-2019

 -----------------------------------------
 # sp b3lyp/6-311g** Force nosymm scf=(qc)
 -----------------------------------------

 -------------------
 Title Card Required
 -------------------
 Symbolic Z-matrix:
 Charge =  0 Multiplicity = 2

                          Input orientation:
 ---------------------------------------------------------------------
 Center     Atomic      Atomic             Coordinates (Angstroms)
 Number     Number       Type             X           Y           Z
 ---------------------------------------------------------------------
      1          1           0        0.000000    0.000000    0.000000
      2          1           0       -2.650000    0.000000    0.000000
      3          9           0        1.500000    0.000000    0.000000
 ---------------------------------------------------------------------

 SCF Done:  E(UB3LYP) =  -100.855675781     a.u. after    8 cycles

 Alpha  occ. eigenvalues --  -24.64169  -1.09704  -0.43340  -0.36290  -0.36290
 Alpha  occ. eigenvalues --   -0.35336
 Alpha virt. eigenvalues --   -0.13765   0.22473   0.26945   0.93750   0.93750
 Alpha virt. eigenvalues --    1.03486   1.10509   1.22162   1.22162   1.23923
 Alpha virt. eigenvalues --    1.31832   1.31832   1.74300   2.13283   2.20014

  Beta  occ. eigenvalues --  -24.63948  -1.09121  -0.42739  -0.36080  -0.36080
  Beta virt. eigenvalues --   -0.15650  -0.07782   0.24821   0.36061   0.93668
  Beta virt. eigenvalues --    0.93668   1.04032   1.10719   1.30839   1.30839
  Beta virt. eigenvalues --    1.43137   1.43137   1.43592   1.74143   2.18492

 Mulliken charges and spin densities:
               1          2
     1  H    0.338517  -0.053878
     2  H    0.013840   0.984321
     3  F   -0.352357   0.069557
 Sum of Mulliken charges =  -0.00000   1.00000

 Dipole moment (field-independent basis, Debye):
    X=             -2.7712    Y=              0.0000    Z=              0.0000  Tot=              2.7712
 Quadrupole moment (field-independent basis, Debye-Ang):
   XX=             -9.4710   YY=             -7.3248   ZZ=             -7.3248
   XY=              0.0000   XZ=              0.0000   YZ=             -0.0000

  Exact polarizability:      20.622      -0.000       2.198       0.000       0.000       2.198
 Approx polarizability:      33.518      -0.000       2.126      -0.000       0.000       2.126

 ******    2 imaginary frequencies (negative Signs) ******

                      1                      2                      3
                      A                      A                      A
 Frequencies --  -1314.0407              -216.1841               997.2333
 Red. masses --      1.0508                 1.0608                 1.0261
 Frc consts  --      1.0690                 0.0292                 0.6012
 IR Inten    --     84.5247                 2.2017               102.9974

                      4
                      A
 Frequencies --    997.2333
 Red. masses --      1.0261
 Frc consts  --      0.6012
 IR Inten    --    102.9974

 - Thermochemistry -
 -------------------
 Temperature   298.150 Kelvin.  Pressure   1.00000 Atm.
 Atom     1 has atomic number  1 and mass   1.00783

 Molecular mass:    21.01405 amu.
 Principal axes and moments of inertia in atomic units:
                           1         2         3
     Eigenvalues --     0.00000  64.57165  64.57165
           X            1.00000  -0.00000   0.00000
           Y            0.00000   1.00000   0.00000
           Z            0.00000   0.00000   1.00000
 This molecule is a prolate symmetric top.
 Rotational symmetry number  1.
 Rotational temperature (Kelvin)      1.34136
 Rotational constant (GHZ):          27.949436
    2 imaginary frequencies ignored.
 Zero-point vibrational energy      11929.6 (Joules/Mol)
                                    2.85123 (Kcal/Mol)
 Vibrational temperatures:   1434.80  1434.80
          (Kelvin)

 Zero-point correction=                           0.004544 (Hartree/Particle)
 Thermal correction to Energy=                    0.006979
 Thermal correction to Enthalpy=                  0.007923
 Thermal correction to Gibbs Free Energy=        -0.015530
 Sum of electronic and zero-point Energies=           -100.851132
 Sum of electronic and thermal Energies=              -100.848697
 Sum of electronic and thermal Enthalpies=            -100.847753
 Sum of electronic and thermal Free Energies=         -100.871206

                     E (Thermal)             CV                S
                      KCal/Mol        Cal/Mol-Kelvin    Cal/Mol-Kelvin
 Total                    4.379              5.729             49.361
 Electronic               0.000              0.000              1.377
 Translational            0.889              2.981             35.068
 Rotational               0.592              1.987             12.726
 Vibrational              2.898              0.761              0.189

 Normal termination of Gaussian 16 at Fri Aug 22 16:26:02 2025.
