 Gaussian 16, Revision C.01,
 Gaussian 16:  ES64L-G16RevC.01  3-Jul-2019

 -----------------------------------------
 # sp b3lyp/6-311g** Force nosymm scf=(qc)
 -----------------------------------------

 -------------------
 Title Card Required
 -------------------
 Symbolic Z-matrix:
 Charge =  0 Multiplicity = 2

                          Input orientation:
 ---------------------------------------------------------------------
 Center     Atomic      Atomic             Coordinates (Angstroms)
 Number     Number       Type             X           Y           Z
 ---------------------------------------------------------------------
      1          1           0        0.000000    0.000000    0.000000
      2          1           0       -3.650000    0.000000    0.000000
      3          9           0        2.000000    0.000000    0.000000
 ---------------------------------------------------------------------

 SCF Done:  E(UB3LYP) =  -100.787184541     a.u. after   18 cycles

 Alpha  occ. eigenvalues --  -24.68247  -1.14565  -0.47225  -0.39778  -0.39778
 Alpha  occ. eigenvalues --   -0.33339
 Alpha virt. eigenvalues --   -0.13735   0.22329   0.31802   0.88889   0.94842
 Alpha virt. eigenvalues --    0.94842   1.05658   1.24171   1.24171   1.24215
 Alpha virt. eigenvalues --    1.35447   1.35447   1.60462   2.13829   2.29561

  Beta  occ. eigenvalues --  -24.65875  -1.07935  -0.37943  -0.37440  -0.37440
  Beta virt. eigenvalues --   -0.20750  -0.06725   0.22487   0.37983   0.90234
  Beta virt. eigenvalues --    0.95477   0.95477   1.08103   1.21950   1.21950
  Beta virt. eigenvalues --    1.45739   1.46138   1.46138   1.53385   2.11715

 Mulliken charges and spin densities:
               1          2
     1  H    0.192609  -0.744323
     2  H    0.001107   0.998393
     3  F   -0.193715   0.745930
 Sum of Mulliken charges =   0.00000   1.00000

 Dipole moment (field-independent basis, Debye):
    X=             -1.9335    Y=              0.0000    Z=             -0.0000  Tot=              1.9335
 Quadrupole moment (field-independent basis, Debye-Ang):
   XX=            -10.0555   YY=             -7.4878   ZZ=             -7.4878
   XY=             -0.0000   XZ=              0.0000   YZ=             -0.0000

  Exact polarizability:      25.471      -0.000       2.062       0.000      -0.000       2.062
 Approx polarizability:      37.031      -0.000       1.947       0.000       0.000       1.947

 ******    2 imaginary frequencies (negative Signs) ******

                      1                      2                      3
                      A                      A                      A
 Frequencies --  -1129.7873              -100.6304               480.4859
 Red. masses --      1.0574                 1.0541                 1.0266
 Frc consts  --      0.7952                 0.0063                 0.1396
 IR Inten    --    122.0543                 0.1416                35.0093

                      4
                      A
 Frequencies --    480.4859
 Red. masses --      1.0266
 Frc consts  --      0.1396
 IR Inten    --     35.0093

 - Thermochemistry -
 -------------------
 Temperature   298.150 Kelvin.  Pressure   1.00000 Atm.
 Atom     1 has atomic number  1 and mass   1.00783

 Molecular mass:    21.01405 amu.
 Principal axes and moments of inertia in atomic units:
                           1         2         3
     Eigenvalues --     0.00000 119.18400 119.18400
           X            1.00000  -0.00000   0.00000
           Y            0.00000   1.00000   0.00000
           Z            0.00000   0.00000   1.00000
 This molecule is a prolate symmetric top.
 Rotational symmetry number  1.
 Rotational temperature (Kelvin)      0.72672
 Rotational constant (GHZ):          15.142479
    2 imaginary frequencies ignored.
 Zero-point vibrational energy       5747.9 (Joules/Mol)
                                    1.37378 (Kcal/Mol)
 Warning -- explicit consideration of   2 degrees of freedom as
           vibrations may cause significant error
 Vibrational temperatures:    691.31   691.31
          (Kelvin)

 Zero-point correction=                           0.002189 (Hartree/Particle)
 Thermal correction to Energy=                    0.005028
 Thermal correction to Enthalpy=                  0.005972
 Thermal correction to Gibbs Free Energy=        -0.018643
 Sum of electronic and zero-point Energies=           -100.784995
 Sum of electronic and thermal Energies=              -100.782157
 Sum of electronic and thermal Enthalpies=            -100.781213
 Sum of electronic and thermal Free Energies=         -100.805828

                     E (Thermal)             CV                S
                      KCal/Mol        Cal/Mol-Kelvin    Cal/Mol-Kelvin
 Total                    3.155              7.555             51.807
 Electronic               0.000              0.000              1.377
 Translational            0.889              2.981             35.068
 Rotational               0.592              1.987             13.944
 Vibrational              1.674              2.587              1.418
 Vibration     1          0.837              1.293              0.709
 Vibration     2          0.837              1.293              0.709

 Normal termination of Gaussian 16 at Fri Aug 22 16:57:56 2025.
