 Gaussian 16, Revision C.01,
 Gaussian 16:  ES64L-G16RevC.01  3-Jul-2019

 -----------------------------------------
 # sp b3lyp/6-311g** Force nosymm scf=(qc)
 -----------------------------------------

 -------------------
 Title Card Required
 -------------------
 Symbolic Z-matrix:
 Charge =  0 Multiplicity = 2

                          Input orientation:
 ---------------------------------------------------------------------
 Center     Atomic      Atomic             Coordinates (Angstroms)
 Number     Number       Type             X           Y           Z
 ---------------------------------------------------------------------
      1          1           0        0.000000    0.000000    0.000000
      2          1           0       -4.000000    0.000000    0.000000
      3          9           0        3.100000    0.000000    0.000000
 ---------------------------------------------------------------------

 SCF Done:  E(UB3LYP) =  -100.760210854     a.u. after   25 cycles

 Alpha  occ. eigenvalues --  -24.74412  -1.20448  -0.53532  -0.44948  -0.44948
 Alpha  occ. eigenvalues --   -0.32408
 Alpha virt. eigenvalues --   -0.07345   0.23951   0.36411   0.88994   0.92079
 Alpha virt. eigenvalues --    0.92079   1.03333   1.25087   1.25087   1.25104
 Alpha virt. eigenvalues --    1.44994   1.44994   1.45576   2.14386   2.41306

  Beta  occ. eigenvalues --  -24.71362  -1.11701  -0.41894  -0.41894  -0.33487
  Beta virt. eigenvalues --   -0.24957  -0.05868   0.23749   0.38149   0.93548
  Beta virt. eigenvalues --    0.93548   0.97801   1.07125   1.23854   1.23854
  Beta virt. eigenvalues --    1.24026   1.46688   1.46788   1.46788   2.14540

 Mulliken charges and spin densities:
               1          2
     1  H    0.030341  -0.966075
     2  H    0.000103   0.999391
     3  F   -0.030444   0.966684
 Sum of Mulliken charges =  -0.00000   1.00000

 Dipole moment (field-independent basis, Debye):
    X=             -0.4867    Y=              0.0000    Z=             -0.0000  Tot=              0.4867
 Quadrupole moment (field-independent basis, Debye-Ang):
   XX=             -8.1468   YY=             -7.6085   ZZ=             -7.6085
   XY=              0.0000   XZ=             -0.0000   YZ=             -0.0000

  Exact polarizability:      30.039       0.000       2.029      -0.000       0.000       2.029
 Approx polarizability:      29.349       0.000       1.929      -0.000      -0.000       1.929

 ******    2 imaginary frequencies (negative Signs) ******

                      1                      2                      3
                      A                      A                      A
 Frequencies --   -325.7764               -69.1754               110.6895
 Red. masses --      1.0534                 1.0581                 1.0213
 Frc consts  --      0.0659                 0.0030                 0.0074
 IR Inten    --     32.8699                 0.0854                 0.8827

                      4
                      A
 Frequencies --    110.6895
 Red. masses --      1.0213
 Frc consts  --      0.0074
 IR Inten    --      0.8827

 - Thermochemistry -
 -------------------
 Temperature   298.150 Kelvin.  Pressure   1.00000 Atm.
 Atom     1 has atomic number  1 and mass   1.00783

 Molecular mass:    21.01405 amu.
 Principal axes and moments of inertia in atomic units:
                           1         2         3
     Eigenvalues --     0.00000 198.05447 198.05447
           X            1.00000  -0.00000   0.00000
           Y            0.00000   1.00000   0.00000
           Z            0.00000   0.00000   1.00000
 This molecule is a prolate symmetric top.
 Rotational symmetry number  1.
 Rotational temperature (Kelvin)      0.43732
 Rotational constant (GHZ):           9.112348
    2 imaginary frequencies ignored.
 Zero-point vibrational energy       1324.1 (Joules/Mol)
                                    0.31648 (Kcal/Mol)
 Warning -- explicit consideration of   2 degrees of freedom as
           vibrations may cause significant error
 Vibrational temperatures:    159.26   159.26
          (Kelvin)

 Zero-point correction=                           0.000504 (Hartree/Particle)
 Thermal correction to Energy=                    0.004294
 Thermal correction to Enthalpy=                  0.005238
 Thermal correction to Gibbs Free Energy=        -0.022278
 Sum of electronic and zero-point Energies=           -100.759707
 Sum of electronic and thermal Energies=              -100.755917
 Sum of electronic and thermal Enthalpies=            -100.754973
 Sum of electronic and thermal Free Energies=         -100.782489

                     E (Thermal)             CV                S
                      KCal/Mol        Cal/Mol-Kelvin    Cal/Mol-Kelvin
 Total                    2.694              8.849             57.912
 Electronic               0.000              0.000              1.377
 Translational            0.889              2.981             35.068
 Rotational               0.592              1.987             14.953
 Vibrational              1.213              3.881              6.514
 Vibration     1          0.607              1.941              3.257
 Vibration     2          0.607              1.941              3.257

 Normal termination of Gaussian 16 at Fri Aug 22 19:56:51 2025.
