 Gaussian 16, Revision C.01,
 Gaussian 16:  ES64L-G16RevC.01  3-Jul-2019

 -----------------------------------------
 # sp b3lyp/6-311g** Force nosymm scf=(qc)
 -----------------------------------------

 -------------------
 Title Card Required
 -------------------
 Symbolic Z-matrix:
 Charge =  0 Multiplicity = 2

                          Input orientation:
 ---------------------------------------------------------------------
 Center     Atomic      Atomic             Coordinates (Angstroms)
 Number     Number       Type             X           Y           Z
 ---------------------------------------------------------------------
      1          1           0        0.000000    0.000000    0.000000
      2          1           0       -2.000000    0.000000    0.000000
      3          9           0        3.800000    0.000000    0.000000
 ---------------------------------------------------------------------

 SCF Done:  E(UB3LYP) =  -100.774298520     a.u. after   59 cycles

 Alpha  occ. eigenvalues --  -24.76030  -1.21944  -0.55145  -0.46321  -0.46314
 Alpha  occ. eigenvalues --   -0.32812
 Alpha virt. eigenvalues --   -0.10600   0.26071   0.32700   0.86395   0.91059
 Alpha virt. eigenvalues --    0.91351   1.01074   1.17424   1.25173   1.25174
 Alpha virt. eigenvalues --    1.38334   1.38336   1.51543   2.13444   2.36590

  Beta  occ. eigenvalues --  -24.72882  -1.12891  -0.43168  -0.43157  -0.32817
  Beta virt. eigenvalues --   -0.25849  -0.10578   0.26006   0.32830   0.92559
  Beta virt. eigenvalues --    0.92796   0.95832   1.05196   1.17407   1.25157
  Beta virt. eigenvalues --    1.25159   1.38388   1.38388   1.51595   2.13711

 Mulliken charges and spin densities:
               1          2
     1  H    0.000287  -0.853711
     2  H    0.000735   0.855587
     3  F   -0.001022   0.998124
 Sum of Mulliken charges =   0.00000   1.00000

 Dipole moment (field-independent basis, Debye):
    X=             -0.0308    Y=             -0.0006    Z=              0.0005  Tot=              0.0308
 Quadrupole moment (field-independent basis, Debye-Ang):
   XX=             -6.7344   YY=             -7.4237   ZZ=             -7.5369
   XY=             -0.3340   XZ=              0.2652   YZ=             -0.2432

  Exact polarizability:      29.492      -0.115       2.176       0.194      -0.131       2.115
 Approx polarizability:      27.646      -0.210       2.147       0.167      -0.164       2.070

 ******    2 imaginary frequencies (negative Signs) ******

                      1                      2                      3
                      A                      A                      A
 Frequencies --  -1352.2783               -71.8564               554.7936
 Red. masses --      1.0078                 1.1085                 1.0120
 Frc consts  --      1.0858                 0.0034                 0.1835
 IR Inten    --      1.4745                 0.4354                 0.0121

                      4
                      A
 Frequencies --    554.8525
 Red. masses --      1.0120
 Frc consts  --      0.1836
 IR Inten    --      0.0297

 - Thermochemistry -
 -------------------
 Temperature   298.150 Kelvin.  Pressure   1.00000 Atm.
 Atom     1 has atomic number  1 and mass   1.00783

 Molecular mass:    21.01405 amu.
 Principal axes and moments of inertia in atomic units:
                           1         2         3
     Eigenvalues --     0.00000 157.13288 157.13288
           X            1.00000  -0.00000   0.00000
           Y            0.00000   1.00000   0.00000
           Z            0.00000   0.00000   1.00000
 This molecule is a prolate symmetric top.
 Rotational symmetry number  1.
 Rotational temperature (Kelvin)      0.55121
 Rotational constant (GHZ):          11.485446
    2 imaginary frequencies ignored.
 Zero-point vibrational energy       6637.2 (Joules/Mol)
                                    1.58632 (Kcal/Mol)
 Warning -- explicit consideration of   2 degrees of freedom as
           vibrations may cause significant error
 Vibrational temperatures:    798.22   798.31
          (Kelvin)

 Zero-point correction=                           0.002528 (Hartree/Particle)
 Thermal correction to Energy=                    0.005262
 Thermal correction to Enthalpy=                  0.006206
 Thermal correction to Gibbs Free Energy=        -0.018504
 Sum of electronic and zero-point Energies=           -100.771771
 Sum of electronic and thermal Energies=              -100.769037
 Sum of electronic and thermal Enthalpies=            -100.768093
 Sum of electronic and thermal Free Energies=         -100.792803

                     E (Thermal)             CV                S
                      KCal/Mol        Cal/Mol-Kelvin    Cal/Mol-Kelvin
 Total                    3.302              7.226             52.007
 Electronic               0.000              0.000              1.377
 Translational            0.889              2.981             35.068
 Rotational               0.592              1.987             14.493
 Vibrational              1.821              2.258              1.069
 Vibration     1          0.910              1.129              0.534
 Vibration     2          0.910              1.129              0.534

 Normal termination of Gaussian 16 at Sat Aug 23 00:47:39 2025.
