 Gaussian 16, Revision C.01,
 Gaussian 16:  ES64L-G16RevC.01  3-Jul-2019

 -----------------------------------------
 # sp b3lyp/6-311g** Force nosymm scf=(qc)
 -----------------------------------------

 -------------------
 Title Card Required
 -------------------
 Symbolic Z-matrix:
 Charge =  0 Multiplicity = 2

                          Input orientation:
 ---------------------------------------------------------------------
 Center     Atomic      Atomic             Coordinates (Angstroms)
 Number     Number       Type             X           Y           Z
 ---------------------------------------------------------------------
      1          1           0        0.000000    0.000000    0.000000
      2          1           0       -0.950000    0.000000    0.000000
      3          9           0        2.600000    0.000000    0.000000
 ---------------------------------------------------------------------

 SCF Done:  E(UB3LYP) =  -100.914999312     a.u. after    7 cycles

 Alpha  occ. eigenvalues --  -24.75911  -1.21830  -0.55096  -0.46218  -0.46218
 Alpha  occ. eigenvalues --   -0.40349
 Alpha virt. eigenvalues --    0.01389   0.21015   0.40610   0.89824   0.91065
 Alpha virt. eigenvalues --    0.91065   1.07950   1.07950   1.09463   1.40922
 Alpha virt. eigenvalues --    1.68272   1.68272   2.21987   2.37264   2.64006

  Beta  occ. eigenvalues --  -24.72795  -1.12879  -0.43097  -0.43097  -0.40275
  Beta virt. eigenvalues --   -0.26140   0.01786   0.21265   0.41012   0.92541
  Beta virt. eigenvalues --    0.92541   0.98265   1.08102   1.08102   1.13831
  Beta virt. eigenvalues --    1.41137   1.68383   1.68383   2.22205   2.37412

 Mulliken charges and spin densities:
               1          2
     1  H   -0.011218  -0.011679
     2  H    0.017312   0.025883
     3  F   -0.006094   0.985796
 Sum of Mulliken charges =   0.00000   1.00000

 Dipole moment (field-independent basis, Debye):
    X=             -0.1653    Y=              0.0000    Z=              0.0000  Tot=              0.1653
 Quadrupole moment (field-independent basis, Debye-Ang):
   XX=             -5.6819   YY=             -7.2044   ZZ=             -7.2044
   XY=              0.0000   XZ=              0.0000   YZ=             -0.0000

  Exact polarizability:      18.555      -0.000       2.059       0.000       0.000       2.059
 Approx polarizability:      21.167       0.000       2.118      -0.000       0.000       2.118

 ******    1 imaginary frequencies (negative Signs) ******

                      1                      2                      3
                      A                      A                      A
 Frequencies --   -152.9414              1497.3749              1497.3749
 Red. masses --      1.1085                 1.0102                 1.0102
 Frc consts  --      0.0153                 1.3345                 1.3345
 IR Inten    --      5.4239                 0.2219                 0.2219

                      4
                      A
 Frequencies --   2162.1360
 Red. masses --      1.0078
 Frc consts  --      2.7759
 IR Inten    --     53.9821

 - Thermochemistry -
 -------------------
 Temperature   298.150 Kelvin.  Pressure   1.00000 Atm.
 Atom     1 has atomic number  1 and mass   1.00783

 Molecular mass:    21.01405 amu.
 Principal axes and moments of inertia in atomic units:
                           1         2         3
     Eigenvalues --     0.00000  63.15738  63.15738
           X            1.00000  -0.00000   0.00000
           Y            0.00000   1.00000   0.00000
           Z            0.00000   0.00000   1.00000
 This molecule is a prolate symmetric top.
 Rotational symmetry number  1.
 Rotational temperature (Kelvin)      1.37140
 Rotational constant (GHZ):          28.575303
    1 imaginary frequencies ignored.
 Zero-point vibrational energy      30845.0 (Joules/Mol)
                                    7.37214 (Kcal/Mol)
 Vibrational temperatures:   2154.39  2154.39  3110.83
          (Kelvin)

 Zero-point correction=                           0.011748 (Hartree/Particle)
 Thermal correction to Energy=                    0.014119
 Thermal correction to Enthalpy=                  0.015063
 Thermal correction to Gibbs Free Energy=        -0.008290
 Sum of electronic and zero-point Energies=           -100.903251
 Sum of electronic and thermal Energies=              -100.900880
 Sum of electronic and thermal Enthalpies=            -100.899936
 Sum of electronic and thermal Free Energies=         -100.923290

                     E (Thermal)             CV                S
                      KCal/Mol        Cal/Mol-Kelvin    Cal/Mol-Kelvin
 Total                    8.860              5.126             49.152
 Electronic               0.000              0.000              1.377
 Translational            0.889              2.981             35.068
 Rotational               0.592              1.987             12.682
 Vibrational              7.379              0.158              0.024

 Normal termination of Gaussian 16 at Fri Aug 22 18:00:08 2025.
