 Gaussian 16, Revision C.01,
 Gaussian 16:  ES64L-G16RevC.01  3-Jul-2019

 -----------------------------------------
 # sp b3lyp/6-311g** Force nosymm scf=(qc)
 -----------------------------------------

 -------------------
 Title Card Required
 -------------------
 Symbolic Z-matrix:
 Charge =  0 Multiplicity = 2

                          Input orientation:
 ---------------------------------------------------------------------
 Center     Atomic      Atomic             Coordinates (Angstroms)
 Number     Number       Type             X           Y           Z
 ---------------------------------------------------------------------
      1          1           0        0.000000    0.000000    0.000000
      2          1           0       -1.650000    0.000000    0.000000
      3          9           0        1.900000    0.000000    0.000000
 ---------------------------------------------------------------------

 SCF Done:  E(UB3LYP) =  -100.825981408     a.u. after   14 cycles

 Alpha  occ. eigenvalues --  -24.68065  -1.14451  -0.47526  -0.39645  -0.39645
 Alpha  occ. eigenvalues --   -0.37886
 Alpha virt. eigenvalues --   -0.11703   0.22609   0.30399   0.85774   0.94475
 Alpha virt. eigenvalues --    0.94475   1.03158   1.18562   1.18562   1.30925
 Alpha virt. eigenvalues --    1.35830   1.35830   1.75560   2.16270   2.38577

  Beta  occ. eigenvalues --  -24.65725  -1.07924  -0.37938  -0.37342  -0.37342
  Beta virt. eigenvalues --   -0.22434  -0.09918   0.25230   0.30211   0.89006
  Beta virt. eigenvalues --    0.95142   0.95142   1.07341   1.21626   1.21626
  Beta virt. eigenvalues --    1.36460   1.36460   1.36584   1.76818   2.16973

 Mulliken charges and spin densities:
               1          2
     1  H    0.130770  -0.450975
     2  H    0.064227   0.716859
     3  F   -0.194997   0.734116
 Sum of Mulliken charges =  -0.00000   1.00000

 Dipole moment (field-independent basis, Debye):
    X=             -2.3384    Y=             -0.0000    Z=             -0.0000  Tot=              2.3384
 Quadrupole moment (field-independent basis, Debye-Ang):
   XX=             -8.1603   YY=             -7.5050   ZZ=             -7.5050
   XY=             -0.0000   XZ=             -0.0000   YZ=             -0.0000

  Exact polarizability:      50.701      -0.000       2.116      -0.000       0.000       2.116
 Approx polarizability:      72.148       0.000       2.046       0.000      -0.000       2.046

 ******    2 imaginary frequencies (negative Signs) ******

                      1                      2                      3
                      A                      A                      A
 Frequencies --  -2121.5480              -578.5319               919.9855
 Red. masses --      1.0147                 1.1003                 1.0163
 Frc consts  --      2.6909                 0.2170                 0.5068
 IR Inten    --    431.3175                17.0272                 7.1303

                      4
                      A
 Frequencies --    919.9855
 Red. masses --      1.0163
 Frc consts  --      0.5068
 IR Inten    --      7.1303

 - Thermochemistry -
 -------------------
 Temperature   298.150 Kelvin.  Pressure   1.00000 Atm.
 Atom     1 has atomic number  1 and mass   1.00783

 Molecular mass:    21.01405 amu.
 Principal axes and moments of inertia in atomic units:
                           1         2         3
     Eigenvalues --     0.00000  53.22207  53.22207
           X            1.00000  -0.00000   0.00000
           Y            0.00000   1.00000   0.00000
           Z            0.00000   0.00000   1.00000
 This molecule is a prolate symmetric top.
 Rotational symmetry number  1.
 Rotational temperature (Kelvin)      1.62741
 Rotational constant (GHZ):          33.909640
    2 imaginary frequencies ignored.
 Zero-point vibrational energy      11005.5 (Joules/Mol)
                                    2.63037 (Kcal/Mol)
 Vibrational temperatures:   1323.65  1323.65
          (Kelvin)

 Zero-point correction=                           0.004192 (Hartree/Particle)
 Thermal correction to Energy=                    0.006652
 Thermal correction to Enthalpy=                  0.007597
 Thermal correction to Gibbs Free Energy=        -0.015706
 Sum of electronic and zero-point Energies=           -100.821790
 Sum of electronic and thermal Energies=              -100.819329
 Sum of electronic and thermal Enthalpies=            -100.818385
 Sum of electronic and thermal Free Energies=         -100.841688

                     E (Thermal)             CV                S
                      KCal/Mol        Cal/Mol-Kelvin    Cal/Mol-Kelvin
 Total                    4.174              5.915             49.045
 Electronic               0.000              0.000              1.377
 Translational            0.889              2.981             35.068
 Rotational               0.592              1.987             12.342
 Vibrational              2.693              0.947              0.258

 Normal termination of Gaussian 16 at Fri Aug 22 16:49:42 2025.
