 Gaussian 16, Revision C.01,
 Gaussian 16:  ES64L-G16RevC.01  3-Jul-2019

 -----------------------------------------
 # sp b3lyp/6-311g** Force nosymm scf=(qc)
 -----------------------------------------

 -------------------
 Title Card Required
 -------------------
 Symbolic Z-matrix:
 Charge =  0 Multiplicity = 2

                          Input orientation:
 ---------------------------------------------------------------------
 Center     Atomic      Atomic             Coordinates (Angstroms)
 Number     Number       Type             X           Y           Z
 ---------------------------------------------------------------------
      1          1           0        0.000000    0.000000    0.000000
      2          1           0       -2.250000    0.000000    0.000000
      3          9           0        1.850000    0.000000    0.000000
 ---------------------------------------------------------------------

 SCF Done:  E(UB3LYP) =  -100.805693385     a.u. after   18 cycles

 Alpha  occ. eigenvalues --  -24.66761  -1.13034  -0.45734  -0.38482  -0.38482
 Alpha  occ. eigenvalues --   -0.36016
 Alpha virt. eigenvalues --   -0.14076   0.23862   0.29717   0.91925   0.95055
 Alpha virt. eigenvalues --    0.95055   1.06003   1.21729   1.21729   1.26895
 Alpha virt. eigenvalues --    1.33931   1.33931   1.67076   2.11736   2.27380

  Beta  occ. eigenvalues --  -24.64691  -1.07308  -0.38527  -0.36457  -0.36457
  Beta virt. eigenvalues --   -0.20050  -0.10657   0.25121   0.33351   0.93640
  Beta virt. eigenvalues --    0.95293   0.95293   1.08661   1.23909   1.23909
  Beta virt. eigenvalues --    1.38803   1.38803   1.42232   1.62441   2.12708

 Mulliken charges and spin densities:
               1          2
     1  H    0.205342  -0.594724
     2  H    0.032236   0.944341
     3  F   -0.237578   0.650383
 Sum of Mulliken charges =   0.00000   1.00000

 Dipole moment (field-independent basis, Debye):
    X=             -2.5034    Y=              0.0000    Z=              0.0000  Tot=              2.5034
 Quadrupole moment (field-independent basis, Debye-Ang):
   XX=             -9.1829   YY=             -7.4900   ZZ=             -7.4900
   XY=              0.0000   XZ=             -0.0000   YZ=             -0.0000

  Exact polarizability:      39.867       0.000       2.091      -0.000       0.000       2.091
 Approx polarizability:      49.151       0.000       1.989      -0.000       0.000       1.989

 ******    2 imaginary frequencies (negative Signs) ******

                      1                      2                      3
                      A                      A                      A
 Frequencies --  -1544.7073              -496.2553               647.2750
 Red. masses --      1.0392                 1.0729                 1.0205
 Frc consts  --      1.4610                 0.1557                 0.2519
 IR Inten    --     90.8130                20.2446                31.7758

                      4
                      A
 Frequencies --    647.2750
 Red. masses --      1.0205
 Frc consts  --      0.2519
 IR Inten    --     31.7758

 - Thermochemistry -
 -------------------
 Temperature   298.150 Kelvin.  Pressure   1.00000 Atm.
 Atom     1 has atomic number  1 and mass   1.00783

 Molecular mass:    21.01405 amu.
 Principal axes and moments of inertia in atomic units:
                           1         2         3
     Eigenvalues --     0.00000  66.70622  66.70622
           X            1.00000  -0.00000   0.00000
           Y            0.00000   1.00000   0.00000
           Z            0.00000   0.00000   1.00000
 This molecule is a prolate symmetric top.
 Rotational symmetry number  1.
 Rotational temperature (Kelvin)      1.29844
 Rotational constant (GHZ):          27.055065
    2 imaginary frequencies ignored.
 Zero-point vibrational energy       7743.1 (Joules/Mol)
                                    1.85065 (Kcal/Mol)
 Vibrational temperatures:    931.28   931.28
          (Kelvin)

 Zero-point correction=                           0.002949 (Hartree/Particle)
 Thermal correction to Energy=                    0.005581
 Thermal correction to Enthalpy=                  0.006525
 Thermal correction to Gibbs Free Energy=        -0.017225
 Sum of electronic and zero-point Energies=           -100.802744
 Sum of electronic and thermal Energies=              -100.800112
 Sum of electronic and thermal Enthalpies=            -100.799168
 Sum of electronic and thermal Free Energies=         -100.822918

                     E (Thermal)             CV                S
                      KCal/Mol        Cal/Mol-Kelvin    Cal/Mol-Kelvin
 Total                    3.502              6.835             49.986
 Electronic               0.000              0.000              1.377
 Translational            0.889              2.981             35.068
 Rotational               0.592              1.987             12.791
 Vibrational              2.021              1.867              0.750

 Normal termination of Gaussian 16 at Fri Aug 22 16:46:58 2025.
