 Gaussian 16, Revision C.01,
 Gaussian 16:  ES64L-G16RevC.01  3-Jul-2019

 -----------------------------------------
 # sp b3lyp/6-311g** Force nosymm scf=(qc)
 -----------------------------------------

 -------------------
 Title Card Required
 -------------------
 Symbolic Z-matrix:
 Charge =  0 Multiplicity = 2

                          Input orientation:
 ---------------------------------------------------------------------
 Center     Atomic      Atomic             Coordinates (Angstroms)
 Number     Number       Type             X           Y           Z
 ---------------------------------------------------------------------
      1          1           0        0.000000    0.000000    0.000000
      2          1           0       -2.050000    0.000000    0.000000
      3          9           0        2.500000    0.000000    0.000000
 ---------------------------------------------------------------------

 SCF Done:  E(UB3LYP) =  -100.780173287     a.u. after   18 cycles

 Alpha  occ. eigenvalues --  -24.71851  -1.18048  -0.50956  -0.42788  -0.42788
 Alpha  occ. eigenvalues --   -0.34717
 Alpha virt. eigenvalues --   -0.12727   0.24870   0.32134   0.89995   0.93578
 Alpha virt. eigenvalues --    0.93578   1.06002   1.22178   1.23210   1.23210
 Alpha virt. eigenvalues --    1.35386   1.35386   1.47588   2.11430   2.34257

  Beta  occ. eigenvalues --  -24.69001  -1.09933  -0.39946  -0.39946  -0.35179
  Beta virt. eigenvalues --   -0.23558  -0.11452   0.26531   0.32308   0.94948
  Beta virt. eigenvalues --    0.94948   0.96929   1.08983   1.22840   1.22840
  Beta virt. eigenvalues --    1.25023   1.37456   1.37456   1.48208   2.12100

 Mulliken charges and spin densities:
               1          2
     1  H    0.058771  -0.788190
     2  H    0.026959   0.887577
     3  F   -0.085731   0.900613
 Sum of Mulliken charges =  -0.00000   1.00000

 Dipole moment (field-independent basis, Debye):
    X=             -1.3559    Y=              0.0000    Z=              0.0000  Tot=              1.3559
 Quadrupole moment (field-independent basis, Debye-Ang):
   XX=             -8.2429   YY=             -7.6549   ZZ=             -7.6549
   XY=             -0.0000   XZ=             -0.0000   YZ=             -0.0000

  Exact polarizability:      57.766      -0.000       2.009      -0.000      -0.000       2.009
 Approx polarizability:      60.976      -0.000       1.927       0.000       0.000       1.927

 ******    2 imaginary frequencies (negative Signs) ******

                      1                      2                      3
                      A                      A                      A
 Frequencies --  -1314.2041              -391.2757               527.1497
 Red. masses --      1.0096                 1.1064                 1.0157
 Frc consts  --      1.0274                 0.0998                 0.1663
 IR Inten    --     64.9786                49.2254                 1.9848

                      4
                      A
 Frequencies --    527.1497
 Red. masses --      1.0157
 Frc consts  --      0.1663
 IR Inten    --      1.9848

 - Thermochemistry -
 -------------------
 Temperature   298.150 Kelvin.  Pressure   1.00000 Atm.
 Atom     1 has atomic number  1 and mass   1.00783

 Molecular mass:    21.01405 amu.
 Principal axes and moments of inertia in atomic units:
                           1         2         3
     Eigenvalues --     0.00000  88.42328  88.42328
           X            1.00000  -0.00000   0.00000
           Y            0.00000   1.00000   0.00000
           Z            0.00000   0.00000   1.00000
 This molecule is a prolate symmetric top.
 Rotational symmetry number  1.
 Rotational temperature (Kelvin)      0.97954
 Rotational constant (GHZ):          20.410249
    2 imaginary frequencies ignored.
 Zero-point vibrational energy       6306.1 (Joules/Mol)
                                    1.50720 (Kcal/Mol)
 Warning -- explicit consideration of   2 degrees of freedom as
           vibrations may cause significant error
 Vibrational temperatures:    758.45   758.45
          (Kelvin)

 Zero-point correction=                           0.002402 (Hartree/Particle)
 Thermal correction to Energy=                    0.005172
 Thermal correction to Enthalpy=                  0.006116
 Thermal correction to Gibbs Free Energy=        -0.018108
 Sum of electronic and zero-point Energies=           -100.777771
 Sum of electronic and thermal Energies=              -100.775001
 Sum of electronic and thermal Enthalpies=            -100.774057
 Sum of electronic and thermal Free Energies=         -100.798281

                     E (Thermal)             CV                S
                      KCal/Mol        Cal/Mol-Kelvin    Cal/Mol-Kelvin
 Total                    3.245              7.348             50.983
 Electronic               0.000              0.000              1.377
 Translational            0.889              2.981             35.068
 Rotational               0.592              1.987             13.351
 Vibrational              1.764              2.380              1.187
 Vibration     1          0.882              1.190              0.594
 Vibration     2          0.882              1.190              0.594

 Normal termination of Gaussian 16 at Fri Aug 22 17:44:50 2025.
