 Gaussian 16, Revision C.01,
 Gaussian 16:  ES64L-G16RevC.01  3-Jul-2019

 -----------------------------------------
 # sp b3lyp/6-311g** Force nosymm scf=(qc)
 -----------------------------------------

 -------------------
 Title Card Required
 -------------------
 Symbolic Z-matrix:
 Charge =  0 Multiplicity = 2

                          Input orientation:
 ---------------------------------------------------------------------
 Center     Atomic      Atomic             Coordinates (Angstroms)
 Number     Number       Type             X           Y           Z
 ---------------------------------------------------------------------
      1          1           0        0.000000    0.000000    0.000000
      2          1           0       -1.650000    0.000000    0.000000
      3          9           0        1.750000    0.000000    0.000000
 ---------------------------------------------------------------------

 SCF Done:  E(UB3LYP) =  -100.837646640     a.u. after   13 cycles

 Alpha  occ. eigenvalues --  -24.66638  -1.13046  -0.46488  -0.38457  -0.38457
 Alpha  occ. eigenvalues --   -0.38327
 Alpha virt. eigenvalues --   -0.11075   0.22176   0.29683   0.88244   0.94413
 Alpha virt. eigenvalues --    0.94413   1.03456   1.18033   1.18033   1.35264
 Alpha virt. eigenvalues --    1.36229   1.36229   1.78610   2.16263   2.37668

  Beta  occ. eigenvalues --  -24.64610  -1.07460  -0.38997  -0.36478  -0.36478
  Beta virt. eigenvalues --   -0.21943  -0.08746   0.25020   0.29955   0.91552
  Beta virt. eigenvalues --    0.94700   0.94700   1.07385   1.22733   1.22733
  Beta virt. eigenvalues --    1.36817   1.36817   1.41443   1.80435   2.17249

 Mulliken charges and spin densities:
               1          2
     1  H    0.176331  -0.393396
     2  H    0.067899   0.758748
     3  F   -0.244229   0.634648
 Sum of Mulliken charges =   0.00000   1.00000

 Dipole moment (field-independent basis, Debye):
    X=             -2.6331    Y=              0.0000    Z=             -0.0000  Tot=              2.6331
 Quadrupole moment (field-independent basis, Debye-Ang):
   XX=             -8.2964   YY=             -7.4281   ZZ=             -7.4281
   XY=              0.0000   XZ=             -0.0000   YZ=             -0.0000

  Exact polarizability:      45.798       0.000       2.164      -0.000      -0.000       2.164
 Approx polarizability:      65.265      -0.000       2.090       0.000       0.000       2.090

 ******    2 imaginary frequencies (negative Signs) ******

                      1                      2                      3
                      A                      A                      A
 Frequencies --  -2256.3063              -599.5554               936.4233
 Red. masses --      1.0195                 1.0947                 1.0172
 Frc consts  --      3.0580                 0.2318                 0.5256
 IR Inten    --    398.9793                 4.6981                14.5326

                      4
                      A
 Frequencies --    936.4233
 Red. masses --      1.0172
 Frc consts  --      0.5256
 IR Inten    --     14.5326

 - Thermochemistry -
 -------------------
 Temperature   298.150 Kelvin.  Pressure   1.00000 Atm.
 Atom     1 has atomic number  1 and mass   1.00783

 Molecular mass:    21.01405 amu.
 Principal axes and moments of inertia in atomic units:
                           1         2         3
     Eigenvalues --     0.00000  48.04854  48.04854
           X            1.00000  -0.00000   0.00000
           Y            0.00000   1.00000   0.00000
           Z            0.00000   0.00000   1.00000
 This molecule is a prolate symmetric top.
 Rotational symmetry number  1.
 Rotational temperature (Kelvin)      1.80263
 Rotational constant (GHZ):          37.560795
    2 imaginary frequencies ignored.
 Zero-point vibrational energy      11202.1 (Joules/Mol)
                                    2.67737 (Kcal/Mol)
 Vibrational temperatures:   1347.30  1347.30
          (Kelvin)

 Zero-point correction=                           0.004267 (Hartree/Particle)
 Thermal correction to Energy=                    0.006721
 Thermal correction to Enthalpy=                  0.007665
 Thermal correction to Gibbs Free Energy=        -0.015533
 Sum of electronic and zero-point Energies=           -100.833380
 Sum of electronic and thermal Energies=              -100.830925
 Sum of electronic and thermal Enthalpies=            -100.829981
 Sum of electronic and thermal Free Energies=         -100.853180

                     E (Thermal)             CV                S
                      KCal/Mol        Cal/Mol-Kelvin    Cal/Mol-Kelvin
 Total                    4.218              5.872             48.825
 Electronic               0.000              0.000              1.377
 Translational            0.889              2.981             35.068
 Rotational               0.592              1.987             12.139
 Vibrational              2.736              0.904              0.242

 Normal termination of Gaussian 16 at Fri Aug 22 16:40:09 2025.
