 Gaussian 16, Revision C.01,
 Gaussian 16:  ES64L-G16RevC.01  3-Jul-2019

 -----------------------------------------
 # sp b3lyp/6-311g** Force nosymm scf=(qc)
 -----------------------------------------

 -------------------
 Title Card Required
 -------------------
 Symbolic Z-matrix:
 Charge =  0 Multiplicity = 2

                          Input orientation:
 ---------------------------------------------------------------------
 Center     Atomic      Atomic             Coordinates (Angstroms)
 Number     Number       Type             X           Y           Z
 ---------------------------------------------------------------------
      1          1           0        0.000000    0.000000    0.000000
      2          1           0       -2.600000    0.000000    0.000000
      3          9           0        1.150000    0.000000    0.000000
 ---------------------------------------------------------------------

 SCF Done:  E(UB3LYP) =  -100.937852408     a.u. after    6 cycles

 Alpha  occ. eigenvalues --  -24.64177  -1.12890  -0.48602  -0.37671  -0.37671
 Alpha  occ. eigenvalues --   -0.35035
 Alpha virt. eigenvalues --   -0.03349   0.24632   0.29348   0.93477   0.93477
 Alpha virt. eigenvalues --    1.00263   1.21198   1.22504   1.22504   1.32831
 Alpha virt. eigenvalues --    1.35079   1.35079   1.76669   2.13706   2.31096

  Beta  occ. eigenvalues --  -24.64147  -1.12815  -0.48480  -0.37644  -0.37644
  Beta virt. eigenvalues --   -0.10562  -0.01197   0.29258   0.36865   0.93477
  Beta virt. eigenvalues --    0.93477   1.00327   1.28539   1.35020   1.35020
  Beta virt. eigenvalues --    1.44161   1.44161   1.46277   1.76958   2.30848

 Mulliken charges and spin densities:
               1          2
     1  H    0.342418   0.000702
     2  H    0.007814   0.990077
     3  F   -0.350232   0.009221
 Sum of Mulliken charges =  -0.00000   1.00000

 Dipole moment (field-independent basis, Debye):
    X=             -2.3243    Y=             -0.0000    Z=              0.0000  Tot=              2.3243
 Quadrupole moment (field-independent basis, Debye-Ang):
   XX=             -8.4408   YY=             -7.0852   ZZ=             -7.0852
   XY=             -0.0000   XZ=              0.0000   YZ=              0.0000

  Exact polarizability:      11.200       0.000       2.365       0.000       0.000       2.365
 Approx polarizability:      14.059      -0.000       2.328      -0.000       0.000       2.328

 ******    1 imaginary frequencies (negative Signs) ******

                      1                      2                      3
                      A                      A                      A
 Frequencies --   -142.2658              1186.6170              1186.6170
 Red. masses --      1.0510                 1.0300                 1.0300
 Frc consts  --      0.0125                 0.8545                 0.8545
 IR Inten    --      2.1226               139.0042               139.0042

                      4
                      A
 Frequencies --   1436.4544
 Red. masses --      1.0606
 Frc consts  --      1.2894
 IR Inten    --    112.1809

 - Thermochemistry -
 -------------------
 Temperature   298.150 Kelvin.  Pressure   1.00000 Atm.
 Atom     1 has atomic number  1 and mass   1.00783

 Molecular mass:    21.01405 amu.
 Principal axes and moments of inertia in atomic units:
                           1         2         3
     Eigenvalues --     0.00000  51.22645  51.22645
           X            1.00000  -0.00000   0.00000
           Y            0.00000   1.00000   0.00000
           Z            0.00000   0.00000   1.00000
 This molecule is a prolate symmetric top.
 Rotational symmetry number  1.
 Rotational temperature (Kelvin)      1.69080
 Rotational constant (GHZ):          35.230648
    1 imaginary frequencies ignored.
 Zero-point vibrational energy      22787.0 (Joules/Mol)
                                    5.44622 (Kcal/Mol)
 Vibrational temperatures:   1707.28  1707.28  2066.74
          (Kelvin)

 Zero-point correction=                           0.008679 (Hartree/Particle)
 Thermal correction to Energy=                    0.011081
 Thermal correction to Enthalpy=                  0.012026
 Thermal correction to Gibbs Free Energy=        -0.011168
 Sum of electronic and zero-point Energies=           -100.929173
 Sum of electronic and thermal Energies=              -100.926771
 Sum of electronic and thermal Enthalpies=            -100.925827
 Sum of electronic and thermal Free Energies=         -100.949020

                     E (Thermal)             CV                S
                      KCal/Mol        Cal/Mol-Kelvin    Cal/Mol-Kelvin
 Total                    6.954              5.489             48.814
 Electronic               0.000              0.000              1.377
 Translational            0.889              2.981             35.068
 Rotational               0.592              1.987             12.266
 Vibrational              5.472              0.521              0.103

 Normal termination of Gaussian 16 at Fri Aug 22 16:08:09 2025.
