 Gaussian 16, Revision C.01,
 Gaussian 16:  ES64L-G16RevC.01  3-Jul-2019

 -----------------------------------------
 # sp b3lyp/6-311g** Force nosymm scf=(qc)
 -----------------------------------------

 -------------------
 Title Card Required
 -------------------
 Symbolic Z-matrix:
 Charge =  0 Multiplicity = 2

                          Input orientation:
 ---------------------------------------------------------------------
 Center     Atomic      Atomic             Coordinates (Angstroms)
 Number     Number       Type             X           Y           Z
 ---------------------------------------------------------------------
      1          1           0        0.000000    0.000000    0.000000
      2          1           0       -3.250000    0.000000    0.000000
      3          9           0        0.950000    0.000000    0.000000
 ---------------------------------------------------------------------

 SCF Done:  E(UB3LYP) =  -100.971063617     a.u. after    6 cycles

 Alpha  occ. eigenvalues --  -24.64094  -1.17432  -0.52733  -0.39202  -0.39202
 Alpha  occ. eigenvalues --   -0.33879
 Alpha virt. eigenvalues --    0.02034   0.24585   0.36755   0.94232   0.94232
 Alpha virt. eigenvalues --    0.98146   1.23329   1.23642   1.23642   1.30478
 Alpha virt. eigenvalues --    1.36489   1.36489   1.96115   2.14401   2.34972

  Beta  occ. eigenvalues --  -24.64091  -1.17424  -0.52724  -0.39200  -0.39200
  Beta virt. eigenvalues --   -0.06383   0.02909   0.36242   0.39185   0.94232
  Beta virt. eigenvalues --    0.94232   0.98142   1.29792   1.36487   1.36487
  Beta virt. eigenvalues --    1.49937   1.49937   1.49965   1.96163   2.34926

 Mulliken charges and spin densities:
               1          2
     1  H    0.307218   0.000911
     2  H    0.001549   0.998069
     3  F   -0.308767   0.001020
 Sum of Mulliken charges =   0.00000   1.00000

 Dipole moment (field-independent basis, Debye):
    X=             -1.9767    Y=              0.0000    Z=              0.0000  Tot=              1.9767
 Quadrupole moment (field-independent basis, Debye-Ang):
   XX=             -8.0247   YY=             -6.9160   ZZ=             -6.9160
   XY=              0.0000   XZ=              0.0000   YZ=              0.0000

  Exact polarizability:       6.440       0.000       2.417      -0.000       0.000       2.417
 Approx polarizability:       7.581       0.000       2.394       0.000       0.000       2.394

 ******    1 imaginary frequencies (negative Signs) ******

                      1                      2                      3
                      A                      A                      A
 Frequencies --    -56.0876               673.8999               673.8999
 Red. masses --      1.0532                 1.0366                 1.0366
 Frc consts  --      0.0020                 0.2774                 0.2774
 IR Inten    --      0.1006               172.9050               172.9050

                      4
                      A
 Frequencies --   3678.8603
 Red. masses --      1.0583
 Frc consts  --      8.4393
 IR Inten    --     98.8310

 - Thermochemistry -
 -------------------
 Temperature   298.150 Kelvin.  Pressure   1.00000 Atm.
 Atom     1 has atomic number  1 and mass   1.00783

 Molecular mass:    21.01405 amu.
 Principal axes and moments of inertia in atomic units:
                           1         2         3
     Eigenvalues --     0.00000  62.15665  62.15665
           X            1.00000  -0.00000   0.00000
           Y            0.00000   1.00000   0.00000
           Z            0.00000   0.00000   1.00000
 This molecule is a prolate symmetric top.
 Rotational symmetry number  1.
 Rotational temperature (Kelvin)      1.39348
 Rotational constant (GHZ):          29.035368
    1 imaginary frequencies ignored.
 Zero-point vibrational energy      30066.1 (Joules/Mol)
                                    7.18597 (Kcal/Mol)
 Vibrational temperatures:    969.59   969.59  5293.06
          (Kelvin)

 Zero-point correction=                           0.011452 (Hartree/Particle)
 Thermal correction to Energy=                    0.014059
 Thermal correction to Enthalpy=                  0.015003
 Thermal correction to Gibbs Free Energy=        -0.008645
 Sum of electronic and zero-point Energies=           -100.959612
 Sum of electronic and thermal Energies=              -100.957004
 Sum of electronic and thermal Enthalpies=            -100.956060
 Sum of electronic and thermal Free Energies=         -100.979709

                     E (Thermal)             CV                S
                      KCal/Mol        Cal/Mol-Kelvin    Cal/Mol-Kelvin
 Total                    8.822              6.728             49.773
 Electronic               0.000              0.000              1.377
 Translational            0.889              2.981             35.068
 Rotational               0.592              1.987             12.650
 Vibrational              7.341              1.760              0.677

 Normal termination of Gaussian 16 at Fri Aug 22 15:58:59 2025.
