 Gaussian 16, Revision C.01,
 Gaussian 16:  ES64L-G16RevC.01  3-Jul-2019

 -----------------------------------------
 # sp b3lyp/6-311g** Force nosymm scf=(qc)
 -----------------------------------------

 -------------------
 Title Card Required
 -------------------
 Symbolic Z-matrix:
 Charge =  0 Multiplicity = 2

                          Input orientation:
 ---------------------------------------------------------------------
 Center     Atomic      Atomic             Coordinates (Angstroms)
 Number     Number       Type             X           Y           Z
 ---------------------------------------------------------------------
      1          1           0        0.000000    0.000000    0.000000
      2          1           0       -2.150000    0.000000    0.000000
      3          9           0        1.700000    0.000000    0.000000
 ---------------------------------------------------------------------

 SCF Done:  E(UB3LYP) =  -100.824387841     a.u. after   16 cycles

 Alpha  occ. eigenvalues --  -24.65400  -1.11544  -0.44476  -0.37310  -0.37310
 Alpha  occ. eigenvalues --   -0.36739
 Alpha virt. eigenvalues --   -0.13716   0.23570   0.28610   0.94857   0.94857
 Alpha virt. eigenvalues --    0.95896   1.05942   1.20947   1.20947   1.27957
 Alpha virt. eigenvalues --    1.33595   1.33595   1.72485   2.10812   2.26166

  Beta  occ. eigenvalues --  -24.63802  -1.07188  -0.39635  -0.35761  -0.35761
  Beta virt. eigenvalues --   -0.19306  -0.10152   0.25140   0.32841   0.94709
  Beta virt. eigenvalues --    0.94709   0.97650   1.08308   1.26164   1.26164
  Beta virt. eigenvalues --    1.37951   1.37951   1.42445   1.69654   2.12878

 Mulliken charges and spin densities:
               1          2
     1  H    0.249986  -0.437934
     2  H    0.039585   0.935596
     3  F   -0.289572   0.502338
 Sum of Mulliken charges =   0.00000   1.00000

 Dipole moment (field-independent basis, Debye):
    X=             -2.8110    Y=             -0.0000    Z=              0.0000  Tot=              2.8110
 Quadrupole moment (field-independent basis, Debye-Ang):
   XX=             -9.0930   YY=             -7.4290   ZZ=             -7.4290
   XY=             -0.0000   XZ=              0.0000   YZ=             -0.0000

  Exact polarizability:      37.010      -0.000       2.138       0.000      -0.000       2.138
 Approx polarizability:      48.269       0.000       2.045      -0.000      -0.000       2.045

 ******    2 imaginary frequencies (negative Signs) ******

                      1                      2                      3
                      A                      A                      A
 Frequencies --  -1858.2672              -501.7221               786.9428
 Red. masses --      1.0409                 1.0711                 1.0210
 Frc consts  --      2.1178                 0.1589                 0.3725
 IR Inten    --     70.0826                13.6390                46.0791

                      4
                      A
 Frequencies --    786.9428
 Red. masses --      1.0210
 Frc consts  --      0.3725
 IR Inten    --     46.0791

 - Thermochemistry -
 -------------------
 Temperature   298.150 Kelvin.  Pressure   1.00000 Atm.
 Atom     1 has atomic number  1 and mass   1.00783

 Molecular mass:    21.01405 amu.
 Principal axes and moments of inertia in atomic units:
                           1         2         3
     Eigenvalues --     0.00000  58.43071  58.43071
           X            1.00000  -0.00000   0.00000
           Y            0.00000   1.00000   0.00000
           Z            0.00000   0.00000   1.00000
 This molecule is a prolate symmetric top.
 Rotational symmetry number  1.
 Rotational temperature (Kelvin)      1.48234
 Rotational constant (GHZ):          30.886858
    2 imaginary frequencies ignored.
 Zero-point vibrational energy       9413.9 (Joules/Mol)
                                    2.24998 (Kcal/Mol)
 Vibrational temperatures:   1132.24  1132.24
          (Kelvin)

 Zero-point correction=                           0.003586 (Hartree/Particle)
 Thermal correction to Energy=                    0.006111
 Thermal correction to Enthalpy=                  0.007055
 Thermal correction to Gibbs Free Energy=        -0.016421
 Sum of electronic and zero-point Energies=           -100.820802
 Sum of electronic and thermal Energies=              -100.818277
 Sum of electronic and thermal Enthalpies=            -100.817333
 Sum of electronic and thermal Free Energies=         -100.840809

                     E (Thermal)             CV                S
                      KCal/Mol        Cal/Mol-Kelvin    Cal/Mol-Kelvin
 Total                    3.834              6.313             49.409
 Electronic               0.000              0.000              1.377
 Translational            0.889              2.981             35.068
 Rotational               0.592              1.987             12.527
 Vibrational              2.353              1.345              0.436

 Normal termination of Gaussian 16 at Fri Aug 22 16:37:34 2025.
