 Gaussian 16, Revision C.01,
 Gaussian 16:  ES64L-G16RevC.01  3-Jul-2019

 -----------------------------------------
 # sp b3lyp/6-311g** Force nosymm scf=(qc)
 -----------------------------------------

 -------------------
 Title Card Required
 -------------------
 Symbolic Z-matrix:
 Charge =  0 Multiplicity = 2

                          Input orientation:
 ---------------------------------------------------------------------
 Center     Atomic      Atomic             Coordinates (Angstroms)
 Number     Number       Type             X           Y           Z
 ---------------------------------------------------------------------
      1          1           0        0.000000    0.000000    0.000000
      2          1           0       -2.800000    0.000000    0.000000
      3          9           0        3.100000    0.000000    0.000000
 ---------------------------------------------------------------------

 SCF Done:  E(UB3LYP) =  -100.762074887     a.u. after   23 cycles

 Alpha  occ. eigenvalues --  -24.74460  -1.20491  -0.53579  -0.44988  -0.44988
 Alpha  occ. eigenvalues --   -0.32748
 Alpha virt. eigenvalues --   -0.09309   0.25060   0.34606   0.89109   0.92050
 Alpha virt. eigenvalues --    0.92050   1.03379   1.24818   1.24818   1.26069
 Alpha virt. eigenvalues --    1.41948   1.41948   1.42497   2.15724   2.38414

  Beta  occ. eigenvalues --  -24.71408  -1.11737  -0.41932  -0.41932  -0.33551
  Beta virt. eigenvalues --   -0.24993  -0.08174   0.25009   0.36006   0.93519
  Beta virt. eigenvalues --    0.93519   0.97965   1.07263   1.23871   1.23871
  Beta virt. eigenvalues --    1.25051   1.43767   1.43767   1.44113   2.16403

 Mulliken charges and spin densities:
               1          2
     1  H    0.027258  -0.954672
     2  H    0.002286   0.987339
     3  F   -0.029544   0.967333
 Sum of Mulliken charges =  -0.00000   1.00000

 Dipole moment (field-independent basis, Debye):
    X=             -0.5009    Y=             -0.0000    Z=             -0.0000  Tot=              0.5009
 Quadrupole moment (field-independent basis, Debye-Ang):
   XX=             -7.9251   YY=             -7.6352   ZZ=             -7.6352
   XY=             -0.0000   XZ=             -0.0000   YZ=             -0.0000

  Exact polarizability:      36.672      -0.000       2.021      -0.000      -0.000       2.021
 Approx polarizability:      33.188      -0.000       1.925      -0.000       0.000       1.925

 ******    2 imaginary frequencies (negative Signs) ******

                      1                      2                      3
                      A                      A                      A
 Frequencies --   -494.0881              -196.6561               182.0760
 Red. masses --      1.0140                 1.1011                 1.0168
 Frc consts  --      0.1459                 0.0251                 0.0199
 IR Inten    --     23.3364                10.4595                 0.6299

                      4
                      A
 Frequencies --    182.0760
 Red. masses --      1.0168
 Frc consts  --      0.0199
 IR Inten    --      0.6299

 - Thermochemistry -
 -------------------
 Temperature   298.150 Kelvin.  Pressure   1.00000 Atm.
 Atom     1 has atomic number  1 and mass   1.00783

 Molecular mass:    21.01405 amu.
 Principal axes and moments of inertia in atomic units:
                           1         2         3
     Eigenvalues --     0.00000 145.88680 145.88680
           X            1.00000  -0.00000   0.00000
           Y            0.00000   1.00000   0.00000
           Z            0.00000   0.00000   1.00000
 This molecule is a prolate symmetric top.
 Rotational symmetry number  1.
 Rotational temperature (Kelvin)      0.59371
 Rotational constant (GHZ):          12.370833
    2 imaginary frequencies ignored.
 Zero-point vibrational energy       2178.1 (Joules/Mol)
                                    0.52058 (Kcal/Mol)
 Warning -- explicit consideration of   2 degrees of freedom as
           vibrations may cause significant error
 Vibrational temperatures:    261.97   261.97
          (Kelvin)

 Zero-point correction=                           0.000830 (Hartree/Particle)
 Thermal correction to Energy=                    0.004369
 Thermal correction to Enthalpy=                  0.005313
 Thermal correction to Gibbs Free Energy=        -0.021012
 Sum of electronic and zero-point Energies=           -100.761245
 Sum of electronic and thermal Energies=              -100.757706
 Sum of electronic and thermal Enthalpies=            -100.756762
 Sum of electronic and thermal Free Energies=         -100.783087

                     E (Thermal)             CV                S
                      KCal/Mol        Cal/Mol-Kelvin    Cal/Mol-Kelvin
 Total                    2.741              8.696             55.405
 Electronic               0.000              0.000              1.377
 Translational            0.889              2.981             35.068
 Rotational               0.592              1.987             14.346
 Vibrational              1.260              3.728              4.614
 Vibration     1          0.630              1.864              2.307
 Vibration     2          0.630              1.864              2.307

 Normal termination of Gaussian 16 at Fri Aug 22 19:55:32 2025.
