 Gaussian 16, Revision C.01,
 Gaussian 16:  ES64L-G16RevC.01  3-Jul-2019

 -----------------------------------------
 # sp b3lyp/6-311g** Force nosymm scf=(qc)
 -----------------------------------------

 -------------------
 Title Card Required
 -------------------
 Symbolic Z-matrix:
 Charge =  0 Multiplicity = 2

                          Input orientation:
 ---------------------------------------------------------------------
 Center     Atomic      Atomic             Coordinates (Angstroms)
 Number     Number       Type             X           Y           Z
 ---------------------------------------------------------------------
      1          1           0        0.000000    0.000000    0.000000
      2          1           0       -1.100000    0.000000    0.000000
      3          9           0        2.500000    0.000000    0.000000
 ---------------------------------------------------------------------

 SCF Done:  E(UB3LYP) =  -100.890577655     a.u. after   72 cycles

 Alpha  occ. eigenvalues --  -24.76212  -1.22083  -0.55272  -0.46633  -0.46459
 Alpha  occ. eigenvalues --   -0.37842
 Alpha virt. eigenvalues --   -0.01651   0.22332   0.37272   0.87113   0.90839
 Alpha virt. eigenvalues --    0.92396   1.09103   1.10372   1.10384   1.30674
 Alpha virt. eigenvalues --    1.59492   1.59501   2.16748   2.34378   2.56024

  Beta  occ. eigenvalues --  -24.73095  -1.13138  -0.43575  -0.43337  -0.37663
  Beta virt. eigenvalues --   -0.26281  -0.01356   0.22510   0.37563   0.92311
  Beta virt. eigenvalues --    0.93215   0.96777   1.10539   1.10542   1.12885
  Beta virt. eigenvalues --    1.31115   1.59619   1.59627   2.16963   2.34563

 Mulliken charges and spin densities:
               1          2
     1  H   -0.003172  -0.013715
     2  H    0.005679   0.027839
     3  F   -0.002506   0.985876
 Sum of Mulliken charges =   0.00000   1.00000

 Dipole moment (field-independent basis, Debye):
    X=             -0.0926    Y=              0.0018    Z=              0.0024  Tot=              0.0926
 Quadrupole moment (field-independent basis, Debye-Ang):
   XX=             -6.0616   YY=             -7.2229   ZZ=             -7.1008
   XY=              0.2537   XZ=              0.3366   YZ=              0.2130

  Exact polarizability:     121.569      -1.042       2.206       1.036       0.088       2.260
 Approx polarizability:      29.715       0.054       2.242       0.071       0.141       2.322

 ******    1 imaginary frequencies (negative Signs) ******

                      1                      2                      3
                      A                      A                      A
 Frequencies --   -703.6489               611.6981              1455.2084
 Red. masses --      1.0676                 1.0442                 1.0110
 Frc consts  --      0.3114                 0.2302                 1.2614
 IR Inten    --   3388.8053              1125.2713                94.4046

                      4
                      A
 Frequencies --   1511.8421
 Red. masses --      1.0110
 Frc consts  --      1.3615
 IR Inten    --      0.1587

 - Thermochemistry -
 -------------------
 Temperature   298.150 Kelvin.  Pressure   1.00000 Atm.
 Atom     1 has atomic number  1 and mass   1.00783

 Molecular mass:    21.01405 amu.
 Principal axes and moments of inertia in atomic units:
                           1         2         3
     Eigenvalues --     0.00000  62.71425  62.71425
           X            1.00000  -0.00000   0.00000
           Y            0.00000   1.00000   0.00000
           Z            0.00000   0.00000   1.00000
 This molecule is a prolate symmetric top.
 Rotational symmetry number  1.
 Rotational temperature (Kelvin)      1.38109
 Rotational constant (GHZ):          28.777211
    1 imaginary frequencies ignored.
 Zero-point vibrational energy      21405.7 (Joules/Mol)
                                    5.11608 (Kcal/Mol)
 Warning -- explicit consideration of   1 degrees of freedom as
           vibrations may cause significant error
 Vibrational temperatures:    880.10  2093.72  2175.20
          (Kelvin)

 Zero-point correction=                           0.008153 (Hartree/Particle)
 Thermal correction to Energy=                    0.010678
 Thermal correction to Enthalpy=                  0.011622
 Thermal correction to Gibbs Free Energy=        -0.011930
 Sum of electronic and zero-point Energies=           -100.882425
 Sum of electronic and thermal Energies=              -100.879900
 Sum of electronic and thermal Enthalpies=            -100.878956
 Sum of electronic and thermal Free Energies=         -100.902507

                     E (Thermal)             CV                S
                      KCal/Mol        Cal/Mol-Kelvin    Cal/Mol-Kelvin
 Total                    6.700              6.134             49.569
 Electronic               0.000              0.000              1.377
 Translational            0.889              2.981             35.068
 Rotational               0.592              1.987             12.668
 Vibrational              5.219              1.166              0.455
 Vibration     1          0.971              1.007              0.430

 Normal termination of Gaussian 16 at Fri Aug 22 17:43:34 2025.
