 Gaussian 16, Revision C.01,
 Gaussian 16:  ES64L-G16RevC.01  3-Jul-2019

 -----------------------------------------
 # sp b3lyp/6-311g** Force nosymm scf=(qc)
 -----------------------------------------

 -------------------
 Title Card Required
 -------------------
 Symbolic Z-matrix:
 Charge =  0 Multiplicity = 2

                          Input orientation:
 ---------------------------------------------------------------------
 Center     Atomic      Atomic             Coordinates (Angstroms)
 Number     Number       Type             X           Y           Z
 ---------------------------------------------------------------------
      1          1           0        0.000000    0.000000    0.000000
      2          1           0       -2.900000    0.000000    0.000000
      3          9           0        2.450000    0.000000    0.000000
 ---------------------------------------------------------------------

 SCF Done:  E(UB3LYP) =  -100.769752554     a.u. after   26 cycles

 Alpha  occ. eigenvalues --  -24.71445  -1.17674  -0.50540  -0.42461  -0.42461
 Alpha  occ. eigenvalues --   -0.33355
 Alpha virt. eigenvalues --   -0.11267   0.24170   0.34047   0.89713   0.93772
 Alpha virt. eigenvalues --    0.93772   1.06542   1.24200   1.24200   1.25416
 Alpha virt. eigenvalues --    1.39459   1.39459   1.44686   2.15043   2.34287

  Beta  occ. eigenvalues --  -24.68631  -1.09675  -0.39658  -0.39658  -0.35558
  Beta virt. eigenvalues --   -0.23159  -0.08195   0.24871   0.36334   0.95110
  Beta virt. eigenvalues --    0.95110   0.95868   1.08926   1.22018   1.22018
  Beta virt. eigenvalues --    1.31316   1.44038   1.44038   1.44324   2.13799

 Mulliken charges and spin densities:
               1          2
     1  H    0.093061  -0.878816
     2  H    0.004356   0.990202
     3  F   -0.097417   0.888614
 Sum of Mulliken charges =  -0.00000   1.00000

 Dipole moment (field-independent basis, Debye):
    X=             -1.2723    Y=              0.0000    Z=              0.0000  Tot=              1.2723
 Quadrupole moment (field-independent basis, Debye-Ang):
   XX=             -9.1949   YY=             -7.5812   ZZ=             -7.5812
   XY=              0.0000   XZ=              0.0000   YZ=             -0.0000

  Exact polarizability:      35.194       0.000       2.023       0.000      -0.000       2.023
 Approx polarizability:      42.015       0.000       1.919       0.000       0.000       1.919

 ******    2 imaginary frequencies (negative Signs) ******

                      1                      2                      3
                      A                      A                      A
 Frequencies --   -697.9914              -240.5392               277.4632
 Red. masses --      1.0424                 1.0695                 1.0201
 Frc consts  --      0.2992                 0.0365                 0.0463
 IR Inten    --     77.9375                 4.8073                 7.8036

                      4
                      A
 Frequencies --    277.4632
 Red. masses --      1.0201
 Frc consts  --      0.0463
 IR Inten    --      7.8036

 - Thermochemistry -
 -------------------
 Temperature   298.150 Kelvin.  Pressure   1.00000 Atm.
 Atom     1 has atomic number  1 and mass   1.00783

 Molecular mass:    21.01405 amu.
 Principal axes and moments of inertia in atomic units:
                           1         2         3
     Eigenvalues --     0.00000 114.11427 114.11427
           X            1.00000  -0.00000   0.00000
           Y            0.00000   1.00000   0.00000
           Z            0.00000   0.00000   1.00000
 This molecule is a prolate symmetric top.
 Rotational symmetry number  1.
 Rotational temperature (Kelvin)      0.75901
 Rotational constant (GHZ):          15.815211
    2 imaginary frequencies ignored.
 Zero-point vibrational energy       3319.2 (Joules/Mol)
                                    0.79331 (Kcal/Mol)
 Warning -- explicit consideration of   2 degrees of freedom as
           vibrations may cause significant error
 Vibrational temperatures:    399.21   399.21
          (Kelvin)

 Zero-point correction=                           0.001264 (Hartree/Particle)
 Thermal correction to Energy=                    0.004523
 Thermal correction to Enthalpy=                  0.005467
 Thermal correction to Gibbs Free Energy=        -0.019906
 Sum of electronic and zero-point Energies=           -100.768488
 Sum of electronic and thermal Energies=              -100.765230
 Sum of electronic and thermal Enthalpies=            -100.764286
 Sum of electronic and thermal Free Energies=         -100.789658

                     E (Thermal)             CV                S
                      KCal/Mol        Cal/Mol-Kelvin    Cal/Mol-Kelvin
 Total                    2.838              8.398             53.401
 Electronic               0.000              0.000              1.377
 Translational            0.889              2.981             35.068
 Rotational               0.592              1.987             13.857
 Vibrational              1.357              3.430              3.099
 Vibration     1          0.678              1.715              1.549
 Vibration     2          0.678              1.715              1.549

 Normal termination of Gaussian 16 at Fri Aug 22 17:39:12 2025.
