 Gaussian 16, Revision C.01,
 Gaussian 16:  ES64L-G16RevC.01  3-Jul-2019

 -----------------------------------------
 # sp b3lyp/6-311g** Force nosymm scf=(qc)
 -----------------------------------------

 -------------------
 Title Card Required
 -------------------
 Symbolic Z-matrix:
 Charge =  0 Multiplicity = 2

                          Input orientation:
 ---------------------------------------------------------------------
 Center     Atomic      Atomic             Coordinates (Angstroms)
 Number     Number       Type             X           Y           Z
 ---------------------------------------------------------------------
      1          1           0        0.000000    0.000000    0.000000
      2          1           0       -3.650000    0.000000    0.000000
      3          9           0        3.850000    0.000000    0.000000
 ---------------------------------------------------------------------

 SCF Done:  E(UB3LYP) =  -100.758605703     a.u. after   49 cycles

 Alpha  occ. eigenvalues --  -24.75790  -1.21724  -0.54915  -0.46107  -0.46107
 Alpha  occ. eigenvalues --   -0.32259
 Alpha virt. eigenvalues --   -0.06473   0.24264   0.37681   0.86768   0.91228
 Alpha virt. eigenvalues --    0.91228   1.01209   1.25240   1.25240   1.25327
 Alpha virt. eigenvalues --    1.45783   1.45989   1.45989   2.14893   2.41619

  Beta  occ. eigenvalues --  -24.72650  -1.12696  -0.42959  -0.42959  -0.32513
  Beta virt. eigenvalues --   -0.25687  -0.06217   0.24082   0.38109   0.92725
  Beta virt. eigenvalues --    0.92725   0.96096   1.05314   1.24962   1.24962
  Beta virt. eigenvalues --    1.25033   1.46198   1.46393   1.46393   2.14908

 Mulliken charges and spin densities:
               1          2
     1  H    0.003971  -0.994054
     2  H    0.000059   0.998519
     3  F   -0.004031   0.995535
 Sum of Mulliken charges =  -0.00000   1.00000

 Dipole moment (field-independent basis, Debye):
    X=             -0.0813    Y=             -0.0000    Z=             -0.0000  Tot=              0.0813
 Quadrupole moment (field-independent basis, Debye-Ang):
   XX=             -7.0122   YY=             -7.6217   ZZ=             -7.6217
   XY=             -0.0000   XZ=             -0.0000   YZ=              0.0000

  Exact polarizability:      13.835      -0.000       2.032      -0.000       0.000       2.032
 Approx polarizability:      10.214      -0.000       1.936      -0.000       0.000       1.936

 ******    2 imaginary frequencies (negative Signs) ******

                      1                      2                      3
                      A                      A                      A
 Frequencies --   -178.7117               -74.9843                58.1035
 Red. masses --      1.0171                 1.0975                 1.0173
 Frc consts  --      0.0191                 0.0036                 0.0020
 IR Inten    --      2.0612                 0.5835                 0.0153

                      4
                      A
 Frequencies --     58.1035
 Red. masses --      1.0173
 Frc consts  --      0.0020
 IR Inten    --      0.0153

 - Thermochemistry -
 -------------------
 Temperature   298.150 Kelvin.  Pressure   1.00000 Atm.
 Atom     1 has atomic number  1 and mass   1.00783

 Molecular mass:    21.01405 amu.
 Principal axes and moments of inertia in atomic units:
                           1         2         3
     Eigenvalues --     0.00000 233.55488 233.55488
           X            1.00000  -0.00000   0.00000
           Y            0.00000   1.00000   0.00000
           Z            0.00000   0.00000   1.00000
 This molecule is a prolate symmetric top.
 Rotational symmetry number  1.
 Rotational temperature (Kelvin)      0.37085
 Rotational constant (GHZ):           7.727268
    2 imaginary frequencies ignored.
 Zero-point vibrational energy        695.1 (Joules/Mol)
                                    0.16613 (Kcal/Mol)
 Warning -- explicit consideration of   2 degrees of freedom as
           vibrations may cause significant error
 Vibrational temperatures:     83.60    83.60
          (Kelvin)

 Zero-point correction=                           0.000265 (Hartree/Particle)
 Thermal correction to Energy=                    0.004261
 Thermal correction to Enthalpy=                  0.005205
 Thermal correction to Gibbs Free Energy=        -0.023667
 Sum of electronic and zero-point Energies=           -100.758341
 Sum of electronic and thermal Energies=              -100.754345
 Sum of electronic and thermal Enthalpies=            -100.753400
 Sum of electronic and thermal Free Energies=         -100.782273

                     E (Thermal)             CV                S
                      KCal/Mol        Cal/Mol-Kelvin    Cal/Mol-Kelvin
 Total                    2.674              8.916             60.767
 Electronic               0.000              0.000              1.377
 Translational            0.889              2.981             35.068
 Rotational               0.592              1.987             15.281
 Vibrational              1.193              3.948              9.041
 Vibration     1          0.596              1.974              4.521
 Vibration     2          0.596              1.974              4.521

 Normal termination of Gaussian 16 at Sat Aug 23 01:11:24 2025.
