 Gaussian 16, Revision C.01,
 Gaussian 16:  ES64L-G16RevC.01  3-Jul-2019

 -----------------------------------------
 # sp b3lyp/6-311g** Force nosymm scf=(qc)
 -----------------------------------------

 -------------------
 Title Card Required
 -------------------
 Symbolic Z-matrix:
 Charge =  0 Multiplicity = 2

                          Input orientation:
 ---------------------------------------------------------------------
 Center     Atomic      Atomic             Coordinates (Angstroms)
 Number     Number       Type             X           Y           Z
 ---------------------------------------------------------------------
      1          1           0        0.000000    0.000000    0.000000
      2          1           0       -0.950000    0.000000    0.000000
      3          9           0        3.750000    0.000000    0.000000
 ---------------------------------------------------------------------

 SCF Done:  E(UB3LYP) =  -100.914802385     a.u. after  219 cycles

 Alpha  occ. eigenvalues --  -24.76255  -1.22141  -0.55343  -0.46525  -0.46499
 Alpha  occ. eigenvalues --   -0.39613
 Alpha virt. eigenvalues --    0.01499   0.21094   0.40082   0.86039   0.90915
 Alpha virt. eigenvalues --    0.91861   1.01164   1.08710   1.08712   1.41569
 Alpha virt. eigenvalues --    1.69028   1.69031   2.20847   2.36794   2.64708

  Beta  occ. eigenvalues --  -24.73099  -1.13065  -0.43362  -0.43334  -0.39610
  Beta virt. eigenvalues --   -0.25989   0.01504   0.21099   0.40108   0.92416
  Beta virt. eigenvalues --    0.93355   0.95504   1.05293   1.08709   1.08712
  Beta virt. eigenvalues --    1.41572   1.69028   1.69031   2.20853   2.36795

 Mulliken charges and spin densities:
               1          2
     1  H    0.000284  -0.000167
     2  H   -0.002190  -0.000044
     3  F    0.001906   1.000211
 Sum of Mulliken charges =   0.00000   1.00000

 Dipole moment (field-independent basis, Debye):
    X=              0.0302    Y=              0.0000    Z=              0.0000  Tot=              0.0302
 Quadrupole moment (field-independent basis, Debye-Ang):
   XX=             -6.3026   YY=             -6.7840   ZZ=             -6.7771
   XY=             -0.0000   XZ=              0.0000   YZ=             -0.4322

  Exact polarizability:      11.160      -0.000       2.274       0.000      -0.233       2.278
 Approx polarizability:      14.297      -0.000       2.389       0.000      -0.291       2.393

 ******    1 imaginary frequencies (negative Signs) ******

                      1                      2                      3
                      A                      A                      A
 Frequencies --    -64.0547              1517.8008              1517.8523
 Red. masses --      1.1085                 1.0091                 1.0091
 Frc consts  --      0.0027                 1.3696                 1.3697
 IR Inten    --      0.0777                 0.0003                 0.0002

                      4
                      A
 Frequencies --   2199.9040
 Red. masses --      1.0078
 Frc consts  --      2.8737
 IR Inten    --      0.0702

 - Thermochemistry -
 -------------------
 Temperature   298.150 Kelvin.  Pressure   1.00000 Atm.
 Atom     1 has atomic number  1 and mass   1.00783

 Molecular mass:    21.01405 amu.
 Principal axes and moments of inertia in atomic units:
                           1         2         3
     Eigenvalues --     0.00000 117.78859 117.78859
           X            1.00000  -0.00000   0.00000
           Y            0.00000   1.00000   0.00000
           Z            0.00000   0.00000   1.00000
 This molecule is a prolate symmetric top.
 Rotational symmetry number  1.
 Rotational temperature (Kelvin)      0.73533
 Rotational constant (GHZ):          15.321868
    1 imaginary frequencies ignored.
 Zero-point vibrational energy      31315.6 (Joules/Mol)
                                    7.48460 (Kcal/Mol)
 Vibrational temperatures:   2183.78  2183.85  3165.17
          (Kelvin)

 Zero-point correction=                           0.011927 (Hartree/Particle)
 Thermal correction to Energy=                    0.014297
 Thermal correction to Enthalpy=                  0.015241
 Thermal correction to Gibbs Free Energy=        -0.008700
 Sum of electronic and zero-point Energies=           -100.902875
 Sum of electronic and thermal Energies=              -100.900505
 Sum of electronic and thermal Enthalpies=            -100.899561
 Sum of electronic and thermal Free Energies=         -100.923502

                     E (Thermal)             CV                S
                      KCal/Mol        Cal/Mol-Kelvin    Cal/Mol-Kelvin
 Total                    8.972              5.114             50.388
 Electronic               0.000              0.000              1.377
 Translational            0.889              2.981             35.068
 Rotational               0.592              1.987             13.920
 Vibrational              7.490              0.146              0.022

 Normal termination of Gaussian 16 at Sat Aug 23 00:11:34 2025.
