 Gaussian 16, Revision C.01,
 Gaussian 16:  ES64L-G16RevC.01  3-Jul-2019

 -----------------------------------------
 # sp b3lyp/6-311g** Force nosymm scf=(qc)
 -----------------------------------------

 -------------------
 Title Card Required
 -------------------
 Symbolic Z-matrix:
 Charge =  0 Multiplicity = 2

                          Input orientation:
 ---------------------------------------------------------------------
 Center     Atomic      Atomic             Coordinates (Angstroms)
 Number     Number       Type             X           Y           Z
 ---------------------------------------------------------------------
      1          1           0        0.000000    0.000000    0.000000
      2          1           0       -3.650000    0.000000    0.000000
      3          9           0        2.250000    0.000000    0.000000
 ---------------------------------------------------------------------

 SCF Done:  E(UB3LYP) =  -100.774154395     a.u. after   16 cycles

 Alpha  occ. eigenvalues --  -24.67403  -1.08832  -0.38668  -0.38668  -0.36525
 Alpha  occ. eigenvalues --   -0.32995
 Alpha virt. eigenvalues --   -0.22188   0.20698   0.27818   0.92041   0.95553
 Alpha virt. eigenvalues --    0.95553   1.08225   1.21536   1.21536   1.24463
 Alpha virt. eigenvalues --    1.24463   1.24488   1.39552   2.10530   2.15782

  Beta  occ. eigenvalues --  -24.70070  -1.16369  -0.49137  -0.41315  -0.41315
  Beta virt. eigenvalues --   -0.12180  -0.04545   0.31355   0.40225   0.88573
  Beta virt. eigenvalues --    0.94398   0.94398   1.06112   1.38101   1.38101
  Beta virt. eigenvalues --    1.48013   1.48013   1.48079   1.50198   2.32953

 Mulliken charges and spin densities:
               1          2
     1  H    0.134178   0.841090
     2  H    0.000736   0.999279
     3  F   -0.134914  -0.840370
 Sum of Mulliken charges =  -0.00000   1.00000

 Dipole moment (field-independent basis, Debye):
    X=             -1.5381    Y=             -0.0000    Z=             -0.0000  Tot=              1.5381
 Quadrupole moment (field-independent basis, Debye-Ang):
   XX=             -9.7984   YY=             -7.5259   ZZ=             -7.5259
   XY=              0.0000   XZ=             -0.0000   YZ=             -0.0000

  Exact polarizability:      28.578       0.000       2.037      -0.000       0.000       2.037
 Approx polarizability:      39.347       0.000       1.927      -0.000       0.000       1.927

 ******    1 imaginary frequencies (negative Signs) ******

                      1                      2                      3
                      A                      A                      A
 Frequencies --   -801.9986                62.9610               333.6404
 Red. masses --      1.0592                 1.0523                 1.0247
 Frc consts  --      0.4014                 0.0025                 0.0672
 IR Inten    --     96.9969                 0.0835                17.2430

                      4
                      A
 Frequencies --    333.6404
 Red. masses --      1.0247
 Frc consts  --      0.0672
 IR Inten    --     17.2430

 - Thermochemistry -
 -------------------
 Temperature   298.150 Kelvin.  Pressure   1.00000 Atm.
 Atom     1 has atomic number  1 and mass   1.00783

 Molecular mass:    21.01405 amu.
 Principal axes and moments of inertia in atomic units:
                           1         2         3
     Eigenvalues --     0.00000 132.03649 132.03649
           X            1.00000  -0.00000   0.00000
           Y            0.00000   1.00000   0.00000
           Z            0.00000   0.00000   1.00000
 This molecule is a prolate symmetric top.
 Rotational symmetry number  1.
 Rotational temperature (Kelvin)      0.65598
 Rotational constant (GHZ):          13.668504
    1 imaginary frequencies ignored.
 Zero-point vibrational energy       4367.8 (Joules/Mol)
                                    1.04393 (Kcal/Mol)
 Warning -- explicit consideration of   3 degrees of freedom as
           vibrations may cause significant error
 Vibrational temperatures:     90.59   480.03   480.03
          (Kelvin)

 Zero-point correction=                           0.001664 (Hartree/Particle)
 Thermal correction to Energy=                    0.005592
 Thermal correction to Enthalpy=                  0.006536
 Thermal correction to Gibbs Free Energy=        -0.020756
 Sum of electronic and zero-point Energies=           -100.772491
 Sum of electronic and thermal Energies=              -100.768563
 Sum of electronic and thermal Enthalpies=            -100.767619
 Sum of electronic and thermal Free Energies=         -100.794910

                     E (Thermal)             CV                S
                      KCal/Mol        Cal/Mol-Kelvin    Cal/Mol-Kelvin
 Total                    3.509             10.157             57.440
 Electronic               0.000              0.000              1.377
 Translational            0.889              2.981             35.068
 Rotational               0.592              1.987             14.147
 Vibrational              2.028              5.189              6.847
 Vibration     1          0.597              1.972              4.362
 Vibration     2          0.715              1.608              1.242
 Vibration     3          0.715              1.608              1.242

 Normal termination of Gaussian 16 at Fri Aug 22 17:17:57 2025.
