 Gaussian 16, Revision C.01,
 Gaussian 16:  ES64L-G16RevC.01  3-Jul-2019

 -----------------------------------------
 # sp b3lyp/6-311g** Force nosymm scf=(qc)
 -----------------------------------------

 -------------------
 Title Card Required
 -------------------
 Symbolic Z-matrix:
 Charge =  0 Multiplicity = 2

                          Input orientation:
 ---------------------------------------------------------------------
 Center     Atomic      Atomic             Coordinates (Angstroms)
 Number     Number       Type             X           Y           Z
 ---------------------------------------------------------------------
      1          1           0        0.000000    0.000000    0.000000
      2          1           0       -2.450000    0.000000    0.000000
      3          9           0        2.300000    0.000000    0.000000
 ---------------------------------------------------------------------

 SCF Done:  E(UB3LYP) =  -100.776979282     a.u. after   20 cycles

 Alpha  occ. eigenvalues --  -24.70433  -1.16707  -0.49508  -0.41604  -0.41604
 Alpha  occ. eigenvalues --   -0.34284
 Alpha virt. eigenvalues --   -0.12752   0.24554   0.32548   0.89354   0.94273
 Alpha virt. eigenvalues --    0.94273   1.06615   1.23389   1.23389   1.26788
 Alpha virt. eigenvalues --    1.36644   1.36644   1.47268   2.14087   2.31383

  Beta  occ. eigenvalues --  -24.67723  -1.09030  -0.38910  -0.38910  -0.36128
  Beta virt. eigenvalues --   -0.22525  -0.09956   0.25763   0.34414   0.94365
  Beta virt. eigenvalues --    0.95497   0.95497   1.09063   1.21950   1.21950
  Beta virt. eigenvalues --    1.37487   1.41013   1.41013   1.43101   2.13378

 Mulliken charges and spin densities:
               1          2
     1  H    0.107198  -0.820828
     2  H    0.015244   0.965961
     3  F   -0.122441   0.854867
 Sum of Mulliken charges =   0.00000   1.00000

 Dipole moment (field-independent basis, Debye):
    X=             -1.5989    Y=              0.0000    Z=             -0.0000  Tot=              1.5989
 Quadrupole moment (field-independent basis, Debye-Ang):
   XX=             -9.0620   YY=             -7.5864   ZZ=             -7.5864
   XY=              0.0000   XZ=             -0.0000   YZ=             -0.0000

  Exact polarizability:      42.993       0.000       2.024      -0.000       0.000       2.024
 Approx polarizability:      48.284      -0.000       1.923       0.000       0.000       1.923

 ******    2 imaginary frequencies (negative Signs) ******

                      1                      2                      3
                      A                      A                      A
 Frequencies --   -945.8169              -387.5716               386.2705
 Red. masses --      1.0266                 1.0866                 1.0187
 Frc consts  --      0.5411                 0.0962                 0.0896
 IR Inten    --     67.4332                25.3283                 9.2935

                      4
                      A
 Frequencies --    386.2705
 Red. masses --      1.0187
 Frc consts  --      0.0896
 IR Inten    --      9.2935

 - Thermochemistry -
 -------------------
 Temperature   298.150 Kelvin.  Pressure   1.00000 Atm.
 Atom     1 has atomic number  1 and mass   1.00783

 Molecular mass:    21.01405 amu.
 Principal axes and moments of inertia in atomic units:
                           1         2         3
     Eigenvalues --     0.00000  91.66239  91.66239
           X            1.00000  -0.00000   0.00000
           Y            0.00000   1.00000   0.00000
           Z            0.00000   0.00000   1.00000
 This molecule is a prolate symmetric top.
 Rotational symmetry number  1.
 Rotational temperature (Kelvin)      0.94492
 Rotational constant (GHZ):          19.689004
    2 imaginary frequencies ignored.
 Zero-point vibrational energy       4620.8 (Joules/Mol)
                                    1.10440 (Kcal/Mol)
 Warning -- explicit consideration of   2 degrees of freedom as
           vibrations may cause significant error
 Vibrational temperatures:    555.76   555.76
          (Kelvin)

 Zero-point correction=                           0.001760 (Hartree/Particle)
 Thermal correction to Energy=                    0.004766
 Thermal correction to Enthalpy=                  0.005711
 Thermal correction to Gibbs Free Energy=        -0.018947
 Sum of electronic and zero-point Energies=           -100.775219
 Sum of electronic and thermal Energies=              -100.772213
 Sum of electronic and thermal Enthalpies=            -100.771269
 Sum of electronic and thermal Free Energies=         -100.795926

                     E (Thermal)             CV                S
                      KCal/Mol        Cal/Mol-Kelvin    Cal/Mol-Kelvin
 Total                    2.991              7.967             51.897
 Electronic               0.000              0.000              1.377
 Translational            0.889              2.981             35.068
 Rotational               0.592              1.987             13.422
 Vibrational              1.510              2.999              2.029
 Vibration     1          0.755              1.499              1.015
 Vibration     2          0.755              1.499              1.015

 Normal termination of Gaussian 16 at Fri Aug 22 17:22:20 2025.
