 Gaussian 16, Revision C.01,
 Gaussian 16:  ES64L-G16RevC.01  3-Jul-2019

 -----------------------------------------
 # sp b3lyp/6-311g** Force nosymm scf=(qc)
 -----------------------------------------

 -------------------
 Title Card Required
 -------------------
 Symbolic Z-matrix:
 Charge =  0 Multiplicity = 2

                          Input orientation:
 ---------------------------------------------------------------------
 Center     Atomic      Atomic             Coordinates (Angstroms)
 Number     Number       Type             X           Y           Z
 ---------------------------------------------------------------------
      1          1           0        0.000000    0.000000    0.000000
      2          1           0       -1.300000    0.000000    0.000000
      3          9           0        1.100000    0.000000    0.000000
 ---------------------------------------------------------------------

 SCF Done:  E(UB3LYP) =  -100.953662999     a.u. after    6 cycles

 Alpha  occ. eigenvalues --  -24.63787  -1.14037  -0.52743  -0.37829  -0.37829
 Alpha  occ. eigenvalues --   -0.37446
 Alpha virt. eigenvalues --    0.06822   0.19775   0.33286   0.92861   0.92861
 Alpha virt. eigenvalues --    0.99591   1.11406   1.11406   1.21500   1.47495
 Alpha virt. eigenvalues --    1.47495   1.55307   2.07678   2.32834   2.48927

  Beta  occ. eigenvalues --  -24.63145  -1.12422  -0.48781  -0.37248  -0.37248
  Beta virt. eigenvalues --   -0.18798   0.09574   0.23639   0.37281   0.93416
  Beta virt. eigenvalues --    0.93416   1.00991   1.19390   1.19390   1.28558
  Beta virt. eigenvalues --    1.52156   1.52156   1.58226   2.20697   2.31804

 Mulliken charges and spin densities:
               1          2
     1  H    0.293625  -0.030047
     2  H    0.046225   0.850534
     3  F   -0.339851   0.179513
 Sum of Mulliken charges =  -0.00000   1.00000

 Dipole moment (field-independent basis, Debye):
    X=             -2.4348    Y=             -0.0000    Z=              0.0000  Tot=              2.4348
 Quadrupole moment (field-independent basis, Debye-Ang):
   XX=             -7.7827   YY=             -6.8627   ZZ=             -6.8627
   XY=             -0.0000   XZ=             -0.0000   YZ=              0.0000

  Exact polarizability:      17.319       0.000       2.518      -0.000      -0.000       2.518
 Approx polarizability:      20.760      -0.000       2.512       0.000      -0.000       2.512

 ******    1 imaginary frequencies (negative Signs) ******

                      1                      2                      3
                      A                      A                      A
 Frequencies --  -1089.7092              1020.9096              1020.9096
 Red. masses --      1.0082                 1.0201                 1.0201
 Frc consts  --      0.7053                 0.6264                 0.6264
 IR Inten    --      0.9174                66.9201                66.9201

                      4
                      A
 Frequencies --   1281.2000
 Red. masses --      1.1081
 Frc consts  --      1.0717
 IR Inten    --     68.3576

 - Thermochemistry -
 -------------------
 Temperature   298.150 Kelvin.  Pressure   1.00000 Atm.
 Atom     1 has atomic number  1 and mass   1.00783

 Molecular mass:    21.01405 amu.
 Principal axes and moments of inertia in atomic units:
                           1         2         3
     Eigenvalues --     0.00000  22.97065  22.97065
           X            1.00000  -0.00000   0.00000
           Y            0.00000   1.00000   0.00000
           Z            0.00000   0.00000   1.00000
 This molecule is a prolate symmetric top.
 Rotational symmetry number  1.
 Rotational temperature (Kelvin)      3.77063
 Rotational constant (GHZ):          78.567251
    1 imaginary frequencies ignored.
 Zero-point vibrational energy      19876.1 (Joules/Mol)
                                    4.75049 (Kcal/Mol)
 Vibrational temperatures:   1468.86  1468.86  1843.36
          (Kelvin)

 Zero-point correction=                           0.007570 (Hartree/Particle)
 Thermal correction to Energy=                    0.010011
 Thermal correction to Enthalpy=                  0.010955
 Thermal correction to Gibbs Free Energy=        -0.011528
 Sum of electronic and zero-point Energies=           -100.946093
 Sum of electronic and thermal Energies=              -100.943652
 Sum of electronic and thermal Enthalpies=            -100.942708
 Sum of electronic and thermal Free Energies=         -100.965191

                     E (Thermal)             CV                S
                      KCal/Mol        Cal/Mol-Kelvin    Cal/Mol-Kelvin
 Total                    6.282              5.835             47.319
 Electronic               0.000              0.000              1.377
 Translational            0.889              2.981             35.068
 Rotational               0.592              1.987             10.672
 Vibrational              4.801              0.867              0.201

 Normal termination of Gaussian 16 at Fri Aug 22 16:04:51 2025.
