 Gaussian 16, Revision C.01,
 Gaussian 16:  ES64L-G16RevC.01  3-Jul-2019

 -----------------------------------------
 # sp b3lyp/6-311g** Force nosymm scf=(qc)
 -----------------------------------------

 -------------------
 Title Card Required
 -------------------
 Symbolic Z-matrix:
 Charge =  0 Multiplicity = 2

                          Input orientation:
 ---------------------------------------------------------------------
 Center     Atomic      Atomic             Coordinates (Angstroms)
 Number     Number       Type             X           Y           Z
 ---------------------------------------------------------------------
      1          1           0        0.000000    0.000000    0.000000
      2          1           0       -1.400000    0.000000    0.000000
      3          9           0        2.050000    0.000000    0.000000
 ---------------------------------------------------------------------

 SCF Done:  E(UB3LYP) =  -100.846495059     a.u. after   12 cycles

 Alpha  occ. eigenvalues --  -24.70978  -1.17289  -0.50490  -0.42130  -0.42130
 Alpha  occ. eigenvalues --   -0.38040
 Alpha virt. eigenvalues --   -0.08993   0.22340   0.31801   0.86294   0.93253
 Alpha virt. eigenvalues --    0.93253   1.03631   1.14541   1.14541   1.29547
 Alpha virt. eigenvalues --    1.42377   1.42377   1.89758   2.22687   2.48058

  Beta  occ. eigenvalues --  -24.68279  -1.09667  -0.39453  -0.39453  -0.37518
  Beta virt. eigenvalues --   -0.24161  -0.07363   0.23880   0.31948   0.91321
  Beta virt. eigenvalues --    0.94405   0.94405   1.07344   1.16120   1.16120
  Beta virt. eigenvalues --    1.33490   1.43281   1.43281   1.91351   2.23849

 Mulliken charges and spin densities:
               1          2
     1  H    0.061751  -0.256117
     2  H    0.058124   0.408434
     3  F   -0.119875   0.847684
 Sum of Mulliken charges =  -0.00000   1.00000

 Dipole moment (field-independent basis, Debye):
    X=             -1.6058    Y=             -0.0000    Z=              0.0000  Tot=              1.6058
 Quadrupole moment (field-independent basis, Debye-Ang):
   XX=             -7.3383   YY=             -7.5111   ZZ=             -7.5111
   XY=             -0.0000   XZ=              0.0000   YZ=              0.0000

  Exact polarizability:      50.569      -0.000       2.128       0.000      -0.000       2.128
 Approx polarizability:      77.410       0.000       2.097      -0.000      -0.000       2.097

 ******    2 imaginary frequencies (negative Signs) ******

                      1                      2                      3
                      A                      A                      A
 Frequencies --  -2039.6421              -395.1979              1200.1283
 Red. masses --      1.0118                 1.1037                 1.0140
 Frc consts  --      2.4800                 0.1016                 0.8605
 IR Inten    --   1029.4796                11.5036                 0.6003

                      4
                      A
 Frequencies --   1200.1283
 Red. masses --      1.0140
 Frc consts  --      0.8605
 IR Inten    --      0.6003

 - Thermochemistry -
 -------------------
 Temperature   298.150 Kelvin.  Pressure   1.00000 Atm.
 Atom     1 has atomic number  1 and mass   1.00783

 Molecular mass:    21.01405 amu.
 Principal axes and moments of inertia in atomic units:
                           1         2         3
     Eigenvalues --     0.00000  52.74067  52.74067
           X            1.00000  -0.00000   0.00000
           Y            0.00000   1.00000   0.00000
           Z            0.00000   0.00000   1.00000
 This molecule is a prolate symmetric top.
 Rotational symmetry number  1.
 Rotational temperature (Kelvin)      1.64226
 Rotational constant (GHZ):          34.219154
    2 imaginary frequencies ignored.
 Zero-point vibrational energy      14356.7 (Joules/Mol)
                                    3.43134 (Kcal/Mol)
 Vibrational temperatures:   1726.72  1726.72
          (Kelvin)

 Zero-point correction=                           0.005468 (Hartree/Particle)
 Thermal correction to Energy=                    0.007862
 Thermal correction to Enthalpy=                  0.008806
 Thermal correction to Gibbs Free Energy=        -0.014405
 Sum of electronic and zero-point Energies=           -100.841027
 Sum of electronic and thermal Energies=              -100.838633
 Sum of electronic and thermal Enthalpies=            -100.837689
 Sum of electronic and thermal Free Energies=         -100.860900

                     E (Thermal)             CV                S
                      KCal/Mol        Cal/Mol-Kelvin    Cal/Mol-Kelvin
 Total                    4.934              5.378             48.852
 Electronic               0.000              0.000              1.377
 Translational            0.889              2.981             35.068
 Rotational               0.592              1.987             12.324
 Vibrational              3.452              0.410              0.083

 Normal termination of Gaussian 16 at Fri Aug 22 16:59:35 2025.
