 Gaussian 16, Revision C.01,
 Gaussian 16:  ES64L-G16RevC.01  3-Jul-2019

 -----------------------------------------
 # sp b3lyp/6-311g** Force nosymm scf=(qc)
 -----------------------------------------

 -------------------
 Title Card Required
 -------------------
 Symbolic Z-matrix:
 Charge =  0 Multiplicity = 2

                          Input orientation:
 ---------------------------------------------------------------------
 Center     Atomic      Atomic             Coordinates (Angstroms)
 Number     Number       Type             X           Y           Z
 ---------------------------------------------------------------------
      1          1           0        0.000000    0.000000    0.000000
      2          1           0       -3.200000    0.000000    0.000000
      3          9           0        2.550000    0.000000    0.000000
 ---------------------------------------------------------------------

 SCF Done:  E(UB3LYP) =  -100.766853538     a.u. after   20 cycles

 Alpha  occ. eigenvalues --  -24.72030  -1.18228  -0.51135  -0.42953  -0.42953
 Alpha  occ. eigenvalues --   -0.33007
 Alpha virt. eigenvalues --   -0.10327   0.23862   0.35005   0.89885   0.93461
 Alpha virt. eigenvalues --    0.93461   1.06256   1.24518   1.24518   1.25015
 Alpha virt. eigenvalues --    1.40878   1.40878   1.43945   2.14897   2.36031

  Beta  occ. eigenvalues --  -24.69162  -1.10058  -0.40093  -0.40093  -0.35161
  Beta virt. eigenvalues --   -0.23532  -0.07338   0.24353   0.37301   0.94844
  Beta virt. eigenvalues --    0.94844   0.96778   1.08833   1.22265   1.22265
  Beta virt. eigenvalues --    1.28396   1.45050   1.45237   1.45237   2.13703

 Mulliken charges and spin densities:
               1          2
     1  H    0.081345  -0.901993
     2  H    0.001806   0.995571
     3  F   -0.083150   0.906422
 Sum of Mulliken charges =  -0.00000   1.00000

 Dipole moment (field-independent basis, Debye):
    X=             -1.1083    Y=              0.0000    Z=             -0.0000  Tot=              1.1083
 Quadrupole moment (field-independent basis, Debye-Ang):
   XX=             -9.1384   YY=             -7.5827   ZZ=             -7.5827
   XY=              0.0000   XZ=              0.0000   YZ=             -0.0000

  Exact polarizability:      32.896       0.000       2.023       0.000      -0.000       2.023
 Approx polarizability:      39.744       0.000       1.920       0.000       0.000       1.920

 ******    2 imaginary frequencies (negative Signs) ******

                      1                      2                      3
                      A                      A                      A
 Frequencies --   -603.8007              -169.8686               233.7325
 Red. masses --      1.0489                 1.0628                 1.0209
 Frc consts  --      0.2253                 0.0181                 0.0329
 IR Inten    --     74.3215                 1.3010                 6.1657

                      4
                      A
 Frequencies --    233.7325
 Red. masses --      1.0209
 Frc consts  --      0.0329
 IR Inten    --      6.1657

 - Thermochemistry -
 -------------------
 Temperature   298.150 Kelvin.  Pressure   1.00000 Atm.
 Atom     1 has atomic number  1 and mass   1.00783

 Molecular mass:    21.01405 amu.
 Principal axes and moments of inertia in atomic units:
                           1         2         3
     Eigenvalues --     0.00000 130.50388 130.50388
           X            1.00000  -0.00000   0.00000
           Y            0.00000   1.00000   0.00000
           Z            0.00000   0.00000   1.00000
 This molecule is a prolate symmetric top.
 Rotational symmetry number  1.
 Rotational temperature (Kelvin)      0.66369
 Rotational constant (GHZ):          13.829023
    2 imaginary frequencies ignored.
 Zero-point vibrational energy       2796.1 (Joules/Mol)
                                    0.66827 (Kcal/Mol)
 Warning -- explicit consideration of   2 degrees of freedom as
           vibrations may cause significant error
 Vibrational temperatures:    336.29   336.29
          (Kelvin)

 Zero-point correction=                           0.001065 (Hartree/Particle)
 Thermal correction to Energy=                    0.004445
 Thermal correction to Enthalpy=                  0.005389
 Thermal correction to Gibbs Free Energy=        -0.020396
 Sum of electronic and zero-point Energies=           -100.765789
 Sum of electronic and thermal Energies=              -100.762409
 Sum of electronic and thermal Enthalpies=            -100.761464
 Sum of electronic and thermal Free Energies=         -100.787250

                     E (Thermal)             CV                S
                      KCal/Mol        Cal/Mol-Kelvin    Cal/Mol-Kelvin
 Total                    2.789              8.547             54.270
 Electronic               0.000              0.000              1.377
 Translational            0.889              2.981             35.068
 Rotational               0.592              1.987             14.124
 Vibrational              1.308              3.579              3.700
 Vibration     1          0.654              1.789              1.850
 Vibration     2          0.654              1.789              1.850

 Normal termination of Gaussian 16 at Fri Aug 22 17:55:00 2025.
