 Gaussian 16, Revision C.01,
 Gaussian 16:  ES64L-G16RevC.01  3-Jul-2019

 -----------------------------------------
 # sp b3lyp/6-311g** Force nosymm scf=(qc)
 -----------------------------------------

 -------------------
 Title Card Required
 -------------------
 Symbolic Z-matrix:
 Charge =  0 Multiplicity = 2

                          Input orientation:
 ---------------------------------------------------------------------
 Center     Atomic      Atomic             Coordinates (Angstroms)
 Number     Number       Type             X           Y           Z
 ---------------------------------------------------------------------
      1          1           0        0.000000    0.000000    0.000000
      2          1           0       -3.900000    0.000000    0.000000
      3          9           0        3.250000    0.000000    0.000000
 ---------------------------------------------------------------------

 SCF Done:  E(UB3LYP) =  -100.759573312     a.u. after   25 cycles

 Alpha  occ. eigenvalues --  -24.74845  -1.20849  -0.53967  -0.45312  -0.45312
 Alpha  occ. eigenvalues --   -0.32366
 Alpha virt. eigenvalues --   -0.06962   0.24019   0.36697   0.88448   0.91815
 Alpha virt. eigenvalues --    0.91815   1.02644   1.25130   1.25130   1.25160
 Alpha virt. eigenvalues --    1.45501   1.45501   1.45844   2.14509   2.41700

  Beta  occ. eigenvalues --  -24.71766  -1.12011  -0.42227  -0.42227  -0.33188
  Beta virt. eigenvalues --   -0.25196  -0.05955   0.23773   0.38154   0.93293
  Beta virt. eigenvalues --    0.93293   0.97396   1.06532   1.24186   1.24186
  Beta virt. eigenvalues --    1.24243   1.46561   1.46694   1.46694   2.14742

 Mulliken charges and spin densities:
               1          2
     1  H    0.021751  -0.975300
     2  H    0.000103   0.999217
     3  F   -0.021854   0.976083
 Sum of Mulliken charges =  -0.00000   1.00000

 Dipole moment (field-independent basis, Debye):
    X=             -0.3669    Y=             -0.0000    Z=             -0.0000  Tot=              0.3669
 Quadrupole moment (field-independent basis, Debye-Ang):
   XX=             -7.8499   YY=             -7.6134   ZZ=             -7.6134
   XY=             -0.0000   XZ=             -0.0000   YZ=             -0.0000

  Exact polarizability:      28.260      -0.000       2.031      -0.000      -0.000       2.031
 Approx polarizability:      25.386      -0.000       1.931      -0.000       0.000       1.931

 ******    2 imaginary frequencies (negative Signs) ******

                      1                      2                      3
                      A                      A                      A
 Frequencies --   -281.7947               -75.8017                89.8103
 Red. masses --      1.0500                 1.0616                 1.0203
 Frc consts  --      0.0491                 0.0036                 0.0048
 IR Inten    --     23.6145                 0.1693                 0.4454

                      4
                      A
 Frequencies --     89.8103
 Red. masses --      1.0203
 Frc consts  --      0.0048
 IR Inten    --      0.4454

 - Thermochemistry -
 -------------------
 Temperature   298.150 Kelvin.  Pressure   1.00000 Atm.
 Atom     1 has atomic number  1 and mass   1.00783

 Molecular mass:    21.01405 amu.
 Principal axes and moments of inertia in atomic units:
                           1         2         3
     Eigenvalues --     0.00000 203.33568 203.33568
           X            1.00000  -0.00000   0.00000
           Y            0.00000   1.00000   0.00000
           Z            0.00000   0.00000   1.00000
 This molecule is a prolate symmetric top.
 Rotational symmetry number  1.
 Rotational temperature (Kelvin)      0.42597
 Rotational constant (GHZ):           8.875674
    2 imaginary frequencies ignored.
 Zero-point vibrational energy       1074.4 (Joules/Mol)
                                    0.25678 (Kcal/Mol)
 Warning -- explicit consideration of   2 degrees of freedom as
           vibrations may cause significant error
 Vibrational temperatures:    129.22   129.22
          (Kelvin)

 Zero-point correction=                           0.000409 (Hartree/Particle)
 Thermal correction to Energy=                    0.004278
 Thermal correction to Enthalpy=                  0.005222
 Thermal correction to Gibbs Free Energy=        -0.022705
 Sum of electronic and zero-point Energies=           -100.759164
 Sum of electronic and thermal Energies=              -100.755295
 Sum of electronic and thermal Enthalpies=            -100.754351
 Sum of electronic and thermal Free Energies=         -100.782279

                     E (Thermal)             CV                S
                      KCal/Mol        Cal/Mol-Kelvin    Cal/Mol-Kelvin
 Total                    2.685              8.881             58.779
 Electronic               0.000              0.000              1.377
 Translational            0.889              2.981             35.068
 Rotational               0.592              1.987             15.005
 Vibrational              1.203              3.913              7.328
 Vibration     1          0.602              1.956              3.664
 Vibration     2          0.602              1.956              3.664

 Normal termination of Gaussian 16 at Fri Aug 22 20:36:42 2025.
