 Gaussian 16, Revision C.01,
 Gaussian 16:  ES64L-G16RevC.01  3-Jul-2019

 -----------------------------------------
 # sp b3lyp/6-311g** Force nosymm scf=(qc)
 -----------------------------------------

 -------------------
 Title Card Required
 -------------------
 Symbolic Z-matrix:
 Charge =  0 Multiplicity = 2

                          Input orientation:
 ---------------------------------------------------------------------
 Center     Atomic      Atomic             Coordinates (Angstroms)
 Number     Number       Type             X           Y           Z
 ---------------------------------------------------------------------
      1          1           0        0.000000    0.000000    0.000000
      2          1           0       -3.900000    0.000000    0.000000
      3          9           0        1.850000    0.000000    0.000000
 ---------------------------------------------------------------------

 SCF Done:  E(UB3LYP) =  -100.799108460     a.u. after   16 cycles

 Alpha  occ. eigenvalues --  -24.64955  -1.07575  -0.38981  -0.36699  -0.36699
 Alpha  occ. eigenvalues --   -0.33331
 Alpha virt. eigenvalues --   -0.19646   0.19808   0.26686   0.92032   0.95001
 Alpha virt. eigenvalues --    0.95001   1.07940   1.23117   1.23117   1.24139
 Alpha virt. eigenvalues --    1.24162   1.24162   1.61972   2.10443   2.15369

  Beta  occ. eigenvalues --  -24.67002  -1.13237  -0.45844  -0.38702  -0.38702
  Beta virt. eigenvalues --   -0.14900  -0.04915   0.27054   0.39358   0.91396
  Beta virt. eigenvalues --    0.94839   0.94839   1.05657   1.34074   1.34074
  Beta virt. eigenvalues --    1.47136   1.47136   1.47334   1.67561   2.26252

 Mulliken charges and spin densities:
               1          2
     1  H    0.240139   0.644214
     2  H    0.000545   0.999470
     3  F   -0.240684  -0.643684
 Sum of Mulliken charges =   0.00000   1.00000

 Dipole moment (field-independent basis, Debye):
    X=             -2.1894    Y=              0.0000    Z=             -0.0000  Tot=              2.1894
 Quadrupole moment (field-independent basis, Debye-Ang):
   XX=            -10.2458   YY=             -7.4457   ZZ=             -7.4457
   XY=              0.0000   XZ=             -0.0000   YZ=             -0.0000

  Exact polarizability:      23.001       0.000       2.087      -0.000       0.000       2.087
 Approx polarizability:      35.951      -0.000       1.975      -0.000       0.000       1.975

 ******    1 imaginary frequencies (negative Signs) ******

                      1                      2                      3
                      A                      A                      A
 Frequencies --  -1403.6231                32.8046               608.4518
 Red. masses --      1.0585                 1.0531                 1.0289
 Frc consts  --      1.2287                 0.0007                 0.2244
 IR Inten    --    132.4042                 0.0520                54.6524

                      4
                      A
 Frequencies --    608.4518
 Red. masses --      1.0289
 Frc consts  --      0.2244
 IR Inten    --     54.6524

 - Thermochemistry -
 -------------------
 Temperature   298.150 Kelvin.  Pressure   1.00000 Atm.
 Atom     1 has atomic number  1 and mass   1.00783

 Molecular mass:    21.01405 amu.
 Principal axes and moments of inertia in atomic units:
                           1         2         3
     Eigenvalues --     0.00000 121.34005 121.34005
           X            1.00000  -0.00000   0.00000
           Y            0.00000   1.00000   0.00000
           Z            0.00000   0.00000   1.00000
 This molecule is a prolate symmetric top.
 Rotational symmetry number  1.
 Rotational temperature (Kelvin)      0.71381
 Rotational constant (GHZ):          14.873417
    1 imaginary frequencies ignored.
 Zero-point vibrational energy       7474.9 (Joules/Mol)
                                    1.78655 (Kcal/Mol)
 Warning -- explicit consideration of   3 degrees of freedom as
           vibrations may cause significant error
 Vibrational temperatures:     47.20   875.43   875.43
          (Kelvin)

 Zero-point correction=                           0.002847 (Hartree/Particle)
 Thermal correction to Energy=                    0.006390
 Thermal correction to Enthalpy=                  0.007334
 Thermal correction to Gibbs Free Energy=        -0.019724
 Sum of electronic and zero-point Energies=           -100.796261
 Sum of electronic and thermal Energies=              -100.792719
 Sum of electronic and thermal Enthalpies=            -100.791775
 Sum of electronic and thermal Free Energies=         -100.818832

                     E (Thermal)             CV                S
                      KCal/Mol        Cal/Mol-Kelvin    Cal/Mol-Kelvin
 Total                    4.010              8.979             56.948
 Electronic               0.000              0.000              1.377
 Translational            0.889              2.981             35.068
 Rotational               0.592              1.987             13.979
 Vibrational              2.528              4.011              6.523
 Vibration     1          0.594              1.983              5.652
 Vibration     2          0.967              1.014              0.435
 Vibration     3          0.967              1.014              0.435

 Normal termination of Gaussian 16 at Fri Aug 22 16:48:36 2025.
