 Gaussian 16, Revision C.01,
 Gaussian 16:  ES64L-G16RevC.01  3-Jul-2019

 -----------------------------------------
 # sp b3lyp/6-311g** Force nosymm scf=(qc)
 -----------------------------------------

 -------------------
 Title Card Required
 -------------------
 Symbolic Z-matrix:
 Charge =  0 Multiplicity = 2

                          Input orientation:
 ---------------------------------------------------------------------
 Center     Atomic      Atomic             Coordinates (Angstroms)
 Number     Number       Type             X           Y           Z
 ---------------------------------------------------------------------
      1          1           0        0.000000    0.000000    0.000000
      2          1           0       -1.900000    0.000000    0.000000
      3          9           0        2.800000    0.000000    0.000000
 ---------------------------------------------------------------------

 SCF Done:  E(UB3LYP) =  -100.782674230     a.u. after   21 cycles

 Alpha  occ. eigenvalues --  -24.73632  -1.19717  -0.52751  -0.44290  -0.44290
 Alpha  occ. eigenvalues --   -0.34260
 Alpha virt. eigenvalues --   -0.12148   0.25160   0.31414   0.90186   0.92544
 Alpha virt. eigenvalues --    0.92544   1.04962   1.13744   1.23623   1.23623
 Alpha virt. eigenvalues --    1.35911   1.35911   1.54312   2.12339   2.37606

  Beta  occ. eigenvalues --  -24.70644  -1.11168  -0.41303  -0.41303  -0.34304
  Beta virt. eigenvalues --   -0.24635  -0.11512   0.26170   0.31559   0.93988
  Beta virt. eigenvalues --    0.93988   0.98459   1.08353   1.14703   1.23567
  Beta virt. eigenvalues --    1.23567   1.36848   1.36848   1.55032   2.13471

 Mulliken charges and spin densities:
               1          2
     1  H    0.024576  -0.757642
     2  H    0.022596   0.811722
     3  F   -0.047173   0.945921
 Sum of Mulliken charges =   0.00000   1.00000

 Dipole moment (field-independent basis, Debye):
    X=             -0.8811    Y=              0.0000    Z=              0.0000  Tot=              0.8811
 Quadrupole moment (field-independent basis, Debye-Ang):
   XX=             -7.4835   YY=             -7.7084   ZZ=             -7.7084
   XY=             -0.0000   XZ=             -0.0000   YZ=             -0.0000

  Exact polarizability:      62.363      -0.000       2.005      -0.000      -0.000       2.005
 Approx polarizability:      63.925      -0.000       1.938      -0.000      -0.000       1.938

 ******    2 imaginary frequencies (negative Signs) ******

                      1                      2                      3
                      A                      A                      A
 Frequencies --  -1556.7819              -291.0170               648.1838
 Red. masses --      1.0081                 1.1082                 1.0139
 Frc consts  --      1.4395                 0.0553                 0.2510
 IR Inten    --     75.8098                39.1572                 0.1984

                      4
                      A
 Frequencies --    648.1838
 Red. masses --      1.0139
 Frc consts  --      0.2510
 IR Inten    --      0.1984

 - Thermochemistry -
 -------------------
 Temperature   298.150 Kelvin.  Pressure   1.00000 Atm.
 Atom     1 has atomic number  1 and mass   1.00783

 Molecular mass:    21.01405 amu.
 Principal axes and moments of inertia in atomic units:
                           1         2         3
     Eigenvalues --     0.00000  98.00919  98.00919
           X            1.00000  -0.00000   0.00000
           Y            0.00000   1.00000   0.00000
           Z            0.00000   0.00000   1.00000
 This molecule is a prolate symmetric top.
 Rotational symmetry number  1.
 Rotational temperature (Kelvin)      0.88373
 Rotational constant (GHZ):          18.414000
    2 imaginary frequencies ignored.
 Zero-point vibrational energy       7754.0 (Joules/Mol)
                                    1.85325 (Kcal/Mol)
 Vibrational temperatures:    932.59   932.59
          (Kelvin)

 Zero-point correction=                           0.002953 (Hartree/Particle)
 Thermal correction to Energy=                    0.005584
 Thermal correction to Enthalpy=                  0.006529
 Thermal correction to Gibbs Free Energy=        -0.017583
 Sum of electronic and zero-point Energies=           -100.779721
 Sum of electronic and thermal Energies=              -100.777090
 Sum of electronic and thermal Enthalpies=            -100.776146
 Sum of electronic and thermal Free Energies=         -100.800258

                     E (Thermal)             CV                S
                      KCal/Mol        Cal/Mol-Kelvin    Cal/Mol-Kelvin
 Total                    3.504              6.831             50.748
 Electronic               0.000              0.000              1.377
 Translational            0.889              2.981             35.068
 Rotational               0.592              1.987             13.555
 Vibrational              2.023              1.863              0.748

 Normal termination of Gaussian 16 at Fri Aug 22 18:42:53 2025.
