 Gaussian 16, Revision C.01,
 Gaussian 16:  ES64L-G16RevC.01  3-Jul-2019

 -----------------------------------------
 # sp b3lyp/6-311g** Force nosymm scf=(qc)
 -----------------------------------------

 -------------------
 Title Card Required
 -------------------
 Symbolic Z-matrix:
 Charge =  0 Multiplicity = 2

                          Input orientation:
 ---------------------------------------------------------------------
 Center     Atomic      Atomic             Coordinates (Angstroms)
 Number     Number       Type             X           Y           Z
 ---------------------------------------------------------------------
      1          1           0        0.000000    0.000000    0.000000
      2          1           0       -0.550000    0.000000    0.000000
      3          9           0        2.200000    0.000000    0.000000
 ---------------------------------------------------------------------

 SCF Done:  E(UB3LYP) =  -100.893850276     a.u. after   58 cycles

 Alpha  occ. eigenvalues --  -24.75851  -1.21799  -0.55533  -0.48482  -0.46174
 Alpha  occ. eigenvalues --   -0.46174
 Alpha virt. eigenvalues --    0.10489   0.19400   0.52588   0.90782   0.90782
 Alpha virt. eigenvalues --    0.91306   1.10281   1.10281   1.15932   1.61961
 Alpha virt. eigenvalues --    1.81641   1.95397   1.95397   2.40704   3.65997

  Beta  occ. eigenvalues --  -24.72733  -1.12861  -0.48855  -0.43055  -0.43055
  Beta virt. eigenvalues --   -0.25998   0.10999   0.19903   0.52886   0.92233
  Beta virt. eigenvalues --    0.92233   0.99354   1.10514   1.10514   1.20113
  Beta virt. eigenvalues --    1.62406   1.81893   1.95475   1.95475   2.41027

 Mulliken charges and spin densities:
               1          2
     1  H   -0.016633  -0.010867
     2  H    0.023304   0.027825
     3  F   -0.006671   0.983042
 Sum of Mulliken charges =   0.00000   1.00000

 Dipole moment (field-independent basis, Debye):
    X=             -0.1288    Y=             -0.0000    Z=             -0.0000  Tot=              0.1288
 Quadrupole moment (field-independent basis, Debye-Ang):
   XX=             -5.5785   YY=             -6.6518   ZZ=             -6.6518
   XY=              0.0000   XZ=              0.0000   YZ=             -0.0000

  Exact polarizability:       9.359       0.000       1.932       0.000      -0.000       1.932
 Approx polarizability:       9.622       0.000       2.007       0.000       0.000       2.007

 ******    2 imaginary frequencies (negative Signs) ******

                      1                      2                      3
                      A                      A                      A
 Frequencies --  -3813.2852             -3813.2831               100.7720
 Red. masses --      1.0091                 1.0091                 1.1085
 Frc consts  --      8.6450                 8.6450                 0.0066
 IR Inten    --      0.1469                 0.1469                 4.1056

                      4
                      A
 Frequencies --   8327.1442
 Red. masses --      1.0078
 Frc consts  --     41.1744
 IR Inten    --     37.9112

 - Thermochemistry -
 -------------------
 Temperature   298.150 Kelvin.  Pressure   1.00000 Atm.
 Atom     1 has atomic number  1 and mass   1.00783

 Molecular mass:    21.01405 amu.
 Principal axes and moments of inertia in atomic units:
                           1         2         3
     Eigenvalues --     0.00000  40.40740  40.40740
           X            1.00000  -0.00000   0.00000
           Y            0.00000   1.00000   0.00000
           Z            0.00000   0.00000   1.00000
 This molecule is a prolate symmetric top.
 Rotational symmetry number  1.
 Rotational temperature (Kelvin)      2.14352
 Rotational constant (GHZ):          44.663628
    2 imaginary frequencies ignored.
 Zero-point vibrational energy      50410.1 (Joules/Mol)
                                   12.04831 (Kcal/Mol)
 Warning -- explicit consideration of   1 degrees of freedom as
           vibrations may cause significant error
 Vibrational temperatures:    144.99 11980.90
          (Kelvin)

 Zero-point correction=                           0.019200 (Hartree/Particle)
 Thermal correction to Energy=                    0.022294
 Thermal correction to Enthalpy=                  0.023238
 Thermal correction to Gibbs Free Energy=        -0.001316
 Sum of electronic and zero-point Energies=           -100.874650
 Sum of electronic and thermal Energies=              -100.871556
 Sum of electronic and thermal Enthalpies=            -100.870612
 Sum of electronic and thermal Free Energies=         -100.895167

                     E (Thermal)             CV                S
                      KCal/Mol        Cal/Mol-Kelvin    Cal/Mol-Kelvin
 Total                   13.990              6.917             51.679
 Electronic               0.000              0.000              1.377
 Translational            0.889              2.981             35.068
 Rotational               0.592              1.987             11.794
 Vibrational             12.508              1.949              3.439
 Vibration     1          0.604              1.949              3.439

 Normal termination of Gaussian 16 at Fri Aug 22 17:09:58 2025.
