 Gaussian 16, Revision C.01,
 Gaussian 16:  ES64L-G16RevC.01  3-Jul-2019

 -----------------------------------------
 # sp b3lyp/6-311g** Force nosymm scf=(qc)
 -----------------------------------------

 -------------------
 Title Card Required
 -------------------
 Symbolic Z-matrix:
 Charge =  0 Multiplicity = 2

                          Input orientation:
 ---------------------------------------------------------------------
 Center     Atomic      Atomic             Coordinates (Angstroms)
 Number     Number       Type             X           Y           Z
 ---------------------------------------------------------------------
      1          1           0        0.000000    0.000000    0.000000
      2          1           0       -0.750000    0.000000    0.000000
      3          9           0        4.000000    0.000000    0.000000
 ---------------------------------------------------------------------

 SCF Done:  E(UB3LYP) =  -100.933592605     a.u. after  110 cycles

 Alpha  occ. eigenvalues --  -24.76166  -1.22063  -0.55268  -0.46440  -0.46424
 Alpha  occ. eigenvalues --   -0.43201
 Alpha virt. eigenvalues --    0.05717   0.19788   0.46663   0.86100   0.90978
 Alpha virt. eigenvalues --    0.91589   1.01023   1.08492   1.08493   1.54946
 Alpha virt. eigenvalues --    1.82343   1.82345   1.95970   2.37843   3.28161

  Beta  occ. eigenvalues --  -24.73010  -1.12989  -0.43326  -0.43260  -0.43152
  Beta virt. eigenvalues --   -0.25918   0.05722   0.19791   0.46682   0.92478
  Beta virt. eigenvalues --    0.93078   0.95567   1.05165   1.08492   1.08493
  Beta virt. eigenvalues --    1.54947   1.82343   1.82345   1.95976   2.37843

 Mulliken charges and spin densities:
               1          2
     1  H    0.000411  -0.000125
     2  H   -0.001551   0.000004
     3  F    0.001140   1.000121
 Sum of Mulliken charges =   0.00000   1.00000

 Dipole moment (field-independent basis, Debye):
    X=              0.0187    Y=              0.0000    Z=              0.0000  Tot=              0.0187
 Quadrupole moment (field-independent basis, Debye-Ang):
   XX=             -6.3106   YY=             -6.7754   ZZ=             -6.2599
   XY=              0.0000   XZ=             -0.0001   YZ=             -0.3471

  Exact polarizability:       8.024       0.000       2.052       0.000      -0.187       2.330
 Approx polarizability:       9.314       0.000       2.150      -0.000      -0.234       2.497

 ******    1 imaginary frequencies (negative Signs) ******

                      1                      2                      3
                      A                      A                      A
 Frequencies --    -65.9877               390.0734               398.8613
 Red. masses --      1.1085                 1.0086                 1.0086
 Frc consts  --      0.0028                 0.0904                 0.0945
 IR Inten    --      0.0384                 0.0008                 0.0001

                      4
                      A
 Frequencies --   4337.3122
 Red. masses --      1.0078
 Frc consts  --     11.1706
 IR Inten    --      0.0192

 - Thermochemistry -
 -------------------
 Temperature   298.150 Kelvin.  Pressure   1.00000 Atm.
 Atom     1 has atomic number  1 and mass   1.00783

 Molecular mass:    21.01405 amu.
 Principal axes and moments of inertia in atomic units:
                           1         2         3
     Eigenvalues --     0.00000 125.57155 125.57155
           X            1.00000  -0.00000   0.00000
           Y            0.00000   1.00000   0.00000
           Z            0.00000   0.00000   1.00000
 This molecule is a prolate symmetric top.
 Rotational symmetry number  1.
 Rotational temperature (Kelvin)      0.68976
 Rotational constant (GHZ):          14.372214
    1 imaginary frequencies ignored.
 Zero-point vibrational energy      30661.8 (Joules/Mol)
                                    7.32834 (Kcal/Mol)
 Warning -- explicit consideration of   2 degrees of freedom as
           vibrations may cause significant error
 Vibrational temperatures:    561.23   573.87  6240.42
          (Kelvin)

 Zero-point correction=                           0.011678 (Hartree/Particle)
 Thermal correction to Energy=                    0.014669
 Thermal correction to Enthalpy=                  0.015613
 Thermal correction to Gibbs Free Energy=        -0.009313
 Sum of electronic and zero-point Energies=           -100.921914
 Sum of electronic and thermal Energies=              -100.918924
 Sum of electronic and thermal Enthalpies=            -100.917980
 Sum of electronic and thermal Free Energies=         -100.942905

                     E (Thermal)             CV                S
                      KCal/Mol        Cal/Mol-Kelvin    Cal/Mol-Kelvin
 Total                    9.205              7.932             52.460
 Electronic               0.000              0.000              1.377
 Translational            0.889              2.981             35.068
 Rotational               0.592              1.987             14.048
 Vibrational              7.723              2.964              1.967
 Vibration     1          0.758              1.491              1.000
 Vibration     2          0.765              1.473              0.967

 Normal termination of Gaussian 16 at Sat Aug 23 01:44:10 2025.
