 Gaussian 16, Revision C.01,
 Gaussian 16:  ES64L-G16RevC.01  3-Jul-2019

 -----------------------------------------
 # sp b3lyp/6-311g** Force nosymm scf=(qc)
 -----------------------------------------

 -------------------
 Title Card Required
 -------------------
 Symbolic Z-matrix:
 Charge =  0 Multiplicity = 2

                          Input orientation:
 ---------------------------------------------------------------------
 Center     Atomic      Atomic             Coordinates (Angstroms)
 Number     Number       Type             X           Y           Z
 ---------------------------------------------------------------------
      1          1           0        0.000000    0.000000    0.000000
      2          1           0       -2.050000    0.000000    0.000000
      3          9           0        1.450000    0.000000    0.000000
 ---------------------------------------------------------------------

 SCF Done:  E(UB3LYP) =  -100.870149888     a.u. after    9 cycles

 Alpha  occ. eigenvalues --  -24.63744  -1.09845  -0.44416  -0.36943  -0.36098
 Alpha  occ. eigenvalues --   -0.36098
 Alpha virt. eigenvalues --   -0.10710   0.23345   0.27176   0.93942   0.93942
 Alpha virt. eigenvalues --    1.03037   1.07029   1.20240   1.20240   1.33440
 Alpha virt. eigenvalues --    1.33614   1.33614   1.72644   2.09954   2.26027

  Beta  occ. eigenvalues --  -24.63273  -1.08609  -0.42678  -0.35654  -0.35654
  Beta virt. eigenvalues --   -0.17316  -0.06413   0.26179   0.33076   0.93828
  Beta virt. eigenvalues --    0.93828   1.04510   1.10578   1.31488   1.31488
  Beta virt. eigenvalues --    1.38666   1.38666   1.46443   1.72717   2.17567

 Mulliken charges and spin densities:
               1          2
     1  H    0.319156  -0.092081
     2  H    0.039641   0.945366
     3  F   -0.358797   0.146715
 Sum of Mulliken charges =   0.00000   1.00000

 Dipole moment (field-independent basis, Debye):
    X=             -2.9648    Y=              0.0000    Z=             -0.0000  Tot=              2.9648
 Quadrupole moment (field-independent basis, Debye-Ang):
   XX=             -8.8174   YY=             -7.2711   ZZ=             -7.2711
   XY=             -0.0000   XZ=             -0.0000   YZ=             -0.0000

  Exact polarizability:      24.899      -0.000       2.250       0.000       0.000       2.250
 Approx polarizability:      35.692      -0.000       2.186      -0.000       0.000       2.186

 ******    2 imaginary frequencies (negative Signs) ******

                      1                      2                      3
                      A                      A                      A
 Frequencies --  -1616.2900              -341.6265              1021.3664
 Red. masses --      1.0368                 1.0755                 1.0226
 Frc consts  --      1.5958                 0.0740                 0.6285
 IR Inten    --    118.7631                 0.2255                79.6686

                      4
                      A
 Frequencies --   1021.3664
 Red. masses --      1.0226
 Frc consts  --      0.6285
 IR Inten    --     79.6686

 - Thermochemistry -
 -------------------
 Temperature   298.150 Kelvin.  Pressure   1.00000 Atm.
 Atom     1 has atomic number  1 and mass   1.00783

 Molecular mass:    21.01405 amu.
 Principal axes and moments of inertia in atomic units:
                           1         2         3
     Eigenvalues --     0.00000  47.42547  47.42547
           X            1.00000  -0.00000   0.00000
           Y            0.00000   1.00000   0.00000
           Z            0.00000   0.00000   1.00000
 This molecule is a prolate symmetric top.
 Rotational symmetry number  1.
 Rotational temperature (Kelvin)      1.82632
 Rotational constant (GHZ):          38.054261
    2 imaginary frequencies ignored.
 Zero-point vibrational energy      12218.3 (Joules/Mol)
                                    2.92023 (Kcal/Mol)
 Vibrational temperatures:   1469.52  1469.52
          (Kelvin)

 Zero-point correction=                           0.004654 (Hartree/Particle)
 Thermal correction to Energy=                    0.007082
 Thermal correction to Enthalpy=                  0.008026
 Thermal correction to Gibbs Free Energy=        -0.015127
 Sum of electronic and zero-point Energies=           -100.865496
 Sum of electronic and thermal Energies=              -100.863068
 Sum of electronic and thermal Enthalpies=            -100.862124
 Sum of electronic and thermal Free Energies=         -100.885277

                     E (Thermal)             CV                S
                      KCal/Mol        Cal/Mol-Kelvin    Cal/Mol-Kelvin
 Total                    4.444              5.677             48.730
 Electronic               0.000              0.000              1.377
 Translational            0.889              2.981             35.068
 Rotational               0.592              1.987             12.113
 Vibrational              2.963              0.709              0.172

 Normal termination of Gaussian 16 at Fri Aug 22 16:22:51 2025.
