 Gaussian 16, Revision C.01,
 Gaussian 16:  ES64L-G16RevC.01  3-Jul-2019

 -----------------------------------------
 # sp b3lyp/6-311g** Force nosymm scf=(qc)
 -----------------------------------------

 -------------------
 Title Card Required
 -------------------
 Symbolic Z-matrix:
 Charge =  0 Multiplicity = 2

                          Input orientation:
 ---------------------------------------------------------------------
 Center     Atomic      Atomic             Coordinates (Angstroms)
 Number     Number       Type             X           Y           Z
 ---------------------------------------------------------------------
      1          1           0        0.000000    0.000000    0.000000
      2          1           0       -1.450000    0.000000    0.000000
      3          9           0        0.900000    0.000000    0.000000
 ---------------------------------------------------------------------

 SCF Done:  E(UB3LYP) =  -100.969267413     a.u. after    6 cycles

 Alpha  occ. eigenvalues --  -24.63574  -1.18948  -0.55129  -0.39371  -0.39371
 Alpha  occ. eigenvalues --   -0.36796
 Alpha virt. eigenvalues --    0.10915   0.20914   0.39821   0.94156   0.94156
 Alpha virt. eigenvalues --    0.97868   1.15067   1.15067   1.24861   1.43804
 Alpha virt. eigenvalues --    1.43804   1.53802   2.07567   2.24046   2.65062

  Beta  occ. eigenvalues --  -24.63329  -1.18325  -0.53496  -0.39161  -0.39161
  Beta virt. eigenvalues --   -0.14988   0.12786   0.27108   0.43851   0.94399
  Beta virt. eigenvalues --    0.94399   0.98379   1.25747   1.25747   1.32733
  Beta virt. eigenvalues --    1.49337   1.49337   1.58050   2.18367   2.30665

 Mulliken charges and spin densities:
               1          2
     1  H    0.273279   0.005712
     2  H    0.025917   0.935849
     3  F   -0.299196   0.058439
 Sum of Mulliken charges =   0.00000   1.00000

 Dipole moment (field-independent basis, Debye):
    X=             -2.0690    Y=             -0.0000    Z=              0.0000  Tot=              2.0690
 Quadrupole moment (field-independent basis, Debye-Ang):
   XX=             -7.4776   YY=             -6.7423   ZZ=             -6.7423
   XY=             -0.0000   XZ=              0.0000   YZ=              0.0000

  Exact polarizability:      10.775       0.000       2.544      -0.000       0.000       2.544
 Approx polarizability:      11.242       0.000       2.549      -0.000       0.000       2.549

 ******    2 imaginary frequencies (negative Signs) ******

                      1                      2                      3
                      A                      A                      A
 Frequencies --   -768.3082              -768.3082               637.3312
 Red. masses --      1.0246                 1.0246                 1.0516
 Frc consts  --      0.3564                 0.3564                 0.2517
 IR Inten    --    112.4703               112.4703                 1.0146

                      4
                      A
 Frequencies --   4291.5894
 Red. masses --      1.0600
 Frc consts  --     11.5021
 IR Inten    --    190.7864

 - Thermochemistry -
 -------------------
 Temperature   298.150 Kelvin.  Pressure   1.00000 Atm.
 Atom     1 has atomic number  1 and mass   1.00783

 Molecular mass:    21.01405 amu.
 Principal axes and moments of inertia in atomic units:
                           1         2         3
     Eigenvalues --     0.00000  20.96756  20.96756
           X            1.00000  -0.00000   0.00000
           Y            0.00000   1.00000   0.00000
           Z            0.00000   0.00000   1.00000
 This molecule is a prolate symmetric top.
 Rotational symmetry number  1.
 Rotational temperature (Kelvin)      4.13085
 Rotational constant (GHZ):          86.073015
    2 imaginary frequencies ignored.
 Zero-point vibrational energy      29481.5 (Joules/Mol)
                                    7.04625 (Kcal/Mol)
 Vibrational temperatures:    916.98  6174.64
          (Kelvin)

 Zero-point correction=                           0.011229 (Hartree/Particle)
 Thermal correction to Energy=                    0.013730
 Thermal correction to Enthalpy=                  0.014674
 Thermal correction to Gibbs Free Energy=        -0.007812
 Sum of electronic and zero-point Energies=           -100.958039
 Sum of electronic and thermal Energies=              -100.955538
 Sum of electronic and thermal Enthalpies=            -100.954593
 Sum of electronic and thermal Free Energies=         -100.977079

                     E (Thermal)             CV                S
                      KCal/Mol        Cal/Mol-Kelvin    Cal/Mol-Kelvin
 Total                    8.616              5.922             47.326
 Electronic               0.000              0.000              1.377
 Translational            0.889              2.981             35.068
 Rotational               0.592              1.987             10.491
 Vibrational              7.134              0.954              0.390

 Normal termination of Gaussian 16 at Fri Aug 22 15:55:27 2025.
