 Gaussian 16, Revision C.01,
 Gaussian 16:  ES64L-G16RevC.01  3-Jul-2019

 -----------------------------------------
 # sp b3lyp/6-311g** Force nosymm scf=(qc)
 -----------------------------------------

 -------------------
 Title Card Required
 -------------------
 Symbolic Z-matrix:
 Charge =  0 Multiplicity = 2

                          Input orientation:
 ---------------------------------------------------------------------
 Center     Atomic      Atomic             Coordinates (Angstroms)
 Number     Number       Type             X           Y           Z
 ---------------------------------------------------------------------
      1          1           0        0.000000    0.000000    0.000000
      2          1           0       -1.400000    0.000000    0.000000
      3          9           0        3.100000    0.000000    0.000000
 ---------------------------------------------------------------------

 SCF Done:  E(UB3LYP) =  -100.836959924     a.u. after  313 cycles

 Alpha  occ. eigenvalues --  -24.76633  -1.22469  -0.55660  -0.46896  -0.46812
 Alpha  occ. eigenvalues --   -0.34258
 Alpha virt. eigenvalues --   -0.07969   0.24373   0.31559   0.85781   0.90655
 Alpha virt. eigenvalues --    0.92989   1.02787   1.10827   1.18017   1.18022
 Alpha virt. eigenvalues --    1.45215   1.45220   1.90654   2.25953   2.50720

  Beta  occ. eigenvalues --  -24.73473  -1.13386  -0.43732  -0.43644  -0.34251
  Beta virt. eigenvalues --   -0.26290  -0.07959   0.24390   0.31620   0.92154
  Beta virt. eigenvalues --    0.94594   0.95241   1.06752   1.10834   1.18016
  Beta virt. eigenvalues --    1.18021   1.45214   1.45219   1.90663   2.25954

 Mulliken charges and spin densities:
               1          2
     1  H   -0.000431   0.001012
     2  H   -0.005862  -0.001838
     3  F    0.006293   1.000827
 Sum of Mulliken charges =   0.00000   1.00000

 Dipole moment (field-independent basis, Debye):
    X=              0.0962    Y=              0.0000    Z=              0.0000  Tot=              0.0962
 Quadrupole moment (field-independent basis, Debye-Ang):
   XX=             -6.1688   YY=             -7.4963   ZZ=             -7.0165
   XY=              0.0000   XZ=              0.0000   YZ=              0.3592

  Exact polarizability:      20.893      -0.000       2.163       0.000       0.193       2.420
 Approx polarizability:      36.425       0.000       2.195       0.000       0.241       2.518

 ******    1 imaginary frequencies (negative Signs) ******

                      1                      2                      3
                      A                      A                      A
 Frequencies --  -1166.8433                21.8885              1307.0559
 Red. masses --      1.0078                 1.1085                 1.0111
 Frc consts  --      0.8085                 0.0003                 1.0178
 IR Inten    --      0.8699                 0.5461                 0.0055

                      4
                      A
 Frequencies --   1308.8683
 Red. masses --      1.0111
 Frc consts  --      1.0206
 IR Inten    --      0.0044

 - Thermochemistry -
 -------------------
 Temperature   298.150 Kelvin.  Pressure   1.00000 Atm.
 Atom     1 has atomic number  1 and mass   1.00783

 Molecular mass:    21.01405 amu.
 Principal axes and moments of inertia in atomic units:
                           1         2         3
     Eigenvalues --     0.00000  97.49662  97.49662
           X            1.00000  -0.00000   0.00000
           Y            0.00000   1.00000   0.00000
           Z            0.00000   0.00000   1.00000
 This molecule is a prolate symmetric top.
 Rotational symmetry number  1.
 Rotational temperature (Kelvin)      0.88838
 Rotational constant (GHZ):          18.510808
    1 imaginary frequencies ignored.
 Zero-point vibrational energy      15777.6 (Joules/Mol)
                                    3.77094 (Kcal/Mol)
 Warning -- explicit consideration of   1 degrees of freedom as
           vibrations may cause significant error
 Vibrational temperatures:     31.49  1880.56  1883.17
          (Kelvin)

 Zero-point correction=                           0.006009 (Hartree/Particle)
 Thermal correction to Energy=                    0.009287
 Thermal correction to Enthalpy=                  0.010231
 Thermal correction to Gibbs Free Energy=        -0.016613
 Sum of electronic and zero-point Energies=           -100.830951
 Sum of electronic and thermal Energies=              -100.827673
 Sum of electronic and thermal Enthalpies=            -100.826729
 Sum of electronic and thermal Free Energies=         -100.853573

                     E (Thermal)             CV                S
                      KCal/Mol        Cal/Mol-Kelvin    Cal/Mol-Kelvin
 Total                    5.827              7.242             56.498
 Electronic               0.000              0.000              1.377
 Translational            0.889              2.981             35.068
 Rotational               0.592              1.987             13.545
 Vibrational              4.346              2.274              6.508
 Vibration     1          0.593              1.985              6.455

 Normal termination of Gaussian 16 at Fri Aug 22 19:52:40 2025.
