 Gaussian 16, Revision C.01,
 Gaussian 16:  ES64L-G16RevC.01  3-Jul-2019

 -----------------------------------------
 # sp b3lyp/6-311g** Force nosymm scf=(qc)
 -----------------------------------------

 -------------------
 Title Card Required
 -------------------
 Symbolic Z-matrix:
 Charge =  0 Multiplicity = 2

                          Input orientation:
 ---------------------------------------------------------------------
 Center     Atomic      Atomic             Coordinates (Angstroms)
 Number     Number       Type             X           Y           Z
 ---------------------------------------------------------------------
      1          1           0        0.000000    0.000000    0.000000
      2          1           0       -2.600000    0.000000    0.000000
      3          9           0        2.450000    0.000000    0.000000
 ---------------------------------------------------------------------

 SCF Done:  E(UB3LYP) =  -100.771361541     a.u. after   16 cycles

 Alpha  occ. eigenvalues --  -24.71441  -1.17667  -0.50535  -0.42453  -0.42453
 Alpha  occ. eigenvalues --   -0.33724
 Alpha virt. eigenvalues --   -0.11886   0.24627   0.33274   0.89876   0.93783
 Alpha virt. eigenvalues --    0.93783   1.06645   1.23894   1.23894   1.26383
 Alpha virt. eigenvalues --    1.38198   1.38198   1.44008   2.14901   2.33365

  Beta  occ. eigenvalues --  -24.68627  -1.09668  -0.39650  -0.39650  -0.35523
  Beta virt. eigenvalues --   -0.23175  -0.09232   0.25563   0.35106   0.95122
  Beta virt. eigenvalues --    0.95122   0.96279   1.09240   1.22133   1.22133
  Beta virt. eigenvalues --    1.31634   1.42287   1.42287   1.43542   2.14187

 Mulliken charges and spin densities:
               1          2
     1  H    0.087719  -0.866461
     2  H    0.009149   0.977823
     3  F   -0.096868   0.888638
 Sum of Mulliken charges =   0.00000   1.00000

 Dipole moment (field-independent basis, Debye):
    X=             -1.3187    Y=             -0.0000    Z=              0.0000  Tot=              1.3187
 Quadrupole moment (field-independent basis, Debye-Ang):
   XX=             -8.9945   YY=             -7.5976   ZZ=             -7.5976
   XY=             -0.0000   XZ=              0.0000   YZ=             -0.0000

  Exact polarizability:      40.666      -0.000       2.019       0.000      -0.000       2.019
 Approx polarizability:      45.503      -0.000       1.919       0.000      -0.000       1.919

 ******    2 imaginary frequencies (negative Signs) ******

                      1                      2                      3
                      A                      A                      A
 Frequencies --   -784.3805              -323.3825               313.4967
 Red. masses --      1.0278                 1.0853                 1.0187
 Frc consts  --      0.3726                 0.0669                 0.0590
 IR Inten    --     64.4042                17.2935                 6.5171

                      4
                      A
 Frequencies --    313.4967
 Red. masses --      1.0187
 Frc consts  --      0.0590
 IR Inten    --      6.5171

 - Thermochemistry -
 -------------------
 Temperature   298.150 Kelvin.  Pressure   1.00000 Atm.
 Atom     1 has atomic number  1 and mass   1.00783

 Molecular mass:    21.01405 amu.
 Principal axes and moments of inertia in atomic units:
                           1         2         3
     Eigenvalues --     0.00000 103.67763 103.67763
           X            1.00000  -0.00000   0.00000
           Y            0.00000   1.00000   0.00000
           Z            0.00000   0.00000   1.00000
 This molecule is a prolate symmetric top.
 Rotational symmetry number  1.
 Rotational temperature (Kelvin)      0.83542
 Rotational constant (GHZ):          17.407239
    2 imaginary frequencies ignored.
 Zero-point vibrational energy       3750.3 (Joules/Mol)
                                    0.89633 (Kcal/Mol)
 Warning -- explicit consideration of   2 degrees of freedom as
           vibrations may cause significant error
 Vibrational temperatures:    451.05   451.05
          (Kelvin)

 Zero-point correction=                           0.001428 (Hartree/Particle)
 Thermal correction to Energy=                    0.004596
 Thermal correction to Enthalpy=                  0.005540
 Thermal correction to Gibbs Free Energy=        -0.019547
 Sum of electronic and zero-point Energies=           -100.769933
 Sum of electronic and thermal Energies=              -100.766766
 Sum of electronic and thermal Enthalpies=            -100.765821
 Sum of electronic and thermal Free Energies=         -100.790908

                     E (Thermal)             CV                S
                      KCal/Mol        Cal/Mol-Kelvin    Cal/Mol-Kelvin
 Total                    2.884              8.264             52.800
 Electronic               0.000              0.000              1.377
 Translational            0.889              2.981             35.068
 Rotational               0.592              1.987             13.667
 Vibrational              1.403              3.296              2.688
 Vibration     1          0.701              1.648              1.344
 Vibration     2          0.701              1.648              1.344

 Normal termination of Gaussian 16 at Fri Aug 22 17:38:54 2025.
