 Gaussian 16, Revision C.01,
 Gaussian 16:  ES64L-G16RevC.01  3-Jul-2019

 -----------------------------------------
 # sp b3lyp/6-311g** Force nosymm scf=(qc)
 -----------------------------------------

 -------------------
 Title Card Required
 -------------------
 Symbolic Z-matrix:
 Charge =  0 Multiplicity = 2

                          Input orientation:
 ---------------------------------------------------------------------
 Center     Atomic      Atomic             Coordinates (Angstroms)
 Number     Number       Type             X           Y           Z
 ---------------------------------------------------------------------
      1          1           0        0.000000    0.000000    0.000000
      2          1           0       -3.100000    0.000000    0.000000
      3          9           0        0.900000    0.000000    0.000000
 ---------------------------------------------------------------------

 SCF Done:  E(UB3LYP) =  -100.971544971     a.u. after    5 cycles

 Alpha  occ. eigenvalues --  -24.63979  -1.19031  -0.53850  -0.39640  -0.39640
 Alpha  occ. eigenvalues --   -0.33982
 Alpha virt. eigenvalues --    0.03354   0.25005   0.39386   0.94349   0.94349
 Alpha virt. eigenvalues --    0.97765   1.22914   1.23544   1.23544   1.31530
 Alpha virt. eigenvalues --    1.37283   1.37283   2.01008   2.14574   2.37340

  Beta  occ. eigenvalues --  -24.63976  -1.19022  -0.53839  -0.39637  -0.39637
  Beta virt. eigenvalues --   -0.06652   0.04364   0.38952   0.39356   0.94350
  Beta virt. eigenvalues --    0.94350   0.97755   1.30062   1.37281   1.37281
  Beta virt. eigenvalues --    1.49823   1.49823   1.50191   2.01114   2.37277

 Mulliken charges and spin densities:
               1          2
     1  H    0.294540   0.001223
     2  H    0.001948   0.997458
     3  F   -0.296488   0.001319
 Sum of Mulliken charges =   0.00000   1.00000

 Dipole moment (field-independent basis, Debye):
    X=             -1.9106    Y=              0.0000    Z=             -0.0000  Tot=              1.9106
 Quadrupole moment (field-independent basis, Debye-Ang):
   XX=             -7.8426   YY=             -6.8682   ZZ=             -6.8682
   XY=              0.0000   XZ=             -0.0000   YZ=              0.0000

  Exact polarizability:       6.129      -0.000       2.433       0.000       0.000       2.433
 Approx polarizability:       6.977       0.000       2.412       0.000       0.000       2.412

 ******    3 imaginary frequencies (negative Signs) ******

                      1                      2                      3
                      A                      A                      A
 Frequencies --   -624.0470              -624.0470               -58.3426
 Red. masses --      1.0367                 1.0367                 1.0532
 Frc consts  --      0.2379                 0.2379                 0.0021
 IR Inten    --    177.8511               177.8511                 0.1345

                      4
                      A
 Frequencies --   4430.8743
 Red. masses --      1.0583
 Frc consts  --     12.2421
 IR Inten    --    106.0291

 - Thermochemistry -
 -------------------
 Temperature   298.150 Kelvin.  Pressure   1.00000 Atm.
 Atom     1 has atomic number  1 and mass   1.00783

 Molecular mass:    21.01405 amu.
 Principal axes and moments of inertia in atomic units:
                           1         2         3
     Eigenvalues --     0.00000  56.35504  56.35504
           X            1.00000  -0.00000   0.00000
           Y            0.00000   1.00000   0.00000
           Z            0.00000   0.00000   1.00000
 This molecule is a prolate symmetric top.
 Rotational symmetry number  1.
 Rotational temperature (Kelvin)      1.53693
 Rotational constant (GHZ):          32.024485
    3 imaginary frequencies ignored.
 Zero-point vibrational energy      26502.5 (Joules/Mol)
                                    6.33425 (Kcal/Mol)
 Vibrational temperatures:   6375.04
          (Kelvin)

 Zero-point correction=                           0.010094 (Hartree/Particle)
 Thermal correction to Energy=                    0.012455
 Thermal correction to Enthalpy=                  0.013399
 Thermal correction to Gibbs Free Energy=        -0.009835
 Sum of electronic and zero-point Energies=           -100.961451
 Sum of electronic and thermal Energies=              -100.959090
 Sum of electronic and thermal Enthalpies=            -100.958146
 Sum of electronic and thermal Free Energies=         -100.981380

                     E (Thermal)             CV                S
                      KCal/Mol        Cal/Mol-Kelvin    Cal/Mol-Kelvin
 Total                    7.815              4.968             48.901
 Electronic               0.000              0.000              1.377
 Translational            0.889              2.981             35.068
 Rotational               0.592              1.987             12.455
 Vibrational              6.334              0.000              0.000

 Normal termination of Gaussian 16 at Fri Aug 22 15:56:32 2025.
