 Gaussian 16, Revision C.01,
 Gaussian 16:  ES64L-G16RevC.01  3-Jul-2019

 -----------------------------------------
 # sp b3lyp/6-311g** Force nosymm scf=(qc)
 -----------------------------------------

 -------------------
 Title Card Required
 -------------------
 Symbolic Z-matrix:
 Charge =  0 Multiplicity = 2

                          Input orientation:
 ---------------------------------------------------------------------
 Center     Atomic      Atomic             Coordinates (Angstroms)
 Number     Number       Type             X           Y           Z
 ---------------------------------------------------------------------
      1          1           0        0.000000    0.000000    0.000000
      2          1           0       -3.800000    0.000000    0.000000
      3          9           0        1.400000    0.000000    0.000000
 ---------------------------------------------------------------------

 SCF Done:  E(UB3LYP) =  -100.877282842     a.u. after    7 cycles

 Alpha  occ. eigenvalues --  -24.64381  -1.10285  -0.44564  -0.36718  -0.36718
 Alpha  occ. eigenvalues --   -0.33692
 Alpha virt. eigenvalues --   -0.11911   0.20792   0.27567   0.93102   0.93102
 Alpha virt. eigenvalues --    1.03158   1.15198   1.23789   1.23817   1.23817
 Alpha virt. eigenvalues --    1.32596   1.32596   1.71374   2.13116   2.21357

  Beta  occ. eigenvalues --  -24.64375  -1.10270  -0.44549  -0.36713  -0.36713
  Beta virt. eigenvalues --   -0.12113  -0.06063   0.23816   0.38410   0.93100
  Beta virt. eigenvalues --    0.93100   1.03174   1.15215   1.32573   1.32573
  Beta virt. eigenvalues --    1.46534   1.46897   1.46897   1.71391   2.20472

 Mulliken charges and spin densities:
               1          2
     1  H    0.356629  -0.001110
     2  H    0.000791   0.999162
     3  F   -0.357421   0.001948
 Sum of Mulliken charges =   0.00000   1.00000

 Dipole moment (field-independent basis, Debye):
    X=             -2.5040    Y=              0.0000    Z=             -0.0000  Tot=              2.5040
 Quadrupole moment (field-independent basis, Debye-Ang):
   XX=             -9.5909   YY=             -7.2636   ZZ=             -7.2636
   XY=              0.0000   XZ=             -0.0000   YZ=              0.0000

  Exact polarizability:      12.812       0.000       2.232      -0.000      -0.000       2.232
 Approx polarizability:      22.110      -0.000       2.166      -0.000       0.000       2.166

 ******    2 imaginary frequencies (negative Signs) ******

                      1                      2                      3
                      A                      A                      A
 Frequencies --  -1013.0397               -51.7396              1096.7306
 Red. masses --      1.0579                 1.0536                 1.0330
 Frc consts  --      0.6397                 0.0017                 0.7321
 IR Inten    --     46.7736                 0.0451               128.2533

                      4
                      A
 Frequencies --   1096.7306
 Red. masses --      1.0330
 Frc consts  --      0.7321
 IR Inten    --    128.2533

 - Thermochemistry -
 -------------------
 Temperature   298.150 Kelvin.  Pressure   1.00000 Atm.
 Atom     1 has atomic number  1 and mass   1.00783

 Molecular mass:    21.01405 amu.
 Principal axes and moments of inertia in atomic units:
                           1         2         3
     Eigenvalues --     0.00000  96.85249  96.85249
           X            1.00000  -0.00000   0.00000
           Y            0.00000   1.00000   0.00000
           Z            0.00000   0.00000   1.00000
 This molecule is a prolate symmetric top.
 Rotational symmetry number  1.
 Rotational temperature (Kelvin)      0.89429
 Rotational constant (GHZ):          18.633916
    2 imaginary frequencies ignored.
 Zero-point vibrational energy      13119.8 (Joules/Mol)
                                    3.13571 (Kcal/Mol)
 Vibrational temperatures:   1577.95  1577.95
          (Kelvin)

 Zero-point correction=                           0.004997 (Hartree/Particle)
 Thermal correction to Energy=                    0.007408
 Thermal correction to Enthalpy=                  0.008352
 Thermal correction to Gibbs Free Energy=        -0.015453
 Sum of electronic and zero-point Energies=           -100.872286
 Sum of electronic and thermal Energies=              -100.869875
 Sum of electronic and thermal Enthalpies=            -100.868931
 Sum of electronic and thermal Free Energies=         -100.892736

                     E (Thermal)             CV                S
                      KCal/Mol        Cal/Mol-Kelvin    Cal/Mol-Kelvin
 Total                    4.649              5.534             50.103
 Electronic               0.000              0.000              1.377
 Translational            0.889              2.981             35.068
 Rotational               0.592              1.987             13.532
 Vibrational              3.167              0.566              0.126

 Normal termination of Gaussian 16 at Fri Aug 22 16:21:24 2025.
