 Gaussian 16, Revision C.01,
 Gaussian 16:  ES64L-G16RevC.01  3-Jul-2019

 -----------------------------------------
 # sp b3lyp/6-311g** Force nosymm scf=(qc)
 -----------------------------------------

 -------------------
 Title Card Required
 -------------------
 Symbolic Z-matrix:
 Charge =  0 Multiplicity = 2

                          Input orientation:
 ---------------------------------------------------------------------
 Center     Atomic      Atomic             Coordinates (Angstroms)
 Number     Number       Type             X           Y           Z
 ---------------------------------------------------------------------
      1          1           0        0.000000    0.000000    0.000000
      2          1           0       -1.150000    0.000000    0.000000
      3          9           0        0.900000    0.000000    0.000000
 ---------------------------------------------------------------------

 SCF Done:  E(UB3LYP) =  -100.961707155     a.u. after    6 cycles

 Alpha  occ. eigenvalues --  -24.64141  -1.19821  -0.57628  -0.39929  -0.39929
 Alpha  occ. eigenvalues --   -0.36397
 Alpha virt. eigenvalues --    0.13385   0.19303   0.45748   0.92009   0.92009
 Alpha virt. eigenvalues --    0.97009   1.09436   1.09436   1.39640   1.54699
 Alpha virt. eigenvalues --    1.54699   1.61451   2.13218   2.28604   2.97009

  Beta  occ. eigenvalues --  -24.63621  -1.18487  -0.54213  -0.39476  -0.39476
  Beta virt. eigenvalues --   -0.16555   0.14989   0.23775   0.51066   0.93065
  Beta virt. eigenvalues --    0.93065   0.98062   1.16949   1.16949   1.43120
  Beta virt. eigenvalues --    1.60258   1.60258   1.69403   2.15417   2.43194

 Mulliken charges and spin densities:
               1          2
     1  H    0.271830  -0.004016
     2  H    0.018231   0.880647
     3  F   -0.290062   0.123368
 Sum of Mulliken charges =   0.00000   1.00000

 Dipole moment (field-independent basis, Debye):
    X=             -1.9240    Y=             -0.0000    Z=             -0.0000  Tot=              1.9240
 Quadrupole moment (field-independent basis, Debye-Ang):
   XX=             -7.5481   YY=             -6.6699   ZZ=             -6.6699
   XY=             -0.0000   XZ=             -0.0000   YZ=              0.0000

  Exact polarizability:      11.837       0.000       2.580      -0.000       0.000       2.580
 Approx polarizability:      12.724      -0.000       2.604       0.000       0.000       2.604

 ******    2 imaginary frequencies (negative Signs) ******

                      1                      2                      3
                      A                      A                      A
 Frequencies --  -1035.1226             -1035.1226              1163.7701
 Red. masses --      1.0212                 1.0212                 1.0504
 Frc consts  --      0.6447                 0.6447                 0.8382
 IR Inten    --     88.9012                88.9012                27.6178

                      4
                      A
 Frequencies --   4111.8525
 Red. masses --      1.0612
 Frc consts  --     10.5713
 IR Inten    --     97.6801

 - Thermochemistry -
 -------------------
 Temperature   298.150 Kelvin.  Pressure   1.00000 Atm.
 Atom     1 has atomic number  1 and mass   1.00783

 Molecular mass:    21.01405 amu.
 Principal axes and moments of inertia in atomic units:
                           1         2         3
     Eigenvalues --     0.00000  16.53792  16.53792
           X            1.00000  -0.00000   0.00000
           Y            0.00000   1.00000   0.00000
           Z            0.00000   0.00000   1.00000
 This molecule is a prolate symmetric top.
 Rotational symmetry number  1.
 Rotational temperature (Kelvin)      5.23729
 Rotational constant (GHZ):         109.127469
    2 imaginary frequencies ignored.
 Zero-point vibrational energy      31555.2 (Joules/Mol)
                                    7.54188 (Kcal/Mol)
 Vibrational temperatures:   1674.41  5916.04
          (Kelvin)

 Zero-point correction=                           0.012019 (Hartree/Particle)
 Thermal correction to Energy=                    0.014399
 Thermal correction to Enthalpy=                  0.015343
 Thermal correction to Gibbs Free Energy=        -0.006757
 Sum of electronic and zero-point Energies=           -100.949688
 Sum of electronic and thermal Energies=              -100.947309
 Sum of electronic and thermal Enthalpies=            -100.946364
 Sum of electronic and thermal Free Energies=         -100.968464

                     E (Thermal)             CV                S
                      KCal/Mol        Cal/Mol-Kelvin    Cal/Mol-Kelvin
 Total                    9.035              5.198             46.513
 Electronic               0.000              0.000              1.377
 Translational            0.889              2.981             35.068
 Rotational               0.592              1.987             10.019
 Vibrational              7.554              0.230              0.048

 Normal termination of Gaussian 16 at Fri Aug 22 15:55:14 2025.
