 Gaussian 16, Revision C.01,
 Gaussian 16:  ES64L-G16RevC.01  3-Jul-2019

 -----------------------------------------
 # sp b3lyp/6-311g** Force nosymm scf=(qc)
 -----------------------------------------

 -------------------
 Title Card Required
 -------------------
 Symbolic Z-matrix:
 Charge =  0 Multiplicity = 2

                          Input orientation:
 ---------------------------------------------------------------------
 Center     Atomic      Atomic             Coordinates (Angstroms)
 Number     Number       Type             X           Y           Z
 ---------------------------------------------------------------------
      1          1           0        0.000000    0.000000    0.000000
      2          1           0       -1.150000    0.000000    0.000000
      3          9           0        1.300000    0.000000    0.000000
 ---------------------------------------------------------------------

 SCF Done:  E(UB3LYP) =  -100.928398948     a.u. after    8 cycles

 Alpha  occ. eigenvalues --  -24.65564  -1.13580  -0.52320  -0.38521  -0.38411
 Alpha  occ. eigenvalues --   -0.38411
 Alpha virt. eigenvalues --    0.03359   0.19536   0.32402   0.91022   0.91022
 Alpha virt. eigenvalues --    1.00016   1.09039   1.09039   1.20064   1.54589
 Alpha virt. eigenvalues --    1.54589   1.59444   2.12861   2.29863   2.45390

  Beta  occ. eigenvalues --  -24.64092  -1.09723  -0.45534  -0.37026  -0.37026
  Beta virt. eigenvalues --   -0.21817   0.06394   0.22048   0.35331   0.91792
  Beta virt. eigenvalues --    0.91792   1.03420   1.14340   1.14340   1.25123
  Beta virt. eigenvalues --    1.57598   1.57598   1.62880   2.20946   2.31371

 Mulliken charges and spin densities:
               1          2
     1  H    0.250573  -0.098062
     2  H    0.056801   0.660787
     3  F   -0.307374   0.437275
 Sum of Mulliken charges =   0.00000   1.00000

 Dipole moment (field-independent basis, Debye):
    X=             -2.3702    Y=              0.0000    Z=              0.0000  Tot=              2.3702
 Quadrupole moment (field-independent basis, Debye-Ang):
   XX=             -7.7731   YY=             -6.9665   ZZ=             -6.9665
   XY=              0.0000   XZ=              0.0000   YZ=              0.0000

  Exact polarizability:      25.401       0.000       2.462      -0.000       0.000       2.462
 Approx polarizability:      35.844       0.000       2.443      -0.000       0.000       2.443

 ******    1 imaginary frequencies (negative Signs) ******

                      1                      2                      3
                      A                      A                      A
 Frequencies --  -2577.0762               753.2458              1138.9596
 Red. masses --      1.0249                 1.0886                 1.0165
 Frc consts  --      4.0104                 0.3639                 0.7769
 IR Inten    --    386.2894                45.4516                25.3474

                      4
                      A
 Frequencies --   1138.9596
 Red. masses --      1.0165
 Frc consts  --      0.7769
 IR Inten    --     25.3474

 - Thermochemistry -
 -------------------
 Temperature   298.150 Kelvin.  Pressure   1.00000 Atm.
 Atom     1 has atomic number  1 and mass   1.00783

 Molecular mass:    21.01405 amu.
 Principal axes and moments of inertia in atomic units:
                           1         2         3
     Eigenvalues --     0.00000  25.25809  25.25809
           X            1.00000  -0.00000   0.00000
           Y            0.00000   1.00000   0.00000
           Z            0.00000   0.00000   1.00000
 This molecule is a prolate symmetric top.
 Rotational symmetry number  1.
 Rotational temperature (Kelvin)      3.42916
 Rotational constant (GHZ):          71.452011
    1 imaginary frequencies ignored.
 Zero-point vibrational energy      18130.4 (Joules/Mol)
                                    4.33327 (Kcal/Mol)
 Vibrational temperatures:   1083.75  1638.71  1638.71
          (Kelvin)

 Zero-point correction=                           0.006906 (Hartree/Particle)
 Thermal correction to Energy=                    0.009402
 Thermal correction to Enthalpy=                  0.010346
 Thermal correction to Gibbs Free Energy=        -0.012299
 Sum of electronic and zero-point Energies=           -100.921493
 Sum of electronic and thermal Energies=              -100.918997
 Sum of electronic and thermal Enthalpies=            -100.918053
 Sum of electronic and thermal Free Energies=         -100.940698

                     E (Thermal)             CV                S
                      KCal/Mol        Cal/Mol-Kelvin    Cal/Mol-Kelvin
 Total                    5.900              6.195             47.661
 Electronic               0.000              0.000              1.377
 Translational            0.889              2.981             35.068
 Rotational               0.592              1.987             10.861
 Vibrational              4.418              1.227              0.355

 Normal termination of Gaussian 16 at Fri Aug 22 16:14:26 2025.
