 Gaussian 16, Revision C.01,
 Gaussian 16:  ES64L-G16RevC.01  3-Jul-2019

 -----------------------------------------
 # sp b3lyp/6-311g** Force nosymm scf=(qc)
 -----------------------------------------

 -------------------
 Title Card Required
 -------------------
 Symbolic Z-matrix:
 Charge =  0 Multiplicity = 2

                          Input orientation:
 ---------------------------------------------------------------------
 Center     Atomic      Atomic             Coordinates (Angstroms)
 Number     Number       Type             X           Y           Z
 ---------------------------------------------------------------------
      1          1           0        0.000000    0.000000    0.000000
      2          1           0       -0.650000    0.000000    0.000000
      3          9           0        3.900000    0.000000    0.000000
 ---------------------------------------------------------------------

 SCF Done:  E(UB3LYP) =  -100.926421960     a.u. after   42 cycles

 Alpha  occ. eigenvalues --  -24.76188  -1.22077  -0.55281  -0.46462  -0.46437
 Alpha  occ. eigenvalues --   -0.45384
 Alpha virt. eigenvalues --    0.07571   0.19179   0.50075   0.86095   0.90972
 Alpha virt. eigenvalues --    0.91912   1.01186   1.09472   1.09474   1.59188
 Alpha virt. eigenvalues --    1.83977   1.89270   1.89273   2.37375   3.64941

  Beta  occ. eigenvalues --  -24.73033  -1.13002  -0.45395  -0.43286  -0.43273
  Beta virt. eigenvalues --   -0.25929   0.07578   0.19183   0.50107   0.92472
  Beta virt. eigenvalues --    0.93399   0.95560   1.05310   1.09472   1.09474
  Beta virt. eigenvalues --    1.59191   1.83987   1.89270   1.89273   2.37375

 Mulliken charges and spin densities:
               1          2
     1  H   -0.000191  -0.000213
     2  H   -0.001509   0.000031
     3  F    0.001700   1.000183
 Sum of Mulliken charges =   0.00000   1.00000

 Dipole moment (field-independent basis, Debye):
    X=              0.0239    Y=              0.0000    Z=             -0.0000  Tot=              0.0239
 Quadrupole moment (field-independent basis, Debye-Ang):
   XX=             -6.2566   YY=             -6.7967   ZZ=             -5.9572
   XY=              0.0000   XZ=             -0.0000   YZ=             -0.1033

  Exact polarizability:       6.819      -0.000       1.906      -0.000      -0.056       2.358
 Approx polarizability:       7.594       0.000       1.988      -0.000      -0.070       2.553

 ******    3 imaginary frequencies (negative Signs) ******

                      1                      2                      3
                      A                      A                      A
 Frequencies --  -1959.5123             -1958.5412               -52.0345
 Red. masses --      1.0084                 1.0084                 1.1085
 Frc consts  --      2.2813                 2.2791                 0.0018
 IR Inten    --      0.0000                 0.0000                 0.0554

                      4
                      A
 Frequencies --   5976.0592
 Red. masses --      1.0078
 Frc consts  --     21.2063
 IR Inten    --      0.0196

 - Thermochemistry -
 -------------------
 Temperature   298.150 Kelvin.  Pressure   1.00000 Atm.
 Atom     1 has atomic number  1 and mass   1.00783

 Molecular mass:    21.01405 amu.
 Principal axes and moments of inertia in atomic units:
                           1         2         3
     Eigenvalues --     0.00000 116.92483 116.92483
           X            1.00000  -0.00000   0.00000
           Y            0.00000   1.00000   0.00000
           Z            0.00000   0.00000   1.00000
 This molecule is a prolate symmetric top.
 Rotational symmetry number  1.
 Rotational temperature (Kelvin)      0.74077
 Rotational constant (GHZ):          15.435055
    3 imaginary frequencies ignored.
 Zero-point vibrational energy      35744.8 (Joules/Mol)
                                    8.54321 (Kcal/Mol)
 Vibrational temperatures:   8598.22
          (Kelvin)

 Zero-point correction=                           0.013614 (Hartree/Particle)
 Thermal correction to Energy=                    0.015975
 Thermal correction to Enthalpy=                  0.016919
 Thermal correction to Gibbs Free Energy=        -0.007004
 Sum of electronic and zero-point Energies=           -100.912807
 Sum of electronic and thermal Energies=              -100.910447
 Sum of electronic and thermal Enthalpies=            -100.909503
 Sum of electronic and thermal Free Energies=         -100.933426

                     E (Thermal)             CV                S
                      KCal/Mol        Cal/Mol-Kelvin    Cal/Mol-Kelvin
 Total                   10.024              4.968             50.351
 Electronic               0.000              0.000              1.377
 Translational            0.889              2.981             35.068
 Rotational               0.592              1.987             13.906
 Vibrational              8.543              0.000              0.000

 Normal termination of Gaussian 16 at Sat Aug 23 01:12:44 2025.
