 Gaussian 16, Revision C.01,
 Gaussian 16:  ES64L-G16RevC.01  3-Jul-2019

 -----------------------------------------
 # sp b3lyp/6-311g** Force nosymm scf=(qc)
 -----------------------------------------

 -------------------
 Title Card Required
 -------------------
 Symbolic Z-matrix:
 Charge =  0 Multiplicity = 2

                          Input orientation:
 ---------------------------------------------------------------------
 Center     Atomic      Atomic             Coordinates (Angstroms)
 Number     Number       Type             X           Y           Z
 ---------------------------------------------------------------------
      1          1           0        0.000000    0.000000    0.000000
      2          1           0       -3.800000    0.000000    0.000000
      3          9           0        0.500000    0.000000    0.000000
 ---------------------------------------------------------------------

 SCF Done:  E(UB3LYP) =  -100.268956144     a.u. after    6 cycles

 Alpha  occ. eigenvalues --  -24.63031  -1.42357  -0.63507  -0.44338  -0.44338
 Alpha  occ. eigenvalues --   -0.33092
 Alpha virt. eigenvalues --    0.08038   0.24731   0.62079   0.88991   0.90147
 Alpha virt. eigenvalues --    0.90147   1.24309   1.24412   1.24412   1.36195
 Alpha virt. eigenvalues --    1.58512   1.58512   2.00243   2.14536   3.76629

  Beta  occ. eigenvalues --  -24.63031  -1.42356  -0.63508  -0.44338  -0.44338
  Beta virt. eigenvalues --   -0.05101   0.08256   0.38679   0.62062   0.88987
  Beta virt. eigenvalues --    0.90146   0.90146   1.35883   1.48258   1.48843
  Beta virt. eigenvalues --    1.48843   1.58513   1.58513   2.00196   2.46132

 Mulliken charges and spin densities:
               1          2
     1  H    0.126721   0.000276
     2  H    0.000409   0.999550
     3  F   -0.127130   0.000174
 Sum of Mulliken charges =   0.00000   1.00000

 Dipole moment (field-independent basis, Debye):
    X=             -1.2959    Y=             -0.0000    Z=             -0.0000  Tot=              1.2959
 Quadrupole moment (field-independent basis, Debye-Ang):
   XX=             -6.6737   YY=             -6.4387   ZZ=             -6.4387
   XY=             -0.0000   XZ=             -0.0000   YZ=              0.0000

  Exact polarizability:       2.854      -0.000       2.411       0.000      -0.000       2.411
 Approx polarizability:       3.031       0.000       2.387      -0.000      -0.000       2.387

 ******    3 imaginary frequencies (negative Signs) ******

                      1                      2                      3
                      A                      A                      A
 Frequencies --  -9607.6120             -9607.6120               -27.5604
 Red. masses --      1.0468                 1.0468                 1.0532
 Frc consts  --     56.9278                56.9278                 0.0005
 IR Inten    --    285.5982               285.5982                 0.0104

                      4
                      A
 Frequencies --  19159.3988
 Red. masses --      1.0583
 Frc consts  --    228.8901
 IR Inten    --     76.0359

 - Thermochemistry -
 -------------------
 Temperature   298.150 Kelvin.  Pressure   1.00000 Atm.
 Atom     1 has atomic number  1 and mass   1.00783

 Molecular mass:    21.01405 amu.
 Principal axes and moments of inertia in atomic units:
                           1         2         3
     Eigenvalues --     0.00000  63.46856  63.46856
           X            1.00000  -0.00000   0.00000
           Y            0.00000   1.00000   0.00000
           Z            0.00000   0.00000   1.00000
 This molecule is a prolate symmetric top.
 Rotational symmetry number  1.
 Rotational temperature (Kelvin)      1.36467
 Rotational constant (GHZ):          28.435202
    3 imaginary frequencies ignored.
 Zero-point vibrational energy     114598.7 (Joules/Mol)
                                   27.38974 (Kcal/Mol)
 Vibrational temperatures:  27566.10
          (Kelvin)

 Zero-point correction=                           0.043648 (Hartree/Particle)
 Thermal correction to Energy=                    0.046009
 Thermal correction to Enthalpy=                  0.046953
 Thermal correction to Gibbs Free Energy=         0.023606
 Sum of electronic and zero-point Energies=           -100.225308
 Sum of electronic and thermal Energies=              -100.222947
 Sum of electronic and thermal Enthalpies=            -100.222003
 Sum of electronic and thermal Free Energies=         -100.245350

                     E (Thermal)             CV                S
                      KCal/Mol        Cal/Mol-Kelvin    Cal/Mol-Kelvin
 Total                   28.871              4.968             49.137
 Electronic               0.000              0.000              1.377
 Translational            0.889              2.981             35.068
 Rotational               0.592              1.987             12.692
 Vibrational             27.390              0.000              0.000

 Normal termination of Gaussian 16 at Fri Aug 22 15:38:07 2025.
