 Gaussian 16, Revision C.01,
 Gaussian 16:  ES64L-G16RevC.01  3-Jul-2019

 -----------------------------------------
 # sp b3lyp/6-311g** Force nosymm scf=(qc)
 -----------------------------------------

 -------------------
 Title Card Required
 -------------------
 Symbolic Z-matrix:
 Charge =  0 Multiplicity = 2

                          Input orientation:
 ---------------------------------------------------------------------
 Center     Atomic      Atomic             Coordinates (Angstroms)
 Number     Number       Type             X           Y           Z
 ---------------------------------------------------------------------
      1          1           0        0.000000    0.000000    0.000000
      2          1           0       -1.800000    0.000000    0.000000
      3          9           0        1.550000    0.000000    0.000000
 ---------------------------------------------------------------------

 SCF Done:  E(UB3LYP) =  -100.855903350     a.u. after   13 cycles

 Alpha  occ. eigenvalues --  -24.64340  -1.10612  -0.44942  -0.37904  -0.36531
 Alpha  occ. eigenvalues --   -0.36531
 Alpha virt. eigenvalues --   -0.10682   0.22371   0.28233   0.94358   0.94358
 Alpha virt. eigenvalues --    0.95793   1.04310   1.18794   1.18794   1.34985
 Alpha virt. eigenvalues --    1.34985   1.37979   1.74822   2.12263   2.31969

  Beta  occ. eigenvalues --  -24.63162  -1.07458  -0.40901  -0.35403  -0.35403
  Beta virt. eigenvalues --   -0.20069  -0.07234   0.25560   0.30608   0.94197
  Beta virt. eigenvalues --    0.94197   0.99762   1.06921   1.27649   1.27649
  Beta virt. eigenvalues --    1.36683   1.36683   1.46666   1.76177   2.16181

 Mulliken charges and spin densities:
               1          2
     1  H    0.267822  -0.247775
     2  H    0.060791   0.879651
     3  F   -0.328613   0.368124
 Sum of Mulliken charges =   0.00000   1.00000

 Dipole moment (field-independent basis, Debye):
    X=             -3.0271    Y=              0.0000    Z=             -0.0000  Tot=              3.0271
 Quadrupole moment (field-independent basis, Debye-Ang):
   XX=             -8.6124   YY=             -7.3151   ZZ=             -7.3151
   XY=              0.0000   XZ=             -0.0000   YZ=             -0.0000

  Exact polarizability:      34.959      -0.000       2.225       0.000      -0.000       2.225
 Approx polarizability:      48.055       0.000       2.153      -0.000       0.000       2.153

 ******    2 imaginary frequencies (negative Signs) ******

                      1                      2                      3
                      A                      A                      A
 Frequencies --  -2236.0556              -504.8762               959.0687
 Red. masses --      1.0301                 1.0827                 1.0199
 Frc consts  --      3.0347                 0.1626                 0.5527
 IR Inten    --     43.6014                 0.1087                45.0617

                      4
                      A
 Frequencies --    959.0687
 Red. masses --      1.0199
 Frc consts  --      0.5527
 IR Inten    --     45.0617

 - Thermochemistry -
 -------------------
 Temperature   298.150 Kelvin.  Pressure   1.00000 Atm.
 Atom     1 has atomic number  1 and mass   1.00783

 Molecular mass:    21.01405 amu.
 Principal axes and moments of inertia in atomic units:
                           1         2         3
     Eigenvalues --     0.00000  44.89220  44.89220
           X            1.00000  -0.00000   0.00000
           Y            0.00000   1.00000   0.00000
           Z            0.00000   0.00000   1.00000
 This molecule is a prolate symmetric top.
 Rotational symmetry number  1.
 Rotational temperature (Kelvin)      1.92938
 Rotational constant (GHZ):          40.201666
    2 imaginary frequencies ignored.
 Zero-point vibrational energy      11473.0 (Joules/Mol)
                                    2.74212 (Kcal/Mol)
 Vibrational temperatures:   1379.89  1379.89
          (Kelvin)

 Zero-point correction=                           0.004370 (Hartree/Particle)
 Thermal correction to Energy=                    0.006817
 Thermal correction to Enthalpy=                  0.007761
 Thermal correction to Gibbs Free Energy=        -0.015364
 Sum of electronic and zero-point Energies=           -100.851534
 Sum of electronic and thermal Energies=              -100.849087
 Sum of electronic and thermal Enthalpies=            -100.848143
 Sum of electronic and thermal Free Energies=         -100.871267

                     E (Thermal)             CV                S
                      KCal/Mol        Cal/Mol-Kelvin    Cal/Mol-Kelvin
 Total                    4.277              5.816             48.670
 Electronic               0.000              0.000              1.377
 Translational            0.889              2.981             35.068
 Rotational               0.592              1.987             12.004
 Vibrational              2.796              0.848              0.221

 Normal termination of Gaussian 16 at Fri Aug 22 16:28:06 2025.
