 Gaussian 16, Revision C.01,
 Gaussian 16:  ES64L-G16RevC.01  3-Jul-2019

 -----------------------------------------
 # sp b3lyp/6-311g** Force nosymm scf=(qc)
 -----------------------------------------

 -------------------
 Title Card Required
 -------------------
 Symbolic Z-matrix:
 Charge =  0 Multiplicity = 2

                          Input orientation:
 ---------------------------------------------------------------------
 Center     Atomic      Atomic             Coordinates (Angstroms)
 Number     Number       Type             X           Y           Z
 ---------------------------------------------------------------------
      1          1           0        0.000000    0.000000    0.000000
      2          1           0       -3.650000    0.000000    0.000000
      3          9           0        1.800000    0.000000    0.000000
 ---------------------------------------------------------------------

 SCF Done:  E(UB3LYP) =  -100.797101382     a.u. after   10 cycles

 Alpha  occ. eigenvalues --  -24.64175  -1.08608  -0.40046  -0.35860  -0.35860
 Alpha  occ. eigenvalues --   -0.33924
 Alpha virt. eigenvalues --   -0.20474   0.19736   0.27243   0.92898   0.95672
 Alpha virt. eigenvalues --    0.95672   1.07852   1.23573   1.23578   1.23578
 Alpha virt. eigenvalues --    1.25980   1.25980   1.65636   2.12263   2.16254

  Beta  occ. eigenvalues --  -24.64182  -1.08626  -0.40047  -0.35866  -0.35866
  Beta virt. eigenvalues --   -0.20513  -0.06808   0.22509   0.38008   0.92933
  Beta virt. eigenvalues --    0.95676   0.95676   1.07859   1.26051   1.26051
  Beta virt. eigenvalues --    1.45593   1.46029   1.46029   1.65696   2.14924

 Mulliken charges and spin densities:
               1          2
     1  H    0.313770   0.004084
     2  H    0.002047   0.997876
     3  F   -0.315817  -0.001959
 Sum of Mulliken charges =   0.00000   1.00000

 Dipole moment (field-independent basis, Debye):
    X=             -2.8589    Y=              0.0000    Z=              0.0000  Tot=              2.8589
 Quadrupole moment (field-independent basis, Debye-Ang):
   XX=            -11.0331   YY=             -7.4593   ZZ=             -7.4593
   XY=              0.0000   XZ=              0.0000   YZ=              0.0000

  Exact polarizability:      22.713       0.000       2.067      -0.000      -0.000       2.067
 Approx polarizability:      58.998      -0.000       1.975      -0.000      -0.000       1.975

 ******    2 imaginary frequencies (negative Signs) ******

                      1                      2                      3
                      A                      A                      A
 Frequencies --  -1160.7517               -85.2705               799.2392
 Red. masses --      1.0575                 1.0540                 1.0283
 Frc consts  --      0.8395                 0.0045                 0.3870
 IR Inten    --     34.6696                 0.3714                95.2750

                      4
                      A
 Frequencies --    799.2392
 Red. masses --      1.0283
 Frc consts  --      0.3870
 IR Inten    --     95.2750

 - Thermochemistry -
 -------------------
 Temperature   298.150 Kelvin.  Pressure   1.00000 Atm.
 Atom     1 has atomic number  1 and mass   1.00783

 Molecular mass:    21.01405 amu.
 Principal axes and moments of inertia in atomic units:
                           1         2         3
     Eigenvalues --     0.00000 109.48769 109.48769
           X            1.00000  -0.00000   0.00000
           Y            0.00000   1.00000   0.00000
           Z            0.00000   0.00000   1.00000
 This molecule is a prolate symmetric top.
 Rotational symmetry number  1.
 Rotational temperature (Kelvin)      0.79108
 Rotational constant (GHZ):          16.483508
    2 imaginary frequencies ignored.
 Zero-point vibrational energy       9561.0 (Joules/Mol)
                                    2.28514 (Kcal/Mol)
 Vibrational temperatures:   1149.93  1149.93
          (Kelvin)

 Zero-point correction=                           0.003642 (Hartree/Particle)
 Thermal correction to Energy=                    0.006159
 Thermal correction to Enthalpy=                  0.007103
 Thermal correction to Gibbs Free Energy=        -0.016956
 Sum of electronic and zero-point Energies=           -100.793460
 Sum of electronic and thermal Energies=              -100.790942
 Sum of electronic and thermal Enthalpies=            -100.789998
 Sum of electronic and thermal Free Energies=         -100.814057

                     E (Thermal)             CV                S
                      KCal/Mol        Cal/Mol-Kelvin    Cal/Mol-Kelvin
 Total                    3.865              6.272             50.636
 Electronic               0.000              0.000              1.377
 Translational            0.889              2.981             35.068
 Rotational               0.592              1.987             13.775
 Vibrational              2.384              1.304              0.416

 Normal termination of Gaussian 16 at Fri Aug 22 16:45:07 2025.
