 Gaussian 16, Revision C.01,
 Gaussian 16:  ES64L-G16RevC.01  3-Jul-2019

 -----------------------------------------
 # sp b3lyp/6-311g** Force nosymm scf=(qc)
 -----------------------------------------

 -------------------
 Title Card Required
 -------------------
 Symbolic Z-matrix:
 Charge =  0 Multiplicity = 2

                          Input orientation:
 ---------------------------------------------------------------------
 Center     Atomic      Atomic             Coordinates (Angstroms)
 Number     Number       Type             X           Y           Z
 ---------------------------------------------------------------------
      1          1           0        0.000000    0.000000    0.000000
      2          1           0       -3.050000    0.000000    0.000000
      3          9           0        2.550000    0.000000    0.000000
 ---------------------------------------------------------------------

 SCF Done:  E(UB3LYP) =  -100.767165526     a.u. after   19 cycles

 Alpha  occ. eigenvalues --  -24.72033  -1.18230  -0.51138  -0.42955  -0.42955
 Alpha  occ. eigenvalues --   -0.33105
 Alpha virt. eigenvalues --   -0.10556   0.24083   0.34668   0.89940   0.93460
 Alpha virt. eigenvalues --    0.93460   1.06306   1.24432   1.24432   1.25225
 Alpha virt. eigenvalues --    1.40584   1.40584   1.43681   2.15057   2.35624

  Beta  occ. eigenvalues --  -24.69165  -1.10060  -0.40095  -0.40095  -0.35160
  Beta virt. eigenvalues --   -0.23537  -0.07710   0.24629   0.36857   0.94843
  Beta virt. eigenvalues --    0.94843   0.96904   1.08948   1.22280   1.22280
  Beta virt. eigenvalues --    1.28451   1.44683   1.44720   1.44720   2.14020

 Mulliken charges and spin densities:
               1          2
     1  H    0.080334  -0.899933
     2  H    0.002645   0.993467
     3  F   -0.082979   0.906465
 Sum of Mulliken charges =  -0.00000   1.00000

 Dipole moment (field-independent basis, Debye):
    X=             -1.1170    Y=             -0.0000    Z=             -0.0000  Tot=              1.1170
 Quadrupole moment (field-independent basis, Debye-Ang):
   XX=             -9.0880   YY=             -7.5871   ZZ=             -7.5871
   XY=             -0.0000   XZ=             -0.0000   YZ=             -0.0000

  Exact polarizability:      34.168      -0.000       2.022      -0.000      -0.000       2.022
 Approx polarizability:      40.531      -0.000       1.919      -0.000       0.000       1.919

 ******    2 imaginary frequencies (negative Signs) ******

                      1                      2                      3
                      A                      A                      A
 Frequencies --   -618.2756              -201.1719               240.1979
 Red. masses --      1.0448                 1.0670                 1.0203
 Frc consts  --      0.2353                 0.0254                 0.0347
 IR Inten    --     72.5413                 2.6693                 5.9207

                      4
                      A
 Frequencies --    240.1979
 Red. masses --      1.0203
 Frc consts  --      0.0347
 IR Inten    --      5.9207

 - Thermochemistry -
 -------------------
 Temperature   298.150 Kelvin.  Pressure   1.00000 Atm.
 Atom     1 has atomic number  1 and mass   1.00783

 Molecular mass:    21.01405 amu.
 Principal axes and moments of inertia in atomic units:
                           1         2         3
     Eigenvalues --     0.00000 124.80248 124.80248
           X            1.00000  -0.00000   0.00000
           Y            0.00000   1.00000   0.00000
           Z            0.00000   0.00000   1.00000
 This molecule is a prolate symmetric top.
 Rotational symmetry number  1.
 Rotational temperature (Kelvin)      0.69401
 Rotational constant (GHZ):          14.460780
    2 imaginary frequencies ignored.
 Zero-point vibrational energy       2873.4 (Joules/Mol)
                                    0.68676 (Kcal/Mol)
 Warning -- explicit consideration of   2 degrees of freedom as
           vibrations may cause significant error
 Vibrational temperatures:    345.59   345.59
          (Kelvin)

 Zero-point correction=                           0.001094 (Hartree/Particle)
 Thermal correction to Energy=                    0.004456
 Thermal correction to Enthalpy=                  0.005400
 Thermal correction to Gibbs Free Energy=        -0.020297
 Sum of electronic and zero-point Energies=           -100.766071
 Sum of electronic and thermal Energies=              -100.762710
 Sum of electronic and thermal Enthalpies=            -100.761766
 Sum of electronic and thermal Free Energies=         -100.787463

                     E (Thermal)             CV                S
                      KCal/Mol        Cal/Mol-Kelvin    Cal/Mol-Kelvin
 Total                    2.796              8.526             54.084
 Electronic               0.000              0.000              1.377
 Translational            0.889              2.981             35.068
 Rotational               0.592              1.987             14.035
 Vibrational              1.315              3.558              3.603
 Vibration     1          0.657              1.779              1.801
 Vibration     2          0.657              1.779              1.801

 Normal termination of Gaussian 16 at Fri Aug 22 17:54:52 2025.
