 Gaussian 16, Revision C.01,
 Gaussian 16:  ES64L-G16RevC.01  3-Jul-2019

 -----------------------------------------
 # sp b3lyp/6-311g** Force nosymm scf=(qc)
 -----------------------------------------

 -------------------
 Title Card Required
 -------------------
 Symbolic Z-matrix:
 Charge =  0 Multiplicity = 2

                          Input orientation:
 ---------------------------------------------------------------------
 Center     Atomic      Atomic             Coordinates (Angstroms)
 Number     Number       Type             X           Y           Z
 ---------------------------------------------------------------------
      1          1           0        0.000000    0.000000    0.000000
      2          1           0       -2.450000    0.000000    0.000000
      3          9           0        2.850000    0.000000    0.000000
 ---------------------------------------------------------------------

 SCF Done:  E(UB3LYP) =  -100.766594890     a.u. after   23 cycles

 Alpha  occ. eigenvalues --  -24.73565  -1.19658  -0.52680  -0.44234  -0.44234
 Alpha  occ. eigenvalues --   -0.33314
 Alpha virt. eigenvalues --   -0.10981   0.25266   0.33326   0.90027   0.92591
 Alpha virt. eigenvalues --    0.92591   1.04900   1.24361   1.24361   1.26421
 Alpha virt. eigenvalues --    1.39093   1.39093   1.41515   2.14989   2.35710

  Beta  occ. eigenvalues --  -24.70577  -1.11105  -0.41246  -0.41246  -0.34172
  Beta virt. eigenvalues --   -0.24495  -0.09542   0.25698   0.34594   0.94039
  Beta virt. eigenvalues --    0.94039   0.98559   1.08726   1.23345   1.23345
  Beta virt. eigenvalues --    1.25516   1.41433   1.41433   1.43519   2.15858

 Mulliken charges and spin densities:
               1          2
     1  H    0.039958  -0.912508
     2  H    0.007883   0.966026
     3  F   -0.047841   0.946481
 Sum of Mulliken charges =  -0.00000   1.00000

 Dipole moment (field-independent basis, Debye):
    X=             -0.7910    Y=             -0.0000    Z=              0.0000  Tot=              0.7910
 Quadrupole moment (field-independent basis, Debye-Ang):
   XX=             -8.1696   YY=             -7.6480   ZZ=             -7.6480
   XY=             -0.0000   XZ=              0.0000   YZ=              0.0000

  Exact polarizability:      46.173      -0.000       2.012       0.000       0.000       2.012
 Approx polarizability:      43.706      -0.000       1.920       0.000      -0.000       1.920

 ******    2 imaginary frequencies (negative Signs) ******

                      1                      2                      3
                      A                      A                      A
 Frequencies --   -767.7451              -271.2381               291.5164
 Red. masses --      1.0108                 1.1049                 1.0162
 Frc consts  --      0.3510                 0.0479                 0.0509
 IR Inten    --     29.4754                24.4995                 1.2290

                      4
                      A
 Frequencies --    291.5164
 Red. masses --      1.0162
 Frc consts  --      0.0509
 IR Inten    --      1.2290

 - Thermochemistry -
 -------------------
 Temperature   298.150 Kelvin.  Pressure   1.00000 Atm.
 Atom     1 has atomic number  1 and mass   1.00783

 Molecular mass:    21.01405 amu.
 Principal axes and moments of inertia in atomic units:
                           1         2         3
     Eigenvalues --     0.00000 118.86411 118.86411
           X            1.00000  -0.00000   0.00000
           Y            0.00000   1.00000   0.00000
           Z            0.00000   0.00000   1.00000
 This molecule is a prolate symmetric top.
 Rotational symmetry number  1.
 Rotational temperature (Kelvin)      0.72868
 Rotational constant (GHZ):          15.183230
    2 imaginary frequencies ignored.
 Zero-point vibrational energy       3487.3 (Joules/Mol)
                                    0.83349 (Kcal/Mol)
 Warning -- explicit consideration of   2 degrees of freedom as
           vibrations may cause significant error
 Vibrational temperatures:    419.43   419.43
          (Kelvin)

 Zero-point correction=                           0.001328 (Hartree/Particle)
 Thermal correction to Energy=                    0.004550
 Thermal correction to Enthalpy=                  0.005495
 Thermal correction to Gibbs Free Energy=        -0.019837
 Sum of electronic and zero-point Energies=           -100.765267
 Sum of electronic and thermal Energies=              -100.762044
 Sum of electronic and thermal Enthalpies=            -100.761100
 Sum of electronic and thermal Free Energies=         -100.786432

                     E (Thermal)             CV                S
                      KCal/Mol        Cal/Mol-Kelvin    Cal/Mol-Kelvin
 Total                    2.855              8.347             53.314
 Electronic               0.000              0.000              1.377
 Translational            0.889              2.981             35.068
 Rotational               0.592              1.987             13.938
 Vibrational              1.374              3.379              2.930
 Vibration     1          0.687              1.690              1.465
 Vibration     2          0.687              1.690              1.465

 Normal termination of Gaussian 16 at Fri Aug 22 18:53:50 2025.
