 Gaussian 16, Revision C.01,
 Gaussian 16:  ES64L-G16RevC.01  3-Jul-2019

 -----------------------------------------
 # sp b3lyp/6-311g** Force nosymm scf=(qc)
 -----------------------------------------

 -------------------
 Title Card Required
 -------------------
 Symbolic Z-matrix:
 Charge =  0 Multiplicity = 2

                          Input orientation:
 ---------------------------------------------------------------------
 Center     Atomic      Atomic             Coordinates (Angstroms)
 Number     Number       Type             X           Y           Z
 ---------------------------------------------------------------------
      1          1           0        0.000000    0.000000    0.000000
      2          1           0       -0.900000    0.000000    0.000000
      3          9           0        2.600000    0.000000    0.000000
 ---------------------------------------------------------------------

 SCF Done:  E(UB3LYP) =  -100.921982988     a.u. after    6 cycles

 Alpha  occ. eigenvalues --  -24.75977  -1.21889  -0.55162  -0.46272  -0.46272
 Alpha  occ. eigenvalues --   -0.41105
 Alpha virt. eigenvalues --    0.02576   0.20713   0.42147   0.89850   0.91029
 Alpha virt. eigenvalues --    0.91029   1.07662   1.07662   1.09758   1.44707
 Alpha virt. eigenvalues --    1.71549   1.71549   2.18486   2.37945   2.73372

  Beta  occ. eigenvalues --  -24.72857  -1.12923  -0.43145  -0.43145  -0.41048
  Beta virt. eigenvalues --   -0.26164   0.02970   0.20963   0.42526   0.92506
  Beta virt. eigenvalues --    0.92506   0.98294   1.07799   1.07799   1.14154
  Beta virt. eigenvalues --    1.44883   1.71644   1.71644   2.18653   2.38090

 Mulliken charges and spin densities:
               1          2
     1  H   -0.012095  -0.009807
     2  H    0.016610   0.022454
     3  F   -0.004515   0.987354
 Sum of Mulliken charges =   0.00000   1.00000

 Dipole moment (field-independent basis, Debye):
    X=             -0.1384    Y=             -0.0000    Z=             -0.0000  Tot=              0.1384
 Quadrupole moment (field-independent basis, Debye-Ang):
   XX=             -5.6403   YY=             -7.1435   ZZ=             -7.1435
   XY=             -0.0000   XZ=             -0.0000   YZ=              0.0000

  Exact polarizability:      16.435      -0.000       2.044      -0.000      -0.000       2.044
 Approx polarizability:      18.499      -0.000       2.108      -0.000       0.000       2.108

 ******    1 imaginary frequencies (negative Signs) ******

                      1                      2                      3
                      A                      A                      A
 Frequencies --   -138.9540              1433.9526              1433.9526
 Red. masses --      1.1085                 1.0100                 1.0100
 Frc consts  --      0.0126                 1.2236                 1.2236
 IR Inten    --      3.8884                 0.2292                 0.2292

                      4
                      A
 Frequencies --   2614.2277
 Red. masses --      1.0078
 Frc consts  --      4.0581
 IR Inten    --     40.9424

 - Thermochemistry -
 -------------------
 Temperature   298.150 Kelvin.  Pressure   1.00000 Atm.
 Atom     1 has atomic number  1 and mass   1.00783

 Molecular mass:    21.01405 amu.
 Principal axes and moments of inertia in atomic units:
                           1         2         3
     Eigenvalues --     0.00000  61.99445  61.99445
           X            1.00000  -0.00000   0.00000
           Y            0.00000   1.00000   0.00000
           Z            0.00000   0.00000   1.00000
 This molecule is a prolate symmetric top.
 Rotational symmetry number  1.
 Rotational temperature (Kelvin)      1.39712
 Rotational constant (GHZ):          29.111335
    1 imaginary frequencies ignored.
 Zero-point vibrational energy      32790.4 (Joules/Mol)
                                    7.83710 (Kcal/Mol)
 Vibrational temperatures:   2063.14  2063.14  3761.29
          (Kelvin)

 Zero-point correction=                           0.012489 (Hartree/Particle)
 Thermal correction to Energy=                    0.014863
 Thermal correction to Enthalpy=                  0.015807
 Thermal correction to Gibbs Free Energy=        -0.007532
 Sum of electronic and zero-point Energies=           -100.909494
 Sum of electronic and thermal Energies=              -100.907120
 Sum of electronic and thermal Enthalpies=            -100.906176
 Sum of electronic and thermal Free Energies=         -100.929515

                     E (Thermal)             CV                S
                      KCal/Mol        Cal/Mol-Kelvin    Cal/Mol-Kelvin
 Total                    9.326              5.157             49.122
 Electronic               0.000              0.000              1.377
 Translational            0.889              2.981             35.068
 Rotational               0.592              1.987             12.645
 Vibrational              7.845              0.189              0.031

 Normal termination of Gaussian 16 at Fri Aug 22 18:00:06 2025.
