 Gaussian 16, Revision C.01,
 Gaussian 16:  ES64L-G16RevC.01  3-Jul-2019

 -----------------------------------------
 # sp b3lyp/6-311g** Force nosymm scf=(qc)
 -----------------------------------------

 -------------------
 Title Card Required
 -------------------
 Symbolic Z-matrix:
 Charge =  0 Multiplicity = 2

                          Input orientation:
 ---------------------------------------------------------------------
 Center     Atomic      Atomic             Coordinates (Angstroms)
 Number     Number       Type             X           Y           Z
 ---------------------------------------------------------------------
      1          1           0        0.000000    0.000000    0.000000
      2          1           0       -1.850000    0.000000    0.000000
      3          9           0        2.100000    0.000000    0.000000
 ---------------------------------------------------------------------

 SCF Done:  E(UB3LYP) =  -100.801601406     a.u. after   14 cycles

 Alpha  occ. eigenvalues --  -24.69194  -1.15518  -0.48336  -0.40559  -0.40559
 Alpha  occ. eigenvalues --   -0.36537
 Alpha virt. eigenvalues --   -0.13071   0.23780   0.31129   0.86698   0.94650
 Alpha virt. eigenvalues --    0.94650   1.03909   1.21180   1.21180   1.26017
 Alpha virt. eigenvalues --    1.34081   1.34081   1.60842   2.11944   2.34812

  Beta  occ. eigenvalues --  -24.66643  -1.08339  -0.38034  -0.38034  -0.36790
  Beta virt. eigenvalues --   -0.22306  -0.11699   0.26267   0.30900   0.90167
  Beta virt. eigenvalues --    0.95647   0.95647   1.07710   1.22568   1.22568
  Beta virt. eigenvalues --    1.32663   1.35417   1.35417   1.60300   2.12736

 Mulliken charges and spin densities:
               1          2
     1  H    0.106126  -0.617896
     2  H    0.049482   0.815154
     3  F   -0.155608   0.802742
 Sum of Mulliken charges =  -0.00000   1.00000

 Dipole moment (field-independent basis, Debye):
    X=             -2.0737    Y=              0.0000    Z=              0.0000  Tot=              2.0737
 Quadrupole moment (field-independent basis, Debye-Ang):
   XX=             -8.3694   YY=             -7.5854   ZZ=             -7.5854
   XY=             -0.0000   XZ=             -0.0000   YZ=             -0.0000

  Exact polarizability:      54.802      -0.000       2.051      -0.000       0.000       2.051
 Approx polarizability:      68.454       0.000       1.970       0.000       0.000       1.970

 ******    2 imaginary frequencies (negative Signs) ******

                      1                      2                      3
                      A                      A                      A
 Frequencies --  -1730.8166              -543.2499               724.9627
 Red. masses --      1.0126                 1.1028                 1.0165
 Frc consts  --      1.7873                 0.1918                 0.3148
 IR Inten    --    184.0279                41.9693                 5.7194

                      4
                      A
 Frequencies --    724.9627
 Red. masses --      1.0165
 Frc consts  --      0.3148
 IR Inten    --      5.7194

 - Thermochemistry -
 -------------------
 Temperature   298.150 Kelvin.  Pressure   1.00000 Atm.
 Atom     1 has atomic number  1 and mass   1.00783

 Molecular mass:    21.01405 amu.
 Principal axes and moments of inertia in atomic units:
                           1         2         3
     Eigenvalues --     0.00000  65.70731  65.70731
           X            1.00000  -0.00000   0.00000
           Y            0.00000   1.00000   0.00000
           Z            0.00000   0.00000   1.00000
 This molecule is a prolate symmetric top.
 Rotational symmetry number  1.
 Rotational temperature (Kelvin)      1.31818
 Rotational constant (GHZ):          27.466367
    2 imaginary frequencies ignored.
 Zero-point vibrational energy       8672.5 (Joules/Mol)
                                    2.07277 (Kcal/Mol)
 Vibrational temperatures:   1043.06  1043.06
          (Kelvin)

 Zero-point correction=                           0.003303 (Hartree/Particle)
 Thermal correction to Energy=                    0.005870
 Thermal correction to Enthalpy=                  0.006814
 Thermal correction to Gibbs Free Energy=        -0.016830
 Sum of electronic and zero-point Energies=           -100.798298
 Sum of electronic and thermal Energies=              -100.795732
 Sum of electronic and thermal Enthalpies=            -100.794788
 Sum of electronic and thermal Free Energies=         -100.818431

                     E (Thermal)             CV                S
                      KCal/Mol        Cal/Mol-Kelvin    Cal/Mol-Kelvin
 Total                    3.683              6.532             49.762
 Electronic               0.000              0.000              1.377
 Translational            0.889              2.981             35.068
 Rotational               0.592              1.987             12.761
 Vibrational              2.202              1.564              0.556

 Normal termination of Gaussian 16 at Fri Aug 22 17:03:41 2025.
