 Gaussian 16, Revision C.01,
 Gaussian 16:  ES64L-G16RevC.01  3-Jul-2019

 -----------------------------------------
 # sp b3lyp/6-311g** Force nosymm scf=(qc)
 -----------------------------------------

 -------------------
 Title Card Required
 -------------------
 Symbolic Z-matrix:
 Charge =  0 Multiplicity = 2

                          Input orientation:
 ---------------------------------------------------------------------
 Center     Atomic      Atomic             Coordinates (Angstroms)
 Number     Number       Type             X           Y           Z
 ---------------------------------------------------------------------
      1          1           0        0.000000    0.000000    0.000000
      2          1           0       -3.300000    0.000000    0.000000
      3          9           0        3.850000    0.000000    0.000000
 ---------------------------------------------------------------------

 SCF Done:  E(UB3LYP) =  -100.758951716     a.u. after   32 cycles

 Alpha  occ. eigenvalues --  -24.75795  -1.21729  -0.54920  -0.46112  -0.46112
 Alpha  occ. eigenvalues --   -0.32300
 Alpha virt. eigenvalues --   -0.07070   0.24593   0.37226   0.86770   0.91224
 Alpha virt. eigenvalues --    0.91224   1.01206   1.25212   1.25212   1.25507
 Alpha virt. eigenvalues --    1.45056   1.45282   1.45282   2.15374   2.40590

  Beta  occ. eigenvalues --  -24.72655  -1.12700  -0.42964  -0.42964  -0.32539
  Beta virt. eigenvalues --   -0.25690  -0.06802   0.24418   0.37619   0.92721
  Beta virt. eigenvalues --    0.92721   0.96100   1.05313   1.24949   1.24949
  Beta virt. eigenvalues --    1.25227   1.45472   1.45692   1.45692   2.15413

 Mulliken charges and spin densities:
               1          2
     1  H    0.003823  -0.992048
     2  H    0.000151   0.996465
     3  F   -0.003973   0.995583
 Sum of Mulliken charges =  -0.00000   1.00000

 Dipole moment (field-independent basis, Debye):
    X=             -0.0815    Y=              0.0000    Z=             -0.0000  Tot=              0.0815
 Quadrupole moment (field-independent basis, Debye-Ang):
   XX=             -6.9797   YY=             -7.6274   ZZ=             -7.6274
   XY=             -0.0000   XZ=             -0.0000   YZ=             -0.0000

  Exact polarizability:      14.839       0.000       2.031      -0.000      -0.000       2.031
 Approx polarizability:      10.988      -0.000       1.935      -0.000       0.000       1.935

 ******    2 imaginary frequencies (negative Signs) ******

                      1                      2                      3
                      A                      A                      A
 Frequencies --   -242.2903               -83.5436                82.7374
 Red. masses --      1.0100                 1.1058                 1.0162
 Frc consts  --      0.0349                 0.0045                 0.0041
 IR Inten    --      1.6427                 0.9836                 0.0135

                      4
                      A
 Frequencies --     82.7374
 Red. masses --      1.0162
 Frc consts  --      0.0041
 IR Inten    --      0.0135

 - Thermochemistry -
 -------------------
 Temperature   298.150 Kelvin.  Pressure   1.00000 Atm.
 Atom     1 has atomic number  1 and mass   1.00783

 Molecular mass:    21.01405 amu.
 Principal axes and moments of inertia in atomic units:
                           1         2         3
     Eigenvalues --     0.00000 216.45118 216.45118
           X            1.00000  -0.00000   0.00000
           Y            0.00000   1.00000   0.00000
           Z            0.00000   0.00000   1.00000
 This molecule is a prolate symmetric top.
 Rotational symmetry number  1.
 Rotational temperature (Kelvin)      0.40015
 Rotational constant (GHZ):           8.337867
    2 imaginary frequencies ignored.
 Zero-point vibrational energy        989.8 (Joules/Mol)
                                    0.23656 (Kcal/Mol)
 Warning -- explicit consideration of   2 degrees of freedom as
           vibrations may cause significant error
 Vibrational temperatures:    119.04   119.04
          (Kelvin)

 Zero-point correction=                           0.000377 (Hartree/Particle)
 Thermal correction to Energy=                    0.004274
 Thermal correction to Enthalpy=                  0.005218
 Thermal correction to Gibbs Free Energy=        -0.022922
 Sum of electronic and zero-point Energies=           -100.758575
 Sum of electronic and thermal Energies=              -100.754678
 Sum of electronic and thermal Enthalpies=            -100.753734
 Sum of electronic and thermal Free Energies=         -100.781873

                     E (Thermal)             CV                S
                      KCal/Mol        Cal/Mol-Kelvin    Cal/Mol-Kelvin
 Total                    2.682              8.890             59.225
 Electronic               0.000              0.000              1.377
 Translational            0.889              2.981             35.068
 Rotational               0.592              1.987             15.130
 Vibrational              1.201              3.922              7.650
 Vibration     1          0.600              1.961              3.825
 Vibration     2          0.600              1.961              3.825

 Normal termination of Gaussian 16 at Sat Aug 23 01:10:35 2025.
