 Gaussian 16, Revision C.01,
 Gaussian 16:  ES64L-G16RevC.01  3-Jul-2019

 -----------------------------------------
 # sp b3lyp/6-311g** Force nosymm scf=(qc)
 -----------------------------------------

 -------------------
 Title Card Required
 -------------------
 Symbolic Z-matrix:
 Charge =  0 Multiplicity = 2

                          Input orientation:
 ---------------------------------------------------------------------
 Center     Atomic      Atomic             Coordinates (Angstroms)
 Number     Number       Type             X           Y           Z
 ---------------------------------------------------------------------
      1          1           0        0.000000    0.000000    0.000000
      2          1           0       -1.600000    0.000000    0.000000
      3          9           0        1.300000    0.000000    0.000000
 ---------------------------------------------------------------------

 SCF Done:  E(UB3LYP) =  -100.909826488     a.u. after    9 cycles

 Alpha  occ. eigenvalues --  -24.63511  -1.10950  -0.47779  -0.37748  -0.36468
 Alpha  occ. eigenvalues --   -0.36468
 Alpha virt. eigenvalues --   -0.03282   0.21242   0.28583   0.93619   0.93619
 Alpha virt. eigenvalues --    1.01917   1.03735   1.16581   1.16581   1.38612
 Alpha virt. eigenvalues --    1.38612   1.51863   1.79290   2.18681   2.37658

  Beta  occ. eigenvalues --  -24.62895  -1.09363  -0.44564  -0.35896  -0.35896
  Beta virt. eigenvalues --   -0.19080   0.00388   0.25445   0.31357   0.93669
  Beta virt. eigenvalues --    0.93669   1.03670   1.10357   1.26766   1.26766
  Beta virt. eigenvalues --    1.42009   1.42009   1.55911   1.85157   2.26044

 Mulliken charges and spin densities:
               1          2
     1  H    0.305139  -0.070356
     2  H    0.057433   0.883998
     3  F   -0.362572   0.186358
 Sum of Mulliken charges =   0.00000   1.00000

 Dipole moment (field-independent basis, Debye):
    X=             -2.8685    Y=              0.0000    Z=              0.0000  Tot=              2.8685
 Quadrupole moment (field-independent basis, Debye-Ang):
   XX=             -8.1734   YY=             -7.0931   ZZ=             -7.0931
   XY=              0.0000   XZ=              0.0000   YZ=              0.0000

  Exact polarizability:      23.138      -0.000       2.378       0.000      -0.000       2.378
 Approx polarizability:      30.406      -0.000       2.339       0.000      -0.000       2.339

 ******    1 imaginary frequencies (negative Signs) ******

                      1                      2                      3
                      A                      A                      A
 Frequencies --  -1858.4209               221.4731              1108.5146
 Red. masses --      1.0225                 1.0913                 1.0206
 Frc consts  --      2.0806                 0.0315                 0.7389
 IR Inten    --     51.2468                16.6445                63.9914

                      4
                      A
 Frequencies --   1108.5146
 Red. masses --      1.0206
 Frc consts  --      0.7389
 IR Inten    --     63.9914

 - Thermochemistry -
 -------------------
 Temperature   298.150 Kelvin.  Pressure   1.00000 Atm.
 Atom     1 has atomic number  1 and mass   1.00783

 Molecular mass:    21.01405 amu.
 Principal axes and moments of inertia in atomic units:
                           1         2         3
     Eigenvalues --     0.00000  33.30520  33.30520
           X            1.00000  -0.00000   0.00000
           Y            0.00000   1.00000   0.00000
           Z            0.00000   0.00000   1.00000
 This molecule is a prolate symmetric top.
 Rotational symmetry number  1.
 Rotational temperature (Kelvin)      2.60061
 Rotational constant (GHZ):          54.187970
    1 imaginary frequencies ignored.
 Zero-point vibrational energy      14585.5 (Joules/Mol)
                                    3.48601 (Kcal/Mol)
 Warning -- explicit consideration of   1 degrees of freedom as
           vibrations may cause significant error
 Vibrational temperatures:    318.65  1594.91  1594.91
          (Kelvin)

 Zero-point correction=                           0.005555 (Hartree/Particle)
 Thermal correction to Energy=                    0.008492
 Thermal correction to Enthalpy=                  0.009436
 Thermal correction to Gibbs Free Energy=        -0.014284
 Sum of electronic and zero-point Energies=           -100.904271
 Sum of electronic and thermal Energies=              -100.901335
 Sum of electronic and thermal Enthalpies=            -100.900390
 Sum of electronic and thermal Free Energies=         -100.924111

                     E (Thermal)             CV                S
                      KCal/Mol        Cal/Mol-Kelvin    Cal/Mol-Kelvin
 Total                    5.329              7.322             49.923
 Electronic               0.000              0.000              1.377
 Translational            0.889              2.981             35.068
 Rotational               0.592              1.987             11.410
 Vibrational              3.848              2.354              2.067
 Vibration     1          0.648              1.808              1.947

 Normal termination of Gaussian 16 at Fri Aug 22 16:14:46 2025.
