 Gaussian 16, Revision C.01,
 Gaussian 16:  ES64L-G16RevC.01  3-Jul-2019

 -----------------------------------------
 # sp b3lyp/6-311g** Force nosymm scf=(qc)
 -----------------------------------------

 -------------------
 Title Card Required
 -------------------
 Symbolic Z-matrix:
 Charge =  0 Multiplicity = 2

                          Input orientation:
 ---------------------------------------------------------------------
 Center     Atomic      Atomic             Coordinates (Angstroms)
 Number     Number       Type             X           Y           Z
 ---------------------------------------------------------------------
      1          1           0        0.000000    0.000000    0.000000
      2          1           0       -0.750000    0.000000    0.000000
      3          9           0        3.050000    0.000000    0.000000
 ---------------------------------------------------------------------

 SCF Done:  E(UB3LYP) =  -100.934359663     a.u. after   52 cycles

 Alpha  occ. eigenvalues --  -24.76586  -1.22396  -0.55590  -0.46850  -0.46740
 Alpha  occ. eigenvalues --   -0.43006
 Alpha virt. eigenvalues --    0.06042   0.19943   0.46867   0.85869   0.90742
 Alpha virt. eigenvalues --    0.93836   1.05303   1.08635   1.08642   1.55502
 Alpha virt. eigenvalues --    1.82492   1.82500   1.98457   2.38712   3.28346

  Beta  occ. eigenvalues --  -24.73424  -1.13310  -0.43874  -0.43570  -0.42809
  Beta virt. eigenvalues --   -0.26214   0.06082   0.19970   0.46967   0.92241
  Beta virt. eigenvalues --    0.95327   0.95625   1.08635   1.08641   1.09006
  Beta virt. eigenvalues --    1.55515   1.82492   1.82499   1.98489   2.38717

 Mulliken charges and spin densities:
               1          2
     1  H   -0.005223  -0.001102
     2  H   -0.003591  -0.000049
     3  F    0.008813   1.001150
 Sum of Mulliken charges =   0.00000   1.00000

 Dipole moment (field-independent basis, Debye):
    X=              0.0887    Y=              0.0000    Z=             -0.0000  Tot=              0.0887
 Quadrupole moment (field-independent basis, Debye-Ang):
   XX=             -6.0828   YY=             -6.5280   ZZ=             -6.5268
   XY=              0.0000   XZ=             -0.0000   YZ=             -0.4318

  Exact polarizability:       8.621      -0.000       2.192       0.000      -0.230       2.192
 Approx polarizability:       9.836      -0.000       2.327      -0.000      -0.289       2.328

                      1                      2                      3
                      A                      A                      A
 Frequencies --     60.8057               434.2682               434.4004
 Red. masses --      1.1085                 1.0090                 1.0090
 Frc consts  --      0.0024                 0.1121                 0.1122
 IR Inten    --      0.2377                 0.0084                 0.0083

                      4
                      A
 Frequencies --   4338.1142
 Red. masses --      1.0078
 Frc consts  --     11.1747
 IR Inten    --      0.3620

 - Thermochemistry -
 -------------------
 Temperature   298.150 Kelvin.  Pressure   1.00000 Atm.
 Atom     1 has atomic number  1 and mass   1.00783

 Molecular mass:    21.01405 amu.
 Principal axes and moments of inertia in atomic units:
                           1         2         3
     Eigenvalues --     0.00000  77.35031  77.35031
           X            1.00000  -0.00000   0.00000
           Y            0.00000   1.00000   0.00000
           Z            0.00000   0.00000   1.00000
 This molecule is a prolate symmetric top.
 Rotational symmetry number  1.
 Rotational temperature (Kelvin)      1.11976
 Rotational constant (GHZ):          23.332048
 Zero-point vibrational energy      31507.2 (Joules/Mol)
                                    7.53040 (Kcal/Mol)
 Warning -- explicit consideration of   3 degrees of freedom as
           vibrations may cause significant error
 Vibrational temperatures:     87.49   624.82   625.01  6241.58
          (Kelvin)

 Zero-point correction=                           0.012000 (Hartree/Particle)
 Thermal correction to Energy=                    0.015728
 Thermal correction to Enthalpy=                  0.016672
 Thermal correction to Gibbs Free Energy=        -0.009769
 Sum of electronic and zero-point Energies=           -100.922359
 Sum of electronic and thermal Energies=              -100.918631
 Sum of electronic and thermal Enthalpies=            -100.917687
 Sum of electronic and thermal Free Energies=         -100.944129

                     E (Thermal)             CV                S
                      KCal/Mol        Cal/Mol-Kelvin    Cal/Mol-Kelvin
 Total                    9.870              9.732             55.650
 Electronic               0.000              0.000              1.377
 Translational            0.889              2.981             35.068
 Rotational               0.592              1.987             13.085
 Vibrational              8.388              4.764              6.120
 Vibration     1          0.597              1.973              4.431
 Vibration     2          0.795              1.396              0.845
 Vibration     3          0.795              1.395              0.844

 Normal termination of Gaussian 16 at Fri Aug 22 19:36:42 2025.
