 Gaussian 16, Revision C.01,
 Gaussian 16:  ES64L-G16RevC.01  3-Jul-2019

 -----------------------------------------
 # sp b3lyp/6-311g** Force nosymm scf=(qc)
 -----------------------------------------

 -------------------
 Title Card Required
 -------------------
 Symbolic Z-matrix:
 Charge =  0 Multiplicity = 2

                          Input orientation:
 ---------------------------------------------------------------------
 Center     Atomic      Atomic             Coordinates (Angstroms)
 Number     Number       Type             X           Y           Z
 ---------------------------------------------------------------------
      1          1           0        0.000000    0.000000    0.000000
      2          1           0       -2.800000    0.000000    0.000000
      3          9           0        0.950000    0.000000    0.000000
 ---------------------------------------------------------------------

 SCF Done:  E(UB3LYP) =  -100.971212115     a.u. after    6 cycles

 Alpha  occ. eigenvalues --  -24.64051  -1.17395  -0.52713  -0.39164  -0.39164
 Alpha  occ. eigenvalues --   -0.34422
 Alpha virt. eigenvalues --    0.02502   0.25176   0.36570   0.94268   0.94268
 Alpha virt. eigenvalues --    0.98152   1.21743   1.23117   1.23117   1.33970
 Alpha virt. eigenvalues --    1.36530   1.36530   1.96455   2.14435   2.35193

  Beta  occ. eigenvalues --  -24.64043  -1.17372  -0.52680  -0.39156  -0.39156
  Beta virt. eigenvalues --   -0.08143   0.03901   0.36417   0.38362   0.94270
  Beta virt. eigenvalues --    0.94270   0.98158   1.30206   1.36521   1.36521
  Beta virt. eigenvalues --    1.47044   1.47044   1.49971   1.96660   2.35031

 Mulliken charges and spin densities:
               1          2
     1  H    0.305469   0.001982
     2  H    0.003711   0.994990
     3  F   -0.309180   0.003027
 Sum of Mulliken charges =   0.00000   1.00000

 Dipole moment (field-independent basis, Debye):
    X=             -2.0068    Y=              0.0000    Z=              0.0000  Tot=              2.0068
 Quadrupole moment (field-independent basis, Debye-Ang):
   XX=             -7.9244   YY=             -6.9139   ZZ=             -6.9139
   XY=             -0.0000   XZ=             -0.0000   YZ=              0.0000

  Exact polarizability:       7.315       0.000       2.429      -0.000       0.000       2.429
 Approx polarizability:       8.334       0.000       2.407      -0.000       0.000       2.407

 ******    1 imaginary frequencies (negative Signs) ******

                      1                      2                      3
                      A                      A                      A
 Frequencies --    -72.4974               666.9965               666.9965
 Red. masses --      1.0531                 1.0343                 1.0343
 Frc consts  --      0.0033                 0.2711                 0.2711
 IR Inten    --      0.3705               167.0490               167.0490

                      4
                      A
 Frequencies --   3675.4444
 Red. masses --      1.0584
 Frc consts  --      8.4242
 IR Inten    --    111.3055

 - Thermochemistry -
 -------------------
 Temperature   298.150 Kelvin.  Pressure   1.00000 Atm.
 Atom     1 has atomic number  1 and mass   1.00783

 Molecular mass:    21.01405 amu.
 Principal axes and moments of inertia in atomic units:
                           1         2         3
     Eigenvalues --     0.00000  50.04628  50.04628
           X            1.00000  -0.00000   0.00000
           Y            0.00000   1.00000   0.00000
           Z            0.00000   0.00000   1.00000
 This molecule is a prolate symmetric top.
 Rotational symmetry number  1.
 Rotational temperature (Kelvin)      1.73068
 Rotational constant (GHZ):          36.061448
    1 imaginary frequencies ignored.
 Zero-point vibrational energy      29963.1 (Joules/Mol)
                                    7.16135 (Kcal/Mol)
 Vibrational temperatures:    959.66   959.66  5288.14
          (Kelvin)

 Zero-point correction=                           0.011412 (Hartree/Particle)
 Thermal correction to Energy=                    0.014026
 Thermal correction to Enthalpy=                  0.014970
 Thermal correction to Gibbs Free Energy=        -0.008482
 Sum of electronic and zero-point Energies=           -100.959800
 Sum of electronic and thermal Energies=              -100.957186
 Sum of electronic and thermal Enthalpies=            -100.956242
 Sum of electronic and thermal Free Energies=         -100.979695

                     E (Thermal)             CV                S
                      KCal/Mol        Cal/Mol-Kelvin    Cal/Mol-Kelvin
 Total                    8.802              6.755             49.360
 Electronic               0.000              0.000              1.377
 Translational            0.889              2.981             35.068
 Rotational               0.592              1.987             12.219
 Vibrational              7.320              1.787              0.695

 Normal termination of Gaussian 16 at Fri Aug 22 15:58:41 2025.
