 Gaussian 16, Revision C.01,
 Gaussian 16:  ES64L-G16RevC.01  3-Jul-2019

 -----------------------------------------
 # sp b3lyp/6-311g** Force nosymm scf=(qc)
 -----------------------------------------

 -------------------
 Title Card Required
 -------------------
 Symbolic Z-matrix:
 Charge =  0 Multiplicity = 2

                          Input orientation:
 ---------------------------------------------------------------------
 Center     Atomic      Atomic             Coordinates (Angstroms)
 Number     Number       Type             X           Y           Z
 ---------------------------------------------------------------------
      1          1           0        0.000000    0.000000    0.000000
      2          1           0       -2.400000    0.000000    0.000000
      3          9           0        3.800000    0.000000    0.000000
 ---------------------------------------------------------------------

 SCF Done:  E(UB3LYP) =  -100.763842826     a.u. after   37 cycles

 Alpha  occ. eigenvalues --  -24.75808  -1.21741  -0.54932  -0.46124  -0.46124
 Alpha  occ. eigenvalues --   -0.32623
 Alpha virt. eigenvalues --   -0.09604   0.25866   0.34339   0.86837   0.91211
 Alpha virt. eigenvalues --    0.91211   1.01225   1.25079   1.25079   1.26294
 Alpha virt. eigenvalues --    1.41017   1.41017   1.43504   2.15486   2.36101

  Beta  occ. eigenvalues --  -24.72669  -1.12715  -0.42977  -0.42977  -0.32775
  Beta virt. eigenvalues --   -0.25712  -0.09354   0.25696   0.34699   0.92708
  Beta virt. eigenvalues --    0.92708   0.96162   1.05334   1.24906   1.24906
  Beta virt. eigenvalues --    1.26105   1.41379   1.41379   1.43848   2.15705

 Mulliken charges and spin densities:
               1          2
     1  H    0.002526  -0.954498
     2  H    0.001579   0.959184
     3  F   -0.004104   0.995314
 Sum of Mulliken charges =   0.00000   1.00000

 Dipole moment (field-independent basis, Debye):
    X=             -0.0981    Y=              0.0000    Z=              0.0000  Tot=              0.0981
 Quadrupole moment (field-independent basis, Debye-Ang):
   XX=             -6.7360   YY=             -7.6766   ZZ=             -7.6766
   XY=              0.0000   XZ=              0.0000   YZ=              0.0000

  Exact polarizability:      25.713      -0.000       2.016       0.000       0.000       2.016
 Approx polarizability:      19.555       0.000       1.931       0.000      -0.000       1.931

 ******    2 imaginary frequencies (negative Signs) ******

                      1                      2                      3
                      A                      A                      A
 Frequencies --   -764.0710               -94.7998               286.5832
 Red. masses --      1.0079                 1.1085                 1.0133
 Frc consts  --      0.3467                 0.0059                 0.0490
 IR Inten    --      1.5706                 1.7648                 0.0034

                      4
                      A
 Frequencies --    286.5832
 Red. masses --      1.0133
 Frc consts  --      0.0490
 IR Inten    --      0.0034

 - Thermochemistry -
 -------------------
 Temperature   298.150 Kelvin.  Pressure   1.00000 Atm.
 Atom     1 has atomic number  1 and mass   1.00783

 Molecular mass:    21.01405 amu.
 Principal axes and moments of inertia in atomic units:
                           1         2         3
     Eigenvalues --     0.00000 173.05488 173.05488
           X            1.00000  -0.00000   0.00000
           Y            0.00000   1.00000   0.00000
           Z            0.00000   0.00000   1.00000
 This molecule is a prolate symmetric top.
 Rotational symmetry number  1.
 Rotational temperature (Kelvin)      0.50050
 Rotational constant (GHZ):          10.428722
    2 imaginary frequencies ignored.
 Zero-point vibrational energy       3428.3 (Joules/Mol)
                                    0.81938 (Kcal/Mol)
 Warning -- explicit consideration of   2 degrees of freedom as
           vibrations may cause significant error
 Vibrational temperatures:    412.33   412.33
          (Kelvin)

 Zero-point correction=                           0.001306 (Hartree/Particle)
 Thermal correction to Energy=                    0.004541
 Thermal correction to Enthalpy=                  0.005485
 Thermal correction to Gibbs Free Energy=        -0.020229
 Sum of electronic and zero-point Energies=           -100.762537
 Sum of electronic and thermal Energies=              -100.759302
 Sum of electronic and thermal Enthalpies=            -100.758358
 Sum of electronic and thermal Free Energies=         -100.784071

                     E (Thermal)             CV                S
                      KCal/Mol        Cal/Mol-Kelvin    Cal/Mol-Kelvin
 Total                    2.849              8.365             54.118
 Electronic               0.000              0.000              1.377
 Translational            0.889              2.981             35.068
 Rotational               0.592              1.987             14.685
 Vibrational              1.368              3.397              2.988
 Vibration     1          0.684              1.699              1.494
 Vibration     2          0.684              1.699              1.494

 Normal termination of Gaussian 16 at Sat Aug 23 00:50:19 2025.
