 Gaussian 16, Revision C.01,
 Gaussian 16:  ES64L-G16RevC.01  3-Jul-2019

 -----------------------------------------
 # sp b3lyp/6-311g** Force nosymm scf=(qc)
 -----------------------------------------

 -------------------
 Title Card Required
 -------------------
 Symbolic Z-matrix:
 Charge =  0 Multiplicity = 2

                          Input orientation:
 ---------------------------------------------------------------------
 Center     Atomic      Atomic             Coordinates (Angstroms)
 Number     Number       Type             X           Y           Z
 ---------------------------------------------------------------------
      1          1           0        0.000000    0.000000    0.000000
      2          1           0       -0.900000    0.000000    0.000000
      3          9           0        0.700000    0.000000    0.000000
 ---------------------------------------------------------------------

 SCF Done:  E(UB3LYP) =  -100.817966283     a.u. after    6 cycles

 Alpha  occ. eigenvalues --  -24.65477  -1.32061  -0.65056  -0.43983  -0.43983
 Alpha  occ. eigenvalues --   -0.33311
 Alpha virt. eigenvalues --    0.16535   0.18976   0.72740   0.87963   0.87963
 Alpha virt. eigenvalues --    0.93109   1.09001   1.09001   1.46427   1.73671
 Alpha virt. eigenvalues --    1.73671   1.75265   2.18278   2.38355   3.76897

  Beta  occ. eigenvalues --  -24.64903  -1.30359  -0.61849  -0.43503  -0.43503
  Beta virt. eigenvalues --   -0.13153   0.17281   0.24572   0.77954   0.89637
  Beta virt. eigenvalues --    0.89637   0.94621   1.15580   1.15580   1.47690
  Beta virt. eigenvalues --    1.79453   1.79453   1.82006   2.26297   2.50021

 Mulliken charges and spin densities:
               1          2
     1  H    0.260101  -0.014459
     2  H   -0.038121   0.920802
     3  F   -0.221980   0.093658
 Sum of Mulliken charges =   0.00000   1.00000

 Dipole moment (field-independent basis, Debye):
    X=             -1.1396    Y=             -0.0000    Z=             -0.0000  Tot=              1.1396
 Quadrupole moment (field-independent basis, Debye-Ang):
   XX=             -7.4299   YY=             -6.4736   ZZ=             -6.4736
   XY=             -0.0000   XZ=             -0.0000   YZ=             -0.0000

  Exact polarizability:       8.367       0.000       2.544      -0.000      -0.000       2.544
 Approx polarizability:       8.363       0.000       2.608       0.000      -0.000       2.608

 ******    2 imaginary frequencies (negative Signs) ******

                      1                      2                      3
                      A                      A                      A
 Frequencies --  -3729.3999             -3729.3999              2484.3796
 Red. masses --      1.0213                 1.0213                 1.0571
 Frc consts  --      8.3688                 8.3688                 3.8442
 IR Inten    --    118.5747               118.5747               115.0535

                      4
                      A
 Frequencies --   9026.2719
 Red. masses --      1.0544
 Frc consts  --     50.6159
 IR Inten    --     60.3083

 - Thermochemistry -
 -------------------
 Temperature   298.150 Kelvin.  Pressure   1.00000 Atm.
 Atom     1 has atomic number  1 and mass   1.00783

 Molecular mass:    21.01405 amu.
 Principal axes and moments of inertia in atomic units:
                           1         2         3
     Eigenvalues --     0.00000  10.06389  10.06389
           X            1.00000  -0.00000   0.00000
           Y            0.00000   1.00000   0.00000
           Z            0.00000   0.00000   1.00000
 This molecule is a prolate symmetric top.
 Rotational symmetry number  1.
 Rotational temperature (Kelvin)      8.60641
 Rotational constant (GHZ):         179.328472
    2 imaginary frequencies ignored.
 Zero-point vibrational energy      68849.0 (Joules/Mol)
                                   16.45530 (Kcal/Mol)
 Vibrational temperatures:   3574.47 12986.79
          (Kelvin)

 Zero-point correction=                           0.026223 (Hartree/Particle)
 Thermal correction to Energy=                    0.028584
 Thermal correction to Enthalpy=                  0.029528
 Thermal correction to Gibbs Free Energy=         0.007920
 Sum of electronic and zero-point Energies=           -100.791743
 Sum of electronic and thermal Energies=              -100.789383
 Sum of electronic and thermal Enthalpies=            -100.788438
 Sum of electronic and thermal Free Energies=         -100.810046

                     E (Thermal)             CV                S
                      KCal/Mol        Cal/Mol-Kelvin    Cal/Mol-Kelvin
 Total                   17.937              4.970             45.478
 Electronic               0.000              0.000              1.377
 Translational            0.889              2.981             35.068
 Rotational               0.592              1.987              9.032
 Vibrational             16.455              0.002              0.000

 Normal termination of Gaussian 16 at Fri Aug 22 15:45:39 2025.
