 Gaussian 16, Revision C.01,
 Gaussian 16:  ES64L-G16RevC.01  3-Jul-2019

 -----------------------------------------
 # sp b3lyp/6-311g** Force nosymm scf=(qc)
 -----------------------------------------

 -------------------
 Title Card Required
 -------------------
 Symbolic Z-matrix:
 Charge =  0 Multiplicity = 2

                          Input orientation:
 ---------------------------------------------------------------------
 Center     Atomic      Atomic             Coordinates (Angstroms)
 Number     Number       Type             X           Y           Z
 ---------------------------------------------------------------------
      1          1           0        0.000000    0.000000    0.000000
      2          1           0       -3.150000    0.000000    0.000000
      3          9           0        2.050000    0.000000    0.000000
 ---------------------------------------------------------------------

 SCF Done:  E(UB3LYP) =  -100.784565327     a.u. after   14 cycles

 Alpha  occ. eigenvalues --  -24.68626  -1.14949  -0.47632  -0.40096  -0.40096
 Alpha  occ. eigenvalues --   -0.33681
 Alpha virt. eigenvalues --   -0.13364   0.22855   0.32246   0.88745   0.94804
 Alpha virt. eigenvalues --    0.94804   1.05913   1.23851   1.23851   1.24324
 Alpha virt. eigenvalues --    1.35892   1.35892   1.58082   2.14334   2.30332

  Beta  occ. eigenvalues --  -24.66177  -1.08086  -0.37679  -0.37679  -0.37604
  Beta virt. eigenvalues --   -0.21085  -0.07746   0.23327   0.37210   0.90603
  Beta virt. eigenvalues --    0.95578   0.95578   1.08287   1.21792   1.21792
  Beta virt. eigenvalues --    1.44184   1.44884   1.44884   1.50909   2.12414

 Mulliken charges and spin densities:
               1          2
     1  H    0.176147  -0.764625
     2  H    0.003688   0.994374
     3  F   -0.179835   0.770252
 Sum of Mulliken charges =  -0.00000   1.00000

 Dipole moment (field-independent basis, Debye):
    X=             -1.8842    Y=             -0.0000    Z=              0.0000  Tot=              1.8842
 Quadrupole moment (field-independent basis, Debye-Ang):
   XX=             -9.8525   YY=             -7.5067   ZZ=             -7.5067
   XY=              0.0000   XZ=             -0.0000   YZ=              0.0000

  Exact polarizability:      28.637       0.000       2.054      -0.000      -0.000       2.054
 Approx polarizability:      39.118       0.000       1.941      -0.000      -0.000       1.941

 ******    2 imaginary frequencies (negative Signs) ******

                      1                      2                      3
                      A                      A                      A
 Frequencies --  -1063.1057              -182.8347               446.8699
 Red. masses --      1.0551                 1.0565                 1.0239
 Frc consts  --      0.7026                 0.0208                 0.1205
 IR Inten    --    114.1155                 1.1992                28.4035

                      4
                      A
 Frequencies --    446.8699
 Red. masses --      1.0239
 Frc consts  --      0.1205
 IR Inten    --     28.4035

 - Thermochemistry -
 -------------------
 Temperature   298.150 Kelvin.  Pressure   1.00000 Atm.
 Atom     1 has atomic number  1 and mass   1.00783

 Molecular mass:    21.01405 amu.
 Principal axes and moments of inertia in atomic units:
                           1         2         3
     Eigenvalues --     0.00000 103.36937 103.36937
           X            1.00000  -0.00000   0.00000
           Y            0.00000   1.00000   0.00000
           Z            0.00000   0.00000   1.00000
 This molecule is a prolate symmetric top.
 Rotational symmetry number  1.
 Rotational temperature (Kelvin)      0.83791
 Rotational constant (GHZ):          17.459148
    2 imaginary frequencies ignored.
 Zero-point vibrational energy       5345.8 (Joules/Mol)
                                    1.27767 (Kcal/Mol)
 Warning -- explicit consideration of   2 degrees of freedom as
           vibrations may cause significant error
 Vibrational temperatures:    642.95   642.95
          (Kelvin)

 Zero-point correction=                           0.002036 (Hartree/Particle)
 Thermal correction to Energy=                    0.004930
 Thermal correction to Enthalpy=                  0.005874
 Thermal correction to Gibbs Free Energy=        -0.018699
 Sum of electronic and zero-point Energies=           -100.782529
 Sum of electronic and thermal Energies=              -100.779636
 Sum of electronic and thermal Enthalpies=            -100.778692
 Sum of electronic and thermal Free Energies=         -100.803264

                     E (Thermal)             CV                S
                      KCal/Mol        Cal/Mol-Kelvin    Cal/Mol-Kelvin
 Total                    3.093              7.704             51.717
 Electronic               0.000              0.000              1.377
 Translational            0.889              2.981             35.068
 Rotational               0.592              1.987             13.661
 Vibrational              1.612              2.736              1.611
 Vibration     1          0.806              1.368              0.805
 Vibration     2          0.806              1.368              0.805

 Normal termination of Gaussian 16 at Fri Aug 22 17:01:19 2025.
