 Gaussian 16, Revision C.01,
 Gaussian 16:  ES64L-G16RevC.01  3-Jul-2019

 -----------------------------------------
 # sp b3lyp/6-311g** Force nosymm scf=(qc)
 -----------------------------------------

 -------------------
 Title Card Required
 -------------------
 Symbolic Z-matrix:
 Charge =  0 Multiplicity = 2

                          Input orientation:
 ---------------------------------------------------------------------
 Center     Atomic      Atomic             Coordinates (Angstroms)
 Number     Number       Type             X           Y           Z
 ---------------------------------------------------------------------
      1          1           0        0.000000    0.000000    0.000000
      2          1           0       -1.750000    0.000000    0.000000
      3          9           0        3.000000    0.000000    0.000000
 ---------------------------------------------------------------------

 SCF Done:  E(UB3LYP) =  -100.791666659     a.u. after   29 cycles

 Alpha  occ. eigenvalues --  -24.74667  -1.20682  -0.53791  -0.45168  -0.45168
 Alpha  occ. eigenvalues --   -0.34064
 Alpha virt. eigenvalues --   -0.11629   0.25180   0.30581   0.89590   0.91900
 Alpha virt. eigenvalues --    0.91900   1.03847   1.08084   1.23222   1.23222
 Alpha virt. eigenvalues --    1.36723   1.36723   1.63532   2.14818   2.40673

  Beta  occ. eigenvalues --  -24.71612  -1.11919  -0.42109  -0.42109  -0.33962
  Beta virt. eigenvalues --   -0.25244  -0.11292   0.25721   0.30817   0.93367
  Beta virt. eigenvalues --    0.93367   0.98255   1.07022   1.09147   1.23338
  Beta virt. eigenvalues --    1.23338   1.37103   1.37103   1.63956   2.15801

 Mulliken charges and spin densities:
               1          2
     1  H    0.008553  -0.654813
     2  H    0.018792   0.686758
     3  F   -0.027344   0.968055
 Sum of Mulliken charges =   0.00000   1.00000

 Dipole moment (field-independent basis, Debye):
    X=             -0.5760    Y=              0.0000    Z=             -0.0000  Tot=              0.5760
 Quadrupole moment (field-independent basis, Debye-Ang):
   XX=             -6.8105   YY=             -7.7406   ZZ=             -7.7406
   XY=              0.0000   XZ=             -0.0000   YZ=             -0.0000

  Exact polarizability:      59.873       0.000       2.013      -0.000      -0.000       2.013
 Approx polarizability:      64.447       0.000       1.963      -0.000       0.000       1.963

 ******    2 imaginary frequencies (negative Signs) ******

                      1                      2                      3
                      A                      A                      A
 Frequencies --  -1829.3753              -224.1328               824.7975
 Red. masses --      1.0079                 1.1084                 1.0127
 Frc consts  --      1.9873                 0.0328                 0.4059
 IR Inten    --     91.5152                26.1453                 0.0009

                      4
                      A
 Frequencies --    824.7975
 Red. masses --      1.0127
 Frc consts  --      0.4059
 IR Inten    --      0.0009

 - Thermochemistry -
 -------------------
 Temperature   298.150 Kelvin.  Pressure   1.00000 Atm.
 Atom     1 has atomic number  1 and mass   1.00783

 Molecular mass:    21.01405 amu.
 Principal axes and moments of inertia in atomic units:
                           1         2         3
     Eigenvalues --     0.00000 103.22650 103.22650
           X            1.00000  -0.00000   0.00000
           Y            0.00000   1.00000   0.00000
           Z            0.00000   0.00000   1.00000
 This molecule is a prolate symmetric top.
 Rotational symmetry number  1.
 Rotational temperature (Kelvin)      0.83907
 Rotational constant (GHZ):          17.483312
    2 imaginary frequencies ignored.
 Zero-point vibrational energy       9866.8 (Joules/Mol)
                                    2.35821 (Kcal/Mol)
 Vibrational temperatures:   1186.70  1186.70
          (Kelvin)

 Zero-point correction=                           0.003758 (Hartree/Particle)
 Thermal correction to Energy=                    0.006262
 Thermal correction to Enthalpy=                  0.007206
 Thermal correction to Gibbs Free Energy=        -0.016779
 Sum of electronic and zero-point Energies=           -100.787909
 Sum of electronic and thermal Energies=              -100.785405
 Sum of electronic and thermal Enthalpies=            -100.784461
 Sum of electronic and thermal Free Energies=         -100.808445

                     E (Thermal)             CV                S
                      KCal/Mol        Cal/Mol-Kelvin    Cal/Mol-Kelvin
 Total                    3.929              6.189             50.480
 Electronic               0.000              0.000              1.377
 Translational            0.889              2.981             35.068
 Rotational               0.592              1.987             13.658
 Vibrational              2.448              1.221              0.376

 Normal termination of Gaussian 16 at Fri Aug 22 19:31:06 2025.
