 Gaussian 16, Revision C.01,
 Gaussian 16:  ES64L-G16RevC.01  3-Jul-2019

 -----------------------------------------
 # sp b3lyp/6-311g** Force nosymm scf=(qc)
 -----------------------------------------

 -------------------
 Title Card Required
 -------------------
 Symbolic Z-matrix:
 Charge =  0 Multiplicity = 2

                          Input orientation:
 ---------------------------------------------------------------------
 Center     Atomic      Atomic             Coordinates (Angstroms)
 Number     Number       Type             X           Y           Z
 ---------------------------------------------------------------------
      1          1           0        0.000000    0.000000    0.000000
      2          1           0       -2.000000    0.000000    0.000000
      3          9           0        1.750000    0.000000    0.000000
 ---------------------------------------------------------------------

 SCF Done:  E(UB3LYP) =  -100.821585556     a.u. after   14 cycles

 Alpha  occ. eigenvalues --  -24.65888  -1.12139  -0.45094  -0.37745  -0.37745
 Alpha  occ. eigenvalues --   -0.37176
 Alpha virt. eigenvalues --   -0.13288   0.23414   0.29215   0.92689   0.94945
 Alpha virt. eigenvalues --    0.94945   1.05039   1.20558   1.20558   1.29849
 Alpha virt. eigenvalues --    1.33884   1.33884   1.70492   2.11032   2.28924

  Beta  occ. eigenvalues --  -24.64059  -1.07122  -0.39081  -0.35964  -0.35964
  Beta virt. eigenvalues --   -0.20141  -0.10470   0.25481   0.31718   0.94831
  Beta virt. eigenvalues --    0.94970   0.94970   1.08189   1.25464   1.25464
  Beta virt. eigenvalues --    1.36361   1.36361   1.41767   1.68355   2.12811

 Mulliken charges and spin densities:
               1          2
     1  H    0.218439  -0.476880
     2  H    0.049006   0.902626
     3  F   -0.267445   0.574254
 Sum of Mulliken charges =  -0.00000   1.00000

 Dipole moment (field-independent basis, Debye):
    X=             -2.7608    Y=             -0.0000    Z=             -0.0000  Tot=              2.7608
 Quadrupole moment (field-independent basis, Debye-Ang):
   XX=             -8.8692   YY=             -7.4507   ZZ=             -7.4507
   XY=             -0.0000   XZ=             -0.0000   YZ=              0.0000

  Exact polarizability:      41.578      -0.000       2.128      -0.000       0.000       2.128
 Approx polarizability:      53.347      -0.000       2.036      -0.000      -0.000       2.036

 ******    2 imaginary frequencies (negative Signs) ******

                      1                      2                      3
                      A                      A                      A
 Frequencies --  -1871.2754              -578.5772               773.3569
 Red. masses --      1.0324                 1.0803                 1.0196
 Frc consts  --      2.1299                 0.2131                 0.3593
 IR Inten    --    109.6056                14.5099                31.7624

                      4
                      A
 Frequencies --    773.3569
 Red. masses --      1.0196
 Frc consts  --      0.3593
 IR Inten    --     31.7624

 - Thermochemistry -
 -------------------
 Temperature   298.150 Kelvin.  Pressure   1.00000 Atm.
 Atom     1 has atomic number  1 and mass   1.00783

 Molecular mass:    21.01405 amu.
 Principal axes and moments of inertia in atomic units:
                           1         2         3
     Eigenvalues --     0.00000  56.41166  56.41166
           X            1.00000  -0.00000   0.00000
           Y            0.00000   1.00000   0.00000
           Z            0.00000   0.00000   1.00000
 This molecule is a prolate symmetric top.
 Rotational symmetry number  1.
 Rotational temperature (Kelvin)      1.53539
 Rotational constant (GHZ):          31.992342
    2 imaginary frequencies ignored.
 Zero-point vibrational energy       9251.4 (Joules/Mol)
                                    2.21114 (Kcal/Mol)
 Vibrational temperatures:   1112.69  1112.69
          (Kelvin)

 Zero-point correction=                           0.003524 (Hartree/Particle)
 Thermal correction to Energy=                    0.006057
 Thermal correction to Enthalpy=                  0.007001
 Thermal correction to Gibbs Free Energy=        -0.016453
 Sum of electronic and zero-point Energies=           -100.818062
 Sum of electronic and thermal Energies=              -100.815529
 Sum of electronic and thermal Enthalpies=            -100.814584
 Sum of electronic and thermal Free Energies=         -100.838038

                     E (Thermal)             CV                S
                      KCal/Mol        Cal/Mol-Kelvin    Cal/Mol-Kelvin
 Total                    3.801              6.359             49.363
 Electronic               0.000              0.000              1.377
 Translational            0.889              2.981             35.068
 Rotational               0.592              1.987             12.457
 Vibrational              2.320              1.391              0.460

 Normal termination of Gaussian 16 at Fri Aug 22 16:40:27 2025.
