 Gaussian 16, Revision C.01,
 Gaussian 16:  ES64L-G16RevC.01  3-Jul-2019

 -----------------------------------------
 # sp b3lyp/6-311g** Force nosymm scf=(qc)
 -----------------------------------------

 -------------------
 Title Card Required
 -------------------
 Symbolic Z-matrix:
 Charge =  0 Multiplicity = 2

                          Input orientation:
 ---------------------------------------------------------------------
 Center     Atomic      Atomic             Coordinates (Angstroms)
 Number     Number       Type             X           Y           Z
 ---------------------------------------------------------------------
      1          1           0        0.000000    0.000000    0.000000
      2          1           0       -3.900000    0.000000    0.000000
      3          9           0        1.050000    0.000000    0.000000
 ---------------------------------------------------------------------

 SCF Done:  E(UB3LYP) =  -100.958244531     a.u. after    6 cycles

 Alpha  occ. eigenvalues --  -24.64258  -1.14886  -0.50619  -0.38445  -0.38445
 Alpha  occ. eigenvalues --   -0.33448
 Alpha virt. eigenvalues --   -0.00943   0.23210   0.32647   0.93798   0.93798
 Alpha virt. eigenvalues --    0.99054   1.24000   1.24059   1.24059   1.28788
 Alpha virt. eigenvalues --    1.35514   1.35514   1.84291   2.13803   2.32875

  Beta  occ. eigenvalues --  -24.64257  -1.14883  -0.50617  -0.38444  -0.38444
  Beta virt. eigenvalues --   -0.05274  -0.00581   0.31115   0.39530   0.93799
  Beta virt. eigenvalues --    0.93799   0.99056   1.28766   1.35513   1.35513
  Beta virt. eigenvalues --    1.50148   1.50410   1.50410   1.84326   2.32380

 Mulliken charges and spin densities:
               1          2
     1  H    0.331336   0.000205
     2  H    0.000440   0.999518
     3  F   -0.331776   0.000277
 Sum of Mulliken charges =   0.00000   1.00000

 Dipole moment (field-independent basis, Debye):
    X=             -2.0953    Y=             -0.0000    Z=             -0.0000  Tot=              2.0953
 Quadrupole moment (field-independent basis, Debye-Ang):
   XX=             -8.4283   YY=             -7.0063   ZZ=             -7.0063
   XY=             -0.0000   XZ=             -0.0000   YZ=             -0.0000

  Exact polarizability:       6.991      -0.000       2.380       0.000       0.000       2.380
 Approx polarizability:       8.979       0.000       2.347      -0.000       0.000       2.347

 ******    1 imaginary frequencies (negative Signs) ******

                      1                      2                      3
                      A                      A                      A
 Frequencies --    -31.0557              1125.8655              1125.8655
 Red. masses --      1.0532                 1.0378                 1.0378
 Frc consts  --      0.0006                 0.7751                 0.7751
 IR Inten    --      0.0168               165.0507               165.0507

                      4
                      A
 Frequencies --   2453.3867
 Red. masses --      1.0583
 Frc consts  --      3.7532
 IR Inten    --     80.5225

 - Thermochemistry -
 -------------------
 Temperature   298.150 Kelvin.  Pressure   1.00000 Atm.
 Atom     1 has atomic number  1 and mass   1.00783

 Molecular mass:    21.01405 amu.
 Principal axes and moments of inertia in atomic units:
                           1         2         3
     Eigenvalues --     0.00000  85.93876  85.93876
           X            1.00000  -0.00000   0.00000
           Y            0.00000   1.00000   0.00000
           Z            0.00000   0.00000   1.00000
 This molecule is a prolate symmetric top.
 Rotational symmetry number  1.
 Rotational temperature (Kelvin)      1.00786
 Rotational constant (GHZ):          21.000316
    1 imaginary frequencies ignored.
 Zero-point vibrational energy      28142.9 (Joules/Mol)
                                    6.72630 (Kcal/Mol)
 Vibrational temperatures:   1619.87  1619.87  3529.88
          (Kelvin)

 Zero-point correction=                           0.010719 (Hartree/Particle)
 Thermal correction to Energy=                    0.013125
 Thermal correction to Enthalpy=                  0.014069
 Thermal correction to Gibbs Free Energy=        -0.009617
 Sum of electronic and zero-point Energies=           -100.947525
 Sum of electronic and thermal Energies=              -100.945120
 Sum of electronic and thermal Enthalpies=            -100.944176
 Sum of electronic and thermal Free Energies=         -100.967862

                     E (Thermal)             CV                S
                      KCal/Mol        Cal/Mol-Kelvin    Cal/Mol-Kelvin
 Total                    8.236              5.487             49.852
 Electronic               0.000              0.000              1.377
 Translational            0.889              2.981             35.068
 Rotational               0.592              1.987             13.294
 Vibrational              6.755              0.519              0.112

 Normal termination of Gaussian 16 at Fri Aug 22 16:04:10 2025.
