 Gaussian 16, Revision C.01,
 Gaussian 16:  ES64L-G16RevC.01  3-Jul-2019

 -----------------------------------------
 # sp b3lyp/6-311g** Force nosymm scf=(qc)
 -----------------------------------------

 -------------------
 Title Card Required
 -------------------
 Symbolic Z-matrix:
 Charge =  0 Multiplicity = 2

                          Input orientation:
 ---------------------------------------------------------------------
 Center     Atomic      Atomic             Coordinates (Angstroms)
 Number     Number       Type             X           Y           Z
 ---------------------------------------------------------------------
      1          1           0        0.000000    0.000000    0.000000
      2          1           0       -2.900000    0.000000    0.000000
      3          9           0        1.900000    0.000000    0.000000
 ---------------------------------------------------------------------

 SCF Done:  E(UB3LYP) =  -100.795903079     a.u. after   14 cycles

 Alpha  occ. eigenvalues --  -24.67375  -1.13655  -0.46288  -0.39022  -0.39022
 Alpha  occ. eigenvalues --   -0.34275
 Alpha virt. eigenvalues --   -0.14316   0.22880   0.30614   0.90767   0.94919
 Alpha virt. eigenvalues --    0.94919   1.06002   1.23281   1.23281   1.24265
 Alpha virt. eigenvalues --    1.34437   1.34437   1.65358   2.14104   2.28071

  Beta  occ. eigenvalues --  -24.65197  -1.07608  -0.38524  -0.36885  -0.36885
  Beta virt. eigenvalues --   -0.20078  -0.08519   0.23383   0.36383   0.91957
  Beta virt. eigenvalues --    0.95257   0.95257   1.08332   1.22789   1.22789
  Beta virt. eigenvalues --    1.43503   1.43758   1.43758   1.59855   2.12952

 Mulliken charges and spin densities:
               1          2
     1  H    0.215407  -0.673615
     2  H    0.007857   0.988912
     3  F   -0.223264   0.684703
 Sum of Mulliken charges =   0.00000   1.00000

 Dipole moment (field-independent basis, Debye):
    X=             -2.1919    Y=              0.0000    Z=              0.0000  Tot=              2.1919
 Quadrupole moment (field-independent basis, Debye-Ang):
   XX=             -9.8256   YY=             -7.4791   ZZ=             -7.4791
   XY=              0.0000   XZ=              0.0000   YZ=              0.0000

  Exact polarizability:      29.426      -0.000       2.077      -0.000       0.000       2.077
 Approx polarizability:      40.021      -0.000       1.966      -0.000      -0.000       1.966

 ******    2 imaginary frequencies (negative Signs) ******

                      1                      2                      3
                      A                      A                      A
 Frequencies --  -1323.9536              -244.1633               560.0600
 Red. masses --      1.0542                 1.0573                 1.0238
 Frc consts  --      1.0887                 0.0371                 0.1892
 IR Inten    --    117.2873                 3.4686                41.0775

                      4
                      A
 Frequencies --    560.0600
 Red. masses --      1.0238
 Frc consts  --      0.1892
 IR Inten    --     41.0775

 - Thermochemistry -
 -------------------
 Temperature   298.150 Kelvin.  Pressure   1.00000 Atm.
 Atom     1 has atomic number  1 and mass   1.00783

 Molecular mass:    21.01405 amu.
 Principal axes and moments of inertia in atomic units:
                           1         2         3
     Eigenvalues --     0.00000  88.16525  88.16525
           X            1.00000  -0.00000   0.00000
           Y            0.00000   1.00000   0.00000
           Z            0.00000   0.00000   1.00000
 This molecule is a prolate symmetric top.
 Rotational symmetry number  1.
 Rotational temperature (Kelvin)      0.98240
 Rotational constant (GHZ):          20.469983
    2 imaginary frequencies ignored.
 Zero-point vibrational energy       6699.8 (Joules/Mol)
                                    1.60129 (Kcal/Mol)
 Warning -- explicit consideration of   2 degrees of freedom as
           vibrations may cause significant error
 Vibrational temperatures:    805.80   805.80
          (Kelvin)

 Zero-point correction=                           0.002552 (Hartree/Particle)
 Thermal correction to Energy=                    0.005279
 Thermal correction to Enthalpy=                  0.006223
 Thermal correction to Gibbs Free Energy=        -0.017931
 Sum of electronic and zero-point Energies=           -100.793351
 Sum of electronic and thermal Energies=              -100.790624
 Sum of electronic and thermal Enthalpies=            -100.789680
 Sum of electronic and thermal Free Energies=         -100.813835

                     E (Thermal)             CV                S
                      KCal/Mol        Cal/Mol-Kelvin    Cal/Mol-Kelvin
 Total                    3.313              7.203             50.838
 Electronic               0.000              0.000              1.377
 Translational            0.889              2.981             35.068
 Rotational               0.592              1.987             13.345
 Vibrational              1.831              2.235              1.047
 Vibration     1          0.916              1.118              0.524
 Vibration     2          0.916              1.118              0.524

 Normal termination of Gaussian 16 at Fri Aug 22 16:50:48 2025.
