 Gaussian 16, Revision C.01,
 Gaussian 16:  ES64L-G16RevC.01  3-Jul-2019

 -----------------------------------------
 # sp b3lyp/6-311g** Force nosymm scf=(qc)
 -----------------------------------------

 -------------------
 Title Card Required
 -------------------
 Symbolic Z-matrix:
 Charge =  0 Multiplicity = 2

                          Input orientation:
 ---------------------------------------------------------------------
 Center     Atomic      Atomic             Coordinates (Angstroms)
 Number     Number       Type             X           Y           Z
 ---------------------------------------------------------------------
      1          1           0        0.000000    0.000000    0.000000
      2          1           0       -3.700000    0.000000    0.000000
      3          9           0        1.950000    0.000000    0.000000
 ---------------------------------------------------------------------

 SCF Done:  E(UB3LYP) =  -100.790721913     a.u. after   19 cycles

 Alpha  occ. eigenvalues --  -24.67847  -1.14150  -0.46791  -0.39435  -0.39435
 Alpha  occ. eigenvalues --   -0.33366
 Alpha virt. eigenvalues --   -0.14098   0.22180   0.31268   0.89475   0.94867
 Alpha virt. eigenvalues --    0.94867   1.05623   1.24143   1.24143   1.24169
 Alpha virt. eigenvalues --    1.34959   1.34959   1.62878   2.13730   2.28723

  Beta  occ. eigenvalues --  -24.65564  -1.07790  -0.38271  -0.37190  -0.37190
  Beta virt. eigenvalues --   -0.20407  -0.06664   0.22279   0.37993   0.90539
  Beta virt. eigenvalues --    0.95353   0.95353   1.08066   1.22245   1.22245
  Beta virt. eigenvalues --    1.45855   1.46215   1.46215   1.56309   2.11733

 Mulliken charges and spin densities:
               1          2
     1  H    0.207195  -0.716243
     2  H    0.001026   0.998562
     3  F   -0.208221   0.717681
 Sum of Mulliken charges =   0.00000   1.00000

 Dipole moment (field-independent basis, Debye):
    X=             -2.0173    Y=              0.0000    Z=              0.0000  Tot=              2.0173
 Quadrupole moment (field-independent basis, Debye-Ang):
   XX=            -10.1114   YY=             -7.4761   ZZ=             -7.4761
   XY=              0.0000   XZ=             -0.0000   YZ=             -0.0000

  Exact polarizability:      24.735      -0.000       2.069       0.000       0.000       2.069
 Approx polarizability:      36.623      -0.000       1.955      -0.000       0.000       1.955

 ******    2 imaginary frequencies (negative Signs) ******

                      1                      2                      3
                      A                      A                      A
 Frequencies --  -1213.9923               -94.3129               518.6097
 Red. masses --      1.0576                 1.0539                 1.0272
 Frc consts  --      0.9184                 0.0055                 0.1628
 IR Inten    --    126.4134                 0.1188                40.4901

                      4
                      A
 Frequencies --    518.6097
 Red. masses --      1.0272
 Frc consts  --      0.1628
 IR Inten    --     40.4901

 - Thermochemistry -
 -------------------
 Temperature   298.150 Kelvin.  Pressure   1.00000 Atm.
 Atom     1 has atomic number  1 and mass   1.00783

 Molecular mass:    21.01405 amu.
 Principal axes and moments of inertia in atomic units:
                           1         2         3
     Eigenvalues --     0.00000 118.60480 118.60480
           X            1.00000  -0.00000   0.00000
           Y            0.00000   1.00000   0.00000
           Z            0.00000   0.00000   1.00000
 This molecule is a prolate symmetric top.
 Rotational symmetry number  1.
 Rotational temperature (Kelvin)      0.73027
 Rotational constant (GHZ):          15.216426
    2 imaginary frequencies ignored.
 Zero-point vibrational energy       6203.9 (Joules/Mol)
                                    1.48278 (Kcal/Mol)
 Warning -- explicit consideration of   2 degrees of freedom as
           vibrations may cause significant error
 Vibrational temperatures:    746.16   746.16
          (Kelvin)

 Zero-point correction=                           0.002363 (Hartree/Particle)
 Thermal correction to Energy=                    0.005145
 Thermal correction to Enthalpy=                  0.006089
 Thermal correction to Gibbs Free Energy=        -0.018431
 Sum of electronic and zero-point Energies=           -100.788359
 Sum of electronic and thermal Energies=              -100.785577
 Sum of electronic and thermal Enthalpies=            -100.784633
 Sum of electronic and thermal Free Energies=         -100.809153

                     E (Thermal)             CV                S
                      KCal/Mol        Cal/Mol-Kelvin    Cal/Mol-Kelvin
 Total                    3.228              7.386             51.606
 Electronic               0.000              0.000              1.377
 Translational            0.889              2.981             35.068
 Rotational               0.592              1.987             13.934
 Vibrational              1.747              2.418              1.226
 Vibration     1          0.874              1.209              0.613
 Vibration     2          0.874              1.209              0.613

 Normal termination of Gaussian 16 at Fri Aug 22 16:54:44 2025.
