 Gaussian 16, Revision C.01,
 Gaussian 16:  ES64L-G16RevC.01  3-Jul-2019

 -----------------------------------------
 # sp b3lyp/6-311g** Force nosymm scf=(qc)
 -----------------------------------------

 -------------------
 Title Card Required
 -------------------
 Symbolic Z-matrix:
 Charge =  0 Multiplicity = 2

                          Input orientation:
 ---------------------------------------------------------------------
 Center     Atomic      Atomic             Coordinates (Angstroms)
 Number     Number       Type             X           Y           Z
 ---------------------------------------------------------------------
      1          1           0        0.000000    0.000000    0.000000
      2          1           0       -1.600000    0.000000    0.000000
      3          9           0        3.900000    0.000000    0.000000
 ---------------------------------------------------------------------

 SCF Done:  E(UB3LYP) =  -100.805948561     a.u. after  107 cycles

 Alpha  occ. eigenvalues --  -24.76215  -1.22118  -0.55321  -0.46495  -0.46478
 Alpha  occ. eigenvalues --   -0.33289
 Alpha virt. eigenvalues --   -0.10274   0.25403   0.30605   0.86044   0.90921
 Alpha virt. eigenvalues --    0.91321   1.00886   1.06680   1.22385   1.22386
 Alpha virt. eigenvalues --    1.39487   1.39489   1.74457   2.19350   2.43700

  Beta  occ. eigenvalues --  -24.73061  -1.13045  -0.43334  -0.43315  -0.33284
  Beta virt. eigenvalues --   -0.25972  -0.10294   0.25395   0.30624   0.92422
  Beta virt. eigenvalues --    0.92797   0.95511   1.05023   1.06681   1.22381
  Beta virt. eigenvalues --    1.22383   1.39482   1.39483   1.74470   2.19420

 Mulliken charges and spin densities:
               1          2
     1  H    0.000968  -0.452679
     2  H   -0.001824   0.452643
     3  F    0.000857   1.000036
 Sum of Mulliken charges =  -0.00000   1.00000

 Dipole moment (field-independent basis, Debye):
    X=              0.0236    Y=             -0.0000    Z=              0.0000  Tot=              0.0236
 Quadrupole moment (field-independent basis, Debye-Ang):
   XX=             -6.4637   YY=             -7.0608   ZZ=             -7.6126
   XY=             -0.0001   XZ=              0.0000   YZ=             -0.3328

  Exact polarizability:      23.431      -0.000       2.407       0.000      -0.178       2.111
 Approx polarizability:      41.057      -0.000       2.482       0.000      -0.224       2.110

 ******    2 imaginary frequencies (negative Signs) ******

                      1                      2                      3
                      A                      A                      A
 Frequencies --  -2062.2786               -52.5907              1058.2528
 Red. masses --      1.0078                 1.1085                 1.0107
 Frc consts  --      2.5254                 0.0018                 0.6669
 IR Inten    --      0.0134                 0.0423                 0.0017

                      4
                      A
 Frequencies --   1059.2645
 Red. masses --      1.0107
 Frc consts  --      0.6681
 IR Inten    --      0.0006

 - Thermochemistry -
 -------------------
 Temperature   298.150 Kelvin.  Pressure   1.00000 Atm.
 Atom     1 has atomic number  1 and mass   1.00783

 Molecular mass:    21.01405 amu.
 Principal axes and moments of inertia in atomic units:
                           1         2         3
     Eigenvalues --     0.00000 148.35938 148.35938
           X            1.00000  -0.00000   0.00000
           Y            0.00000   1.00000   0.00000
           Z            0.00000   0.00000   1.00000
 This molecule is a prolate symmetric top.
 Rotational symmetry number  1.
 Rotational temperature (Kelvin)      0.58381
 Rotational constant (GHZ):          12.164658
    2 imaginary frequencies ignored.
 Zero-point vibrational energy      12665.6 (Joules/Mol)
                                    3.02714 (Kcal/Mol)
 Vibrational temperatures:   1522.59  1524.05
          (Kelvin)

 Zero-point correction=                           0.004824 (Hartree/Particle)
 Thermal correction to Energy=                    0.007243
 Thermal correction to Enthalpy=                  0.008187
 Thermal correction to Gibbs Free Energy=        -0.016031
 Sum of electronic and zero-point Energies=           -100.801125
 Sum of electronic and thermal Energies=              -100.798705
 Sum of electronic and thermal Enthalpies=            -100.797761
 Sum of electronic and thermal Free Energies=         -100.821980

                     E (Thermal)             CV                S
                      KCal/Mol        Cal/Mol-Kelvin    Cal/Mol-Kelvin
 Total                    4.545              5.602             50.972
 Electronic               0.000              0.000              1.377
 Translational            0.889              2.981             35.068
 Rotational               0.592              1.987             14.379
 Vibrational              3.064              0.634              0.147

 Normal termination of Gaussian 16 at Sat Aug 23 01:19:31 2025.
