 Gaussian 16, Revision C.01,
 Gaussian 16:  ES64L-G16RevC.01  3-Jul-2019

 -----------------------------------------
 # sp b3lyp/6-311g** Force nosymm scf=(qc)
 -----------------------------------------

 -------------------
 Title Card Required
 -------------------
 Symbolic Z-matrix:
 Charge =  0 Multiplicity = 2

                          Input orientation:
 ---------------------------------------------------------------------
 Center     Atomic      Atomic             Coordinates (Angstroms)
 Number     Number       Type             X           Y           Z
 ---------------------------------------------------------------------
      1          1           0        0.000000    0.000000    0.000000
      2          1           0       -1.150000    0.000000    0.000000
      3          9           0        1.600000    0.000000    0.000000
 ---------------------------------------------------------------------

 SCF Done:  E(UB3LYP) =  -100.900742355     a.u. after   10 cycles

 Alpha  occ. eigenvalues --  -24.68712  -1.15498  -0.50867  -0.40477  -0.40477
 Alpha  occ. eigenvalues --   -0.40166
 Alpha virt. eigenvalues --   -0.01373   0.20438   0.32383   0.91291   0.91291
 Alpha virt. eigenvalues --    0.97626   1.08795   1.09110   1.09110   1.54513
 Alpha virt. eigenvalues --    1.54513   1.55932   2.12026   2.26736   2.52173

  Beta  occ. eigenvalues --  -24.66427  -1.09213  -0.41990  -0.38251  -0.38251
  Beta virt. eigenvalues --   -0.23561   0.01293   0.22239   0.33619   0.92088
  Beta virt. eigenvalues --    0.92088   1.03743   1.11558   1.12292   1.12292
  Beta virt. eigenvalues --    1.56171   1.56171   1.59911   2.14935   2.30515

 Mulliken charges and spin densities:
               1          2
     1  H    0.144408  -0.146889
     2  H    0.062405   0.442595
     3  F   -0.206812   0.704295
 Sum of Mulliken charges =  -0.00000   1.00000

 Dipole moment (field-independent basis, Debye):
    X=             -1.9445    Y=             -0.0000    Z=              0.0000  Tot=              1.9445
 Quadrupole moment (field-independent basis, Debye-Ang):
   XX=             -7.4810   YY=             -7.1715   ZZ=             -7.1715
   XY=             -0.0000   XZ=              0.0000   YZ=              0.0000

  Exact polarizability:      34.274      -0.000       2.321       0.000       0.000       2.321
 Approx polarizability:      52.058       0.000       2.296      -0.000      -0.000       2.296

 ******    1 imaginary frequencies (negative Signs) ******

                      1                      2                      3
                      A                      A                      A
 Frequencies --  -2165.3888               436.9547              1289.3239
 Red. masses --      1.0252                 1.0882                 1.0144
 Frc consts  --      2.8322                 0.1224                 0.9936
 IR Inten    --   1135.6903                29.2238                 4.5647

                      4
                      A
 Frequencies --   1289.3239
 Red. masses --      1.0144
 Frc consts  --      0.9936
 IR Inten    --      4.5647

 - Thermochemistry -
 -------------------
 Temperature   298.150 Kelvin.  Pressure   1.00000 Atm.
 Atom     1 has atomic number  1 and mass   1.00783

 Molecular mass:    21.01405 amu.
 Principal axes and moments of inertia in atomic units:
                           1         2         3
     Eigenvalues --     0.00000  33.16481  33.16481
           X            1.00000  -0.00000   0.00000
           Y            0.00000   1.00000   0.00000
           Z            0.00000   0.00000   1.00000
 This molecule is a prolate symmetric top.
 Rotational symmetry number  1.
 Rotational temperature (Kelvin)      2.61162
 Rotational constant (GHZ):          54.417355
    1 imaginary frequencies ignored.
 Zero-point vibrational energy      18037.3 (Joules/Mol)
                                    4.31102 (Kcal/Mol)
 Warning -- explicit consideration of   1 degrees of freedom as
           vibrations may cause significant error
 Vibrational temperatures:    628.68  1855.05  1855.05
          (Kelvin)

 Zero-point correction=                           0.006870 (Hartree/Particle)
 Thermal correction to Energy=                    0.009529
 Thermal correction to Enthalpy=                  0.010473
 Thermal correction to Gibbs Free Energy=        -0.012685
 Sum of electronic and zero-point Energies=           -100.893872
 Sum of electronic and thermal Energies=              -100.891213
 Sum of electronic and thermal Enthalpies=            -100.890269
 Sum of electronic and thermal Free Energies=         -100.913427

                     E (Thermal)             CV                S
                      KCal/Mol        Cal/Mol-Kelvin    Cal/Mol-Kelvin
 Total                    5.980              6.664             48.741
 Electronic               0.000              0.000              1.377
 Translational            0.889              2.981             35.068
 Rotational               0.592              1.987             11.402
 Vibrational              4.498              1.696              0.893
 Vibration     1          0.797              1.390              0.836

 Normal termination of Gaussian 16 at Fri Aug 22 16:30:22 2025.
