 Gaussian 16, Revision C.01,
 Gaussian 16:  ES64L-G16RevC.01  3-Jul-2019

 -----------------------------------------
 # sp b3lyp/6-311g** Force nosymm scf=(qc)
 -----------------------------------------

 -------------------
 Title Card Required
 -------------------
 Symbolic Z-matrix:
 Charge =  0 Multiplicity = 2

                          Input orientation:
 ---------------------------------------------------------------------
 Center     Atomic      Atomic             Coordinates (Angstroms)
 Number     Number       Type             X           Y           Z
 ---------------------------------------------------------------------
      1          1           0        0.000000    0.000000    0.000000
      2          1           0       -1.350000    0.000000    0.000000
      3          9           0        2.700000    0.000000    0.000000
 ---------------------------------------------------------------------

 SCF Done:  E(UB3LYP) =  -100.845922553     a.u. after  124 cycles

 Alpha  occ. eigenvalues --  -24.75748  -1.21669  -0.54834  -0.46161  -0.46081
 Alpha  occ. eigenvalues --   -0.35451
 Alpha virt. eigenvalues --   -0.07498   0.23732   0.32356   0.87798   0.91171
 Alpha virt. eigenvalues --    0.92515   1.06183   1.13299   1.15957   1.15961
 Alpha virt. eigenvalues --    1.46544   1.46548   1.94046   2.26746   2.52132

  Beta  occ. eigenvalues --  -24.72650  -1.12778  -0.43078  -0.42978  -0.35257
  Beta virt. eigenvalues --   -0.26022  -0.07195   0.23945   0.32696   0.92642
  Beta virt. eigenvalues --    0.93287   0.97316   1.09602   1.14277   1.16146
  Beta virt. eigenvalues --    1.16149   1.46714   1.46718   1.94288   2.27034

 Mulliken charges and spin densities:
               1          2
     1  H   -0.000406  -0.043133
     2  H    0.011212   0.062466
     3  F   -0.010806   0.980667
 Sum of Mulliken charges =  -0.00000   1.00000

 Dipole moment (field-independent basis, Debye):
    X=             -0.2416    Y=              0.0022    Z=              0.0016  Tot=              0.2416
 Quadrupole moment (field-independent basis, Debye-Ang):
   XX=             -6.1556   YY=             -7.4030   ZZ=             -7.5162
   XY=              0.3378   XZ=              0.2365   YZ=              0.1554

  Exact polarizability:     140.022      -0.308       2.201       1.178       0.062       2.165
 Approx polarizability:      51.892       0.071       2.231       0.050       0.104       2.155

 ******    2 imaginary frequencies (negative Signs) ******

                      1                      2                      3
                      A                      A                      A
 Frequencies --  -1481.9758              -240.7662              1311.6542
 Red. masses --      1.0099                 1.1060                 1.0117
 Frc consts  --      1.3068                 0.0378                 1.0255
 IR Inten    --   4226.6421               102.2438                37.8875

                      4
                      A
 Frequencies --   1335.9756
 Red. masses --      1.0117
 Frc consts  --      1.0639
 IR Inten    --      2.1965

 - Thermochemistry -
 -------------------
 Temperature   298.150 Kelvin.  Pressure   1.00000 Atm.
 Atom     1 has atomic number  1 and mass   1.00783

 Molecular mass:    21.01405 amu.
 Principal axes and moments of inertia in atomic units:
                           1         2         3
     Eigenvalues --     0.00000  77.40511  77.40511
           X            1.00000  -0.00000   0.00000
           Y            0.00000   1.00000   0.00000
           Z            0.00000   0.00000   1.00000
 This molecule is a prolate symmetric top.
 Rotational symmetry number  1.
 Rotational temperature (Kelvin)      1.11897
 Rotational constant (GHZ):          23.315531
    2 imaginary frequencies ignored.
 Zero-point vibrational energy      15836.3 (Joules/Mol)
                                    3.78498 (Kcal/Mol)
 Vibrational temperatures:   1887.18  1922.17
          (Kelvin)

 Zero-point correction=                           0.006032 (Hartree/Particle)
 Thermal correction to Energy=                    0.008413
 Thermal correction to Enthalpy=                  0.009357
 Thermal correction to Gibbs Free Energy=        -0.014201
 Sum of electronic and zero-point Energies=           -100.839891
 Sum of electronic and thermal Energies=              -100.837510
 Sum of electronic and thermal Enthalpies=            -100.836566
 Sum of electronic and thermal Free Energies=         -100.860123

                     E (Thermal)             CV                S
                      KCal/Mol        Cal/Mol-Kelvin    Cal/Mol-Kelvin
 Total                    5.279              5.242             49.581
 Electronic               0.000              0.000              1.377
 Translational            0.889              2.981             35.068
 Rotational               0.592              1.987             13.086
 Vibrational              3.798              0.274              0.050

 Normal termination of Gaussian 16 at Fri Aug 22 18:24:09 2025.
