 Gaussian 16, Revision C.01,
 Gaussian 16:  ES64L-G16RevC.01  3-Jul-2019

 -----------------------------------------
 # sp b3lyp/6-311g** Force nosymm scf=(qc)
 -----------------------------------------

 -------------------
 Title Card Required
 -------------------
 Symbolic Z-matrix:
 Charge =  0 Multiplicity = 2

                          Input orientation:
 ---------------------------------------------------------------------
 Center     Atomic      Atomic             Coordinates (Angstroms)
 Number     Number       Type             X           Y           Z
 ---------------------------------------------------------------------
      1          1           0        0.000000    0.000000    0.000000
      2          1           0       -2.900000    0.000000    0.000000
      3          9           0        3.150000    0.000000    0.000000
 ---------------------------------------------------------------------

 SCF Done:  E(UB3LYP) =  -100.761403563     a.u. after   25 cycles

 Alpha  occ. eigenvalues --  -24.74606  -1.20626  -0.53725  -0.45110  -0.45110
 Alpha  occ. eigenvalues --   -0.32660
 Alpha virt. eigenvalues --   -0.08922   0.24937   0.34996   0.88905   0.91961
 Alpha virt. eigenvalues --    0.91961   1.03122   1.24891   1.24891   1.25876
 Alpha virt. eigenvalues --    1.42565   1.42565   1.42892   2.15679   2.38925

  Beta  occ. eigenvalues --  -24.71543  -1.11841  -0.42043  -0.42043  -0.33438
  Beta virt. eigenvalues --   -0.25072  -0.07861   0.24831   0.36374   0.93434
  Beta virt. eigenvalues --    0.93434   0.97799   1.07013   1.23975   1.23975
  Beta virt. eigenvalues --    1.24909   1.44258   1.44258   1.44378   2.16277

 Mulliken charges and spin densities:
               1          2
     1  H    0.025015  -0.960912
     2  H    0.001633   0.990322
     3  F   -0.026647   0.970590
 Sum of Mulliken charges =  -0.00000   1.00000

 Dipole moment (field-independent basis, Debye):
    X=             -0.4538    Y=             -0.0000    Z=             -0.0000  Tot=              0.4538
 Quadrupole moment (field-independent basis, Debye-Ang):
   XX=             -7.8709   YY=             -7.6318   ZZ=             -7.6318
   XY=             -0.0000   XZ=             -0.0000   YZ=             -0.0000

  Exact polarizability:      34.691      -0.000       2.023      -0.000      -0.000       2.023
 Approx polarizability:      31.075      -0.000       1.926      -0.000       0.000       1.926

 ******    2 imaginary frequencies (negative Signs) ******

                      1                      2                      3
                      A                      A                      A
 Frequencies --   -441.8011              -180.7976               161.2991
 Red. masses --      1.0157                 1.0991                 1.0170
 Frc consts  --      0.1168                 0.0212                 0.0156
 IR Inten    --     22.1742                 8.1155                 0.5386

                      4
                      A
 Frequencies --    161.2991
 Red. masses --      1.0170
 Frc consts  --      0.0156
 IR Inten    --      0.5386

 - Thermochemistry -
 -------------------
 Temperature   298.150 Kelvin.  Pressure   1.00000 Atm.
 Atom     1 has atomic number  1 and mass   1.00783

 Molecular mass:    21.01405 amu.
 Principal axes and moments of inertia in atomic units:
                           1         2         3
     Eigenvalues --     0.00000 152.83442 152.83442
           X            1.00000  -0.00000   0.00000
           Y            0.00000   1.00000   0.00000
           Z            0.00000   0.00000   1.00000
 This molecule is a prolate symmetric top.
 Rotational symmetry number  1.
 Rotational temperature (Kelvin)      0.56672
 Rotational constant (GHZ):          11.808473
    2 imaginary frequencies ignored.
 Zero-point vibrational energy       1929.6 (Joules/Mol)
                                    0.46118 (Kcal/Mol)
 Warning -- explicit consideration of   2 degrees of freedom as
           vibrations may cause significant error
 Vibrational temperatures:    232.07   232.07
          (Kelvin)

 Zero-point correction=                           0.000735 (Hartree/Particle)
 Thermal correction to Energy=                    0.004343
 Thermal correction to Enthalpy=                  0.005287
 Thermal correction to Gibbs Free Energy=        -0.021297
 Sum of electronic and zero-point Energies=           -100.760669
 Sum of electronic and thermal Energies=              -100.757060
 Sum of electronic and thermal Enthalpies=            -100.756116
 Sum of electronic and thermal Free Energies=         -100.782701

                     E (Thermal)             CV                S
                      KCal/Mol        Cal/Mol-Kelvin    Cal/Mol-Kelvin
 Total                    2.725              8.748             55.952
 Electronic               0.000              0.000              1.377
 Translational            0.889              2.981             35.068
 Rotational               0.592              1.987             14.438
 Vibrational              1.244              3.780              5.069
 Vibration     1          0.622              1.890              2.535
 Vibration     2          0.622              1.890              2.535

 Normal termination of Gaussian 16 at Fri Aug 22 20:11:05 2025.
