 Gaussian 16, Revision C.01,
 Gaussian 16:  ES64L-G16RevC.01  3-Jul-2019

 -----------------------------------------
 # sp b3lyp/6-311g** Force nosymm scf=(qc)
 -----------------------------------------

 -------------------
 Title Card Required
 -------------------
 Symbolic Z-matrix:
 Charge =  0 Multiplicity = 2

                          Input orientation:
 ---------------------------------------------------------------------
 Center     Atomic      Atomic             Coordinates (Angstroms)
 Number     Number       Type             X           Y           Z
 ---------------------------------------------------------------------
      1          1           0        0.000000    0.000000    0.000000
      2          1           0       -1.650000    0.000000    0.000000
      3          9           0        0.550000    0.000000    0.000000
 ---------------------------------------------------------------------

 SCF Done:  E(UB3LYP) =  -100.514870490     a.u. after    6 cycles

 Alpha  occ. eigenvalues --  -24.62791  -1.38676  -0.62689  -0.43746  -0.43746
 Alpha  occ. eigenvalues --   -0.35432
 Alpha virt. eigenvalues --    0.13377   0.22631   0.59044   0.90946   0.90946
 Alpha virt. eigenvalues --    0.91368   1.20587   1.20587   1.36269   1.55520
 Alpha virt. eigenvalues --    1.55520   1.63835   2.01210   2.20244   3.71617

  Beta  occ. eigenvalues --  -24.62728  -1.38473  -0.62426  -0.43708  -0.43708
  Beta virt. eigenvalues --   -0.10717   0.14571   0.32151   0.63064   0.91014
  Beta virt. eigenvalues --    0.91014   0.91496   1.38190   1.38190   1.41710
  Beta virt. eigenvalues --    1.57254   1.57254   1.74132   2.01850   2.45552

 Mulliken charges and spin densities:
               1          2
     1  H    0.172525   0.015633
     2  H    0.010996   0.981616
     3  F   -0.183522   0.002751
 Sum of Mulliken charges =   0.00000   1.00000

 Dipole moment (field-independent basis, Debye):
    X=             -1.3943    Y=              0.0000    Z=             -0.0000  Tot=              1.3943
 Quadrupole moment (field-independent basis, Debye-Ang):
   XX=             -6.6625   YY=             -6.4365   ZZ=             -6.4365
   XY=              0.0000   XZ=             -0.0000   YZ=             -0.0000

  Exact polarizability:       5.786      -0.000       2.487       0.000       0.000       2.487
 Approx polarizability:       5.502       0.000       2.493       0.000       0.000       2.493

 ******    2 imaginary frequencies (negative Signs) ******

                      1                      2                      3
                      A                      A                      A
 Frequencies --  -7362.5530             -7362.5530               728.5570
 Red. masses --      1.0346                 1.0346                 1.0533
 Frc consts  --     33.0426                33.0426                 0.3294
 IR Inten    --    198.8617               198.8617                 2.3284

                      4
                      A
 Frequencies --  15777.6714
 Red. masses --      1.0582
 Frc consts  --    155.2059
 IR Inten    --     98.4484

 - Thermochemistry -
 -------------------
 Temperature   298.150 Kelvin.  Pressure   1.00000 Atm.
 Atom     1 has atomic number  1 and mass   1.00783

 Molecular mass:    21.01405 amu.
 Principal axes and moments of inertia in atomic units:
                           1         2         3
     Eigenvalues --     0.00000  17.20256  17.20256
           X            1.00000  -0.00000   0.00000
           Y            0.00000   1.00000   0.00000
           Z            0.00000   0.00000   1.00000
 This molecule is a prolate symmetric top.
 Rotational symmetry number  1.
 Rotational temperature (Kelvin)      5.03494
 Rotational constant (GHZ):         104.911190
    2 imaginary frequencies ignored.
 Zero-point vibrational energy      98729.2 (Joules/Mol)
                                   23.59684 (Kcal/Mol)
 Vibrational temperatures:   1048.23 22700.55
          (Kelvin)

 Zero-point correction=                           0.037604 (Hartree/Particle)
 Thermal correction to Energy=                    0.040066
 Thermal correction to Enthalpy=                  0.041010
 Thermal correction to Gibbs Free Energy=         0.018766
 Sum of electronic and zero-point Energies=           -100.477267
 Sum of electronic and thermal Energies=              -100.474804
 Sum of electronic and thermal Enthalpies=            -100.473860
 Sum of electronic and thermal Free Energies=         -100.496104

                     E (Thermal)             CV                S
                      KCal/Mol        Cal/Mol-Kelvin    Cal/Mol-Kelvin
 Total                   25.142              5.744             46.817
 Electronic               0.000              0.000              1.377
 Translational            0.889              2.981             35.068
 Rotational               0.592              1.987             10.097
 Vibrational             23.661              0.776              0.274

 Normal termination of Gaussian 16 at Fri Aug 22 15:39:06 2025.
