 Gaussian 16, Revision C.01,
 Gaussian 16:  ES64L-G16RevC.01  3-Jul-2019

 -----------------------------------------
 # sp b3lyp/6-311g** Force nosymm scf=(qc)
 -----------------------------------------

 -------------------
 Title Card Required
 -------------------
 Symbolic Z-matrix:
 Charge =  0 Multiplicity = 2

                          Input orientation:
 ---------------------------------------------------------------------
 Center     Atomic      Atomic             Coordinates (Angstroms)
 Number     Number       Type             X           Y           Z
 ---------------------------------------------------------------------
      1          1           0        0.000000    0.000000    0.000000
      2          1           0       -2.300000    0.000000    0.000000
      3          9           0        0.650000    0.000000    0.000000
 ---------------------------------------------------------------------

 SCF Done:  E(UB3LYP) =  -100.800761690     a.u. after    6 cycles

 Alpha  occ. eigenvalues --  -24.62877  -1.31254  -0.59804  -0.42295  -0.42295
 Alpha  occ. eigenvalues --   -0.34693
 Alpha virt. eigenvalues --    0.09158   0.25290   0.54406   0.92942   0.92942
 Alpha virt. eigenvalues --    0.94796   1.16269   1.22856   1.22856   1.46965
 Alpha virt. eigenvalues --    1.46965   1.49587   1.95032   2.16052   3.09745

  Beta  occ. eigenvalues --  -24.62864  -1.31214  -0.59754  -0.42286  -0.42286
  Beta virt. eigenvalues --   -0.08896   0.10623   0.37569   0.54123   0.92935
  Beta virt. eigenvalues --    0.92935   0.94970   1.27755   1.44383   1.44383
  Beta virt. eigenvalues --    1.46989   1.46989   1.60889   1.96254   2.43927

 Mulliken charges and spin densities:
               1          2
     1  H    0.246340   0.005378
     2  H    0.006228   0.990989
     3  F   -0.252568   0.003633
 Sum of Mulliken charges =   0.00000   1.00000

 Dipole moment (field-independent basis, Debye):
    X=             -1.5739    Y=             -0.0000    Z=              0.0000  Tot=              1.5739
 Quadrupole moment (field-independent basis, Debye-Ang):
   XX=             -6.9266   YY=             -6.5946   ZZ=             -6.5946
   XY=             -0.0000   XZ=              0.0000   YZ=              0.0000

  Exact polarizability:       5.527      -0.000       2.478       0.000      -0.000       2.478
 Approx polarizability:       5.524       0.000       2.465      -0.000      -0.000       2.465

 ******    2 imaginary frequencies (negative Signs) ******

                      1                      2                      3
                      A                      A                      A
 Frequencies --  -4547.5951             -4547.5951               192.1610
 Red. masses --      1.0371                 1.0371                 1.0533
 Frc consts  --     12.6370                12.6370                 0.0229
 IR Inten    --    204.2957               204.2957                 0.1925

                      4
                      A
 Frequencies --  10872.7856
 Red. masses --      1.0583
 Frc consts  --     73.7127
 IR Inten    --    121.1209

 - Thermochemistry -
 -------------------
 Temperature   298.150 Kelvin.  Pressure   1.00000 Atm.
 Atom     1 has atomic number  1 and mass   1.00783

 Molecular mass:    21.01405 amu.
 Principal axes and moments of inertia in atomic units:
                           1         2         3
     Eigenvalues --     0.00000  30.60397  30.60397
           X            1.00000  -0.00000   0.00000
           Y            0.00000   1.00000   0.00000
           Z            0.00000   0.00000   1.00000
 This molecule is a prolate symmetric top.
 Rotational symmetry number  1.
 Rotational temperature (Kelvin)      2.83015
 Rotational constant (GHZ):          58.970825
    2 imaginary frequencies ignored.
 Zero-point vibrational energy      66183.1 (Joules/Mol)
                                   15.81814 (Kcal/Mol)
 Warning -- explicit consideration of   1 degrees of freedom as
           vibrations may cause significant error
 Vibrational temperatures:    276.48 15643.51
          (Kelvin)

 Zero-point correction=                           0.025208 (Hartree/Particle)
 Thermal correction to Energy=                    0.028141
 Thermal correction to Enthalpy=                  0.029086
 Thermal correction to Gibbs Free Energy=         0.005379
 Sum of electronic and zero-point Energies=           -100.775554
 Sum of electronic and thermal Energies=              -100.772620
 Sum of electronic and thermal Enthalpies=            -100.771676
 Sum of electronic and thermal Free Energies=         -100.795383

                     E (Thermal)             CV                S
                      KCal/Mol        Cal/Mol-Kelvin    Cal/Mol-Kelvin
 Total                   17.659              6.819             49.894
 Electronic               0.000              0.000              1.377
 Translational            0.889              2.981             35.068
 Rotational               0.592              1.987             11.242
 Vibrational             16.178              1.851              2.207
 Vibration     1          0.634              1.851              2.207

 Normal termination of Gaussian 16 at Fri Aug 22 15:44:16 2025.
