 Gaussian 16, Revision C.01,
 Gaussian 16:  ES64L-G16RevC.01  3-Jul-2019

 -----------------------------------------
 # sp b3lyp/6-311g** Force nosymm scf=(qc)
 -----------------------------------------

 -------------------
 Title Card Required
 -------------------
 Symbolic Z-matrix:
 Charge =  0 Multiplicity = 2

                          Input orientation:
 ---------------------------------------------------------------------
 Center     Atomic      Atomic             Coordinates (Angstroms)
 Number     Number       Type             X           Y           Z
 ---------------------------------------------------------------------
      1          1           0        0.000000    0.000000    0.000000
      2          1           0       -3.250000    0.000000    0.000000
      3          9           0        3.250000    0.000000    0.000000
 ---------------------------------------------------------------------

 SCF Done:  E(UB3LYP) =  -100.760110943     a.u. after   26 cycles

 Alpha  occ. eigenvalues --  -24.74862  -1.20864  -0.53983  -0.45326  -0.45326
 Alpha  occ. eigenvalues --   -0.32479
 Alpha virt. eigenvalues --   -0.07893   0.24459   0.36122   0.88491   0.91804
 Alpha virt. eigenvalues --    0.91804   1.02661   1.25038   1.25038   1.25400
 Alpha virt. eigenvalues --    1.44098   1.44098   1.44172   2.15290   2.40262

  Beta  occ. eigenvalues --  -24.71782  -1.12024  -0.42241  -0.42241  -0.33217
  Beta virt. eigenvalues --   -0.25208  -0.06981   0.24272   0.37440   0.93282
  Beta virt. eigenvalues --    0.93282   0.97449   1.06567   1.24179   1.24179
  Beta virt. eigenvalues --    1.24534   1.45298   1.45523   1.45523   2.15680

 Mulliken charges and spin densities:
               1          2
     1  H    0.021014  -0.972389
     2  H    0.000560   0.996093
     3  F   -0.021574   0.976295
 Sum of Mulliken charges =  -0.00000   1.00000

 Dipole moment (field-independent basis, Debye):
    X=             -0.3691    Y=              0.0000    Z=             -0.0000  Tot=              0.3691
 Quadrupole moment (field-independent basis, Debye-Ang):
   XX=             -7.7778   YY=             -7.6225   ZZ=             -7.6225
   XY=              0.0000   XZ=             -0.0000   YZ=              0.0000

  Exact polarizability:      30.225       0.000       2.028      -0.000       0.000       2.028
 Approx polarizability:      26.585       0.000       1.929      -0.000      -0.000       1.929

 ******    2 imaginary frequencies (negative Signs) ******

                      1                      2                      3
                      A                      A                      A
 Frequencies --   -331.3633              -138.9555               114.2585
 Red. masses --      1.0273                 1.0859                 1.0179
 Frc consts  --      0.0665                 0.0124                 0.0078
 IR Inten    --     21.2420                 2.7619                 0.3952

                      4
                      A
 Frequencies --    114.2585
 Red. masses --      1.0179
 Frc consts  --      0.0078
 IR Inten    --      0.3952

 - Thermochemistry -
 -------------------
 Temperature   298.150 Kelvin.  Pressure   1.00000 Atm.
 Atom     1 has atomic number  1 and mass   1.00783

 Molecular mass:    21.01405 amu.
 Principal axes and moments of inertia in atomic units:
                           1         2         3
     Eigenvalues --     0.00000 173.66419 173.66419
           X            1.00000  -0.00000   0.00000
           Y            0.00000   1.00000   0.00000
           Z            0.00000   0.00000   1.00000
 This molecule is a prolate symmetric top.
 Rotational symmetry number  1.
 Rotational temperature (Kelvin)      0.49874
 Rotational constant (GHZ):          10.392132
    2 imaginary frequencies ignored.
 Zero-point vibrational energy       1366.8 (Joules/Mol)
                                    0.32668 (Kcal/Mol)
 Warning -- explicit consideration of   2 degrees of freedom as
           vibrations may cause significant error
 Vibrational temperatures:    164.39   164.39
          (Kelvin)

 Zero-point correction=                           0.000521 (Hartree/Particle)
 Thermal correction to Energy=                    0.004296
 Thermal correction to Enthalpy=                  0.005241
 Thermal correction to Gibbs Free Energy=        -0.022093
 Sum of electronic and zero-point Energies=           -100.759590
 Sum of electronic and thermal Energies=              -100.755815
 Sum of electronic and thermal Enthalpies=            -100.754870
 Sum of electronic and thermal Free Energies=         -100.782204

                     E (Thermal)             CV                S
                      KCal/Mol        Cal/Mol-Kelvin    Cal/Mol-Kelvin
 Total                    2.696              8.843             57.528
 Electronic               0.000              0.000              1.377
 Translational            0.889              2.981             35.068
 Rotational               0.592              1.987             14.692
 Vibrational              1.215              3.875              6.390
 Vibration     1          0.607              1.938              3.195
 Vibration     2          0.607              1.938              3.195

 Normal termination of Gaussian 16 at Fri Aug 22 20:35:57 2025.
