 Gaussian 16, Revision C.01,
 Gaussian 16:  ES64L-G16RevC.01  3-Jul-2019

 -----------------------------------------
 # sp b3lyp/6-311g** Force nosymm scf=(qc)
 -----------------------------------------

 -------------------
 Title Card Required
 -------------------
 Symbolic Z-matrix:
 Charge =  0 Multiplicity = 2

                          Input orientation:
 ---------------------------------------------------------------------
 Center     Atomic      Atomic             Coordinates (Angstroms)
 Number     Number       Type             X           Y           Z
 ---------------------------------------------------------------------
      1          1           0        0.000000    0.000000    0.000000
      2          1           0       -1.400000    0.000000    0.000000
      3          9           0        0.500000    0.000000    0.000000
 ---------------------------------------------------------------------

 SCF Done:  E(UB3LYP) =  -100.255889222     a.u. after    6 cycles

 Alpha  occ. eigenvalues --  -24.63589  -1.43354  -0.64643  -0.44926  -0.44926
 Alpha  occ. eigenvalues --   -0.35250
 Alpha virt. eigenvalues --    0.14979   0.21724   0.67938   0.88369   0.89004
 Alpha virt. eigenvalues --    0.89004   1.17371   1.17371   1.47238   1.64167
 Alpha virt. eigenvalues --    1.64167   1.73672   1.99575   2.29590   3.76084

  Beta  occ. eigenvalues --  -24.63474  -1.42964  -0.64191  -0.44854  -0.44854
  Beta virt. eigenvalues --   -0.10931   0.15979   0.30613   0.73492   0.88512
  Beta virt. eigenvalues --    0.89319   0.89319   1.31878   1.31878   1.48893
  Beta virt. eigenvalues --    1.67590   1.67590   1.85489   2.01852   2.53208

 Mulliken charges and spin densities:
               1          2
     1  H    0.108305   0.013163
     2  H    0.004507   0.984093
     3  F   -0.112813   0.002743
 Sum of Mulliken charges =   0.00000   1.00000

 Dipole moment (field-independent basis, Debye):
    X=             -1.2074    Y=              0.0000    Z=             -0.0000  Tot=              1.2074
 Quadrupole moment (field-independent basis, Debye-Ang):
   XX=             -6.6940   YY=             -6.3580   ZZ=             -6.3580
   XY=              0.0000   XZ=             -0.0000   YZ=              0.0000

  Exact polarizability:       5.576      -0.000       2.482       0.000       0.000       2.482
 Approx polarizability:       5.252       0.000       2.506       0.000       0.000       2.506

 ******    2 imaginary frequencies (negative Signs) ******

                      1                      2                      3
                      A                      A                      A
 Frequencies --  -9374.3449             -9374.3449              1160.2448
 Red. masses --      1.0335                 1.0335                 1.0534
 Frc consts  --     53.5107                53.5107                 0.8355
 IR Inten    --    203.2355               203.2355                15.9067

                      4
                      A
 Frequencies --  19163.4170
 Red. masses --      1.0581
 Frc consts  --    228.9458
 IR Inten    --     65.9624

 - Thermochemistry -
 -------------------
 Temperature   298.150 Kelvin.  Pressure   1.00000 Atm.
 Atom     1 has atomic number  1 and mass   1.00783

 Molecular mass:    21.01405 amu.
 Principal axes and moments of inertia in atomic units:
                           1         2         3
     Eigenvalues --     0.00000  12.89796  12.89796
           X            1.00000  -0.00000   0.00000
           Y            0.00000   1.00000   0.00000
           Z            0.00000   0.00000   1.00000
 This molecule is a prolate symmetric top.
 Rotational symmetry number  1.
 Rotational temperature (Kelvin)      6.71532
 Rotational constant (GHZ):         139.924578
    2 imaginary frequencies ignored.
 Zero-point vibrational energy     121562.5 (Joules/Mol)
                                   29.05413 (Kcal/Mol)
 Vibrational temperatures:   1669.33 27571.88
          (Kelvin)

 Zero-point correction=                           0.046301 (Hartree/Particle)
 Thermal correction to Energy=                    0.048681
 Thermal correction to Enthalpy=                  0.049625
 Thermal correction to Gibbs Free Energy=         0.027760
 Sum of electronic and zero-point Energies=           -100.209589
 Sum of electronic and thermal Energies=              -100.207208
 Sum of electronic and thermal Enthalpies=            -100.206264
 Sum of electronic and thermal Free Energies=         -100.228129

                     E (Thermal)             CV                S
                      KCal/Mol        Cal/Mol-Kelvin    Cal/Mol-Kelvin
 Total                   30.548              5.200             46.019
 Electronic               0.000              0.000              1.377
 Translational            0.889              2.981             35.068
 Rotational               0.592              1.987              9.525
 Vibrational             29.066              0.232              0.049

 Normal termination of Gaussian 16 at Fri Aug 22 15:36:29 2025.
