 Gaussian 16, Revision C.01,
 Gaussian 16:  ES64L-G16RevC.01  3-Jul-2019

 -----------------------------------------
 # sp b3lyp/6-311g** Force nosymm scf=(qc)
 -----------------------------------------

 -------------------
 Title Card Required
 -------------------
 Symbolic Z-matrix:
 Charge =  0 Multiplicity = 2

                          Input orientation:
 ---------------------------------------------------------------------
 Center     Atomic      Atomic             Coordinates (Angstroms)
 Number     Number       Type             X           Y           Z
 ---------------------------------------------------------------------
      1          1           0        0.000000    0.000000    0.000000
      2          1           0       -3.700000    0.000000    0.000000
      3          9           0        2.600000    0.000000    0.000000
 ---------------------------------------------------------------------

 SCF Done:  E(UB3LYP) =  -100.765439180     a.u. after   22 cycles

 Alpha  occ. eigenvalues --  -24.72294  -1.18477  -0.51403  -0.43176  -0.43176
 Alpha  occ. eigenvalues --   -0.32746
 Alpha virt. eigenvalues --   -0.09638   0.23543   0.35577   0.89860   0.93314
 Alpha virt. eigenvalues --    0.93314   1.05973   1.24757   1.24757   1.24829
 Alpha virt. eigenvalues --    1.41412   1.41412   1.44216   2.14333   2.38032

  Beta  occ. eigenvalues --  -24.69403  -1.10235  -0.40291  -0.40291  -0.34964
  Beta virt. eigenvalues --   -0.23696  -0.06385   0.23830   0.38051   0.94713
  Beta virt. eigenvalues --    0.94713   0.97018   1.08644   1.22402   1.22402
  Beta virt. eigenvalues --    1.27227   1.46115   1.46352   1.46352   2.13072

 Mulliken charges and spin densities:
               1          2
     1  H    0.076415  -0.912890
     2  H    0.000470   0.998744
     3  F   -0.076885   0.914146
 Sum of Mulliken charges =  -0.00000   1.00000

 Dipole moment (field-independent basis, Debye):
    X=             -1.0284    Y=              0.0000    Z=             -0.0000  Tot=              1.0284
 Quadrupole moment (field-independent basis, Debye-Ang):
   XX=             -9.1410   YY=             -7.5794   ZZ=             -7.5794
   XY=              0.0000   XZ=             -0.0000   YZ=              0.0000

  Exact polarizability:      30.987       0.000       2.025      -0.000       0.000       2.025
 Approx polarizability:      38.023       0.000       1.921      -0.000      -0.000       1.921

 ******    2 imaginary frequencies (negative Signs) ******

                      1                      2                      3
                      A                      A                      A
 Frequencies --   -553.7553               -96.6777               211.5829
 Red. masses --      1.0550                 1.0565                 1.0227
 Frc consts  --      0.1906                 0.0058                 0.0270
 IR Inten    --     71.7529                 0.1359                 5.6369

                      4
                      A
 Frequencies --    211.5829
 Red. masses --      1.0227
 Frc consts  --      0.0270
 IR Inten    --      5.6369

 - Thermochemistry -
 -------------------
 Temperature   298.150 Kelvin.  Pressure   1.00000 Atm.
 Atom     1 has atomic number  1 and mass   1.00783

 Molecular mass:    21.01405 amu.
 Principal axes and moments of inertia in atomic units:
                           1         2         3
     Eigenvalues --     0.00000 153.50175 153.50175
           X            1.00000  -0.00000   0.00000
           Y            0.00000   1.00000   0.00000
           Z            0.00000   0.00000   1.00000
 This molecule is a prolate symmetric top.
 Rotational symmetry number  1.
 Rotational temperature (Kelvin)      0.56425
 Rotational constant (GHZ):          11.757137
    2 imaginary frequencies ignored.
 Zero-point vibrational energy       2531.1 (Joules/Mol)
                                    0.60495 (Kcal/Mol)
 Warning -- explicit consideration of   2 degrees of freedom as
           vibrations may cause significant error
 Vibrational temperatures:    304.42   304.42
          (Kelvin)

 Zero-point correction=                           0.000964 (Hartree/Particle)
 Thermal correction to Energy=                    0.004410
 Thermal correction to Enthalpy=                  0.005354
 Thermal correction to Gibbs Free Energy=        -0.020755
 Sum of electronic and zero-point Energies=           -100.764475
 Sum of electronic and thermal Energies=              -100.761029
 Sum of electronic and thermal Enthalpies=            -100.760085
 Sum of electronic and thermal Free Energies=         -100.786194

                     E (Thermal)             CV                S
                      KCal/Mol        Cal/Mol-Kelvin    Cal/Mol-Kelvin
 Total                    2.767              8.614             54.952
 Electronic               0.000              0.000              1.377
 Translational            0.889              2.981             35.068
 Rotational               0.592              1.987             14.447
 Vibrational              1.286              3.646              4.060
 Vibration     1          0.643              1.823              2.030
 Vibration     2          0.643              1.823              2.030

 Normal termination of Gaussian 16 at Fri Aug 22 18:05:23 2025.
