 Gaussian 16, Revision C.01,
 Gaussian 16:  ES64L-G16RevC.01  3-Jul-2019

 -----------------------------------------
 # sp b3lyp/6-311g** Force nosymm scf=(qc)
 -----------------------------------------

 -------------------
 Title Card Required
 -------------------
 Symbolic Z-matrix:
 Charge =  0 Multiplicity = 2

                          Input orientation:
 ---------------------------------------------------------------------
 Center     Atomic      Atomic             Coordinates (Angstroms)
 Number     Number       Type             X           Y           Z
 ---------------------------------------------------------------------
      1          1           0        0.000000    0.000000    0.000000
      2          1           0       -3.750000    0.000000    0.000000
      3          9           0        2.500000    0.000000    0.000000
 ---------------------------------------------------------------------

 SCF Done:  E(UB3LYP) =  -100.767336907     a.u. after   17 cycles

 Alpha  occ. eigenvalues --  -24.71733  -1.17950  -0.50836  -0.42706  -0.42706
 Alpha  occ. eigenvalues --   -0.32806
 Alpha virt. eigenvalues --   -0.10197   0.23407   0.35224   0.89605   0.93617
 Alpha virt. eigenvalues --    0.93617   1.06199   1.24697   1.24697   1.24750
 Alpha virt. eigenvalues --    1.40486   1.40486   1.44863   2.14211   2.36989

  Beta  occ. eigenvalues --  -24.68892  -1.09864  -0.39874  -0.39874  -0.35357
  Beta virt. eigenvalues --   -0.23334  -0.06349   0.23739   0.38076   0.94979
  Beta virt. eigenvalues --    0.94979   0.95889   1.08516   1.22092   1.22092
  Beta virt. eigenvalues --    1.29707   1.46180   1.46407   1.46407   2.12484

 Mulliken charges and spin densities:
               1          2
     1  H    0.090142  -0.896646
     2  H    0.000471   0.998882
     3  F   -0.090613   0.897764
 Sum of Mulliken charges =   0.00000   1.00000

 Dipole moment (field-independent basis, Debye):
    X=             -1.1605    Y=              0.0000    Z=              0.0000  Tot=              1.1605
 Quadrupole moment (field-independent basis, Debye-Ang):
   XX=             -9.3370   YY=             -7.5683   ZZ=             -7.5683
   XY=             -0.0000   XZ=              0.0000   YZ=             -0.0000

  Exact polarizability:      30.212       0.000       2.026      -0.000       0.000       2.026
 Approx polarizability:      38.471      -0.000       1.921       0.000      -0.000       1.921

 ******    2 imaginary frequencies (negative Signs) ******

                      1                      2                      3
                      A                      A                      A
 Frequencies --   -613.8755               -91.1541               240.7471
 Red. masses --      1.0560                 1.0556                 1.0235
 Frc consts  --      0.2345                 0.0052                 0.0350
 IR Inten    --     80.6635                 0.0958                 7.8717

                      4
                      A
 Frequencies --    240.7471
 Red. masses --      1.0235
 Frc consts  --      0.0350
 IR Inten    --      7.8717

 - Thermochemistry -
 -------------------
 Temperature   298.150 Kelvin.  Pressure   1.00000 Atm.
 Atom     1 has atomic number  1 and mass   1.00783

 Molecular mass:    21.01405 amu.
 Principal axes and moments of inertia in atomic units:
                           1         2         3
     Eigenvalues --     0.00000 149.86486 149.86486
           X            1.00000  -0.00000   0.00000
           Y            0.00000   1.00000   0.00000
           Z            0.00000   0.00000   1.00000
 This molecule is a prolate symmetric top.
 Rotational symmetry number  1.
 Rotational temperature (Kelvin)      0.57795
 Rotational constant (GHZ):          12.042458
    2 imaginary frequencies ignored.
 Zero-point vibrational energy       2880.0 (Joules/Mol)
                                    0.68833 (Kcal/Mol)
 Warning -- explicit consideration of   2 degrees of freedom as
           vibrations may cause significant error
 Vibrational temperatures:    346.38   346.38
          (Kelvin)

 Zero-point correction=                           0.001097 (Hartree/Particle)
 Thermal correction to Energy=                    0.004457
 Thermal correction to Enthalpy=                  0.005401
 Thermal correction to Gibbs Free Energy=        -0.020465
 Sum of electronic and zero-point Energies=           -100.766240
 Sum of electronic and thermal Energies=              -100.762880
 Sum of electronic and thermal Enthalpies=            -100.761936
 Sum of electronic and thermal Free Energies=         -100.787802

                     E (Thermal)             CV                S
                      KCal/Mol        Cal/Mol-Kelvin    Cal/Mol-Kelvin
 Total                    2.797              8.524             54.439
 Electronic               0.000              0.000              1.377
 Translational            0.889              2.981             35.068
 Rotational               0.592              1.987             14.399
 Vibrational              1.315              3.556              3.595
 Vibration     1          0.658              1.778              1.797
 Vibration     2          0.658              1.778              1.797

 Normal termination of Gaussian 16 at Fri Aug 22 17:46:28 2025.
