 Gaussian 16, Revision C.01,
 Gaussian 16:  ES64L-G16RevC.01  3-Jul-2019

 -----------------------------------------
 # sp b3lyp/6-311g** Force nosymm scf=(qc)
 -----------------------------------------

 -------------------
 Title Card Required
 -------------------
 Symbolic Z-matrix:
 Charge =  0 Multiplicity = 2

                          Input orientation:
 ---------------------------------------------------------------------
 Center     Atomic      Atomic             Coordinates (Angstroms)
 Number     Number       Type             X           Y           Z
 ---------------------------------------------------------------------
      1          1           0        0.000000    0.000000    0.000000
      2          1           0       -1.450000    0.000000    0.000000
      3          9           0        1.750000    0.000000    0.000000
 ---------------------------------------------------------------------

 SCF Done:  E(UB3LYP) =  -100.854877601     a.u. after   12 cycles

 Alpha  occ. eigenvalues --  -24.67759  -1.14259  -0.48061  -0.39475  -0.39475
 Alpha  occ. eigenvalues --   -0.38919
 Alpha virt. eigenvalues --   -0.08682   0.21482   0.30332   0.89292   0.93560
 Alpha virt. eigenvalues --    0.93560   1.03325   1.14823   1.14823   1.39450
 Alpha virt. eigenvalues --    1.40855   1.40855   1.90005   2.20766   2.45189

  Beta  occ. eigenvalues --  -24.65543  -1.08124  -0.39280  -0.37305  -0.37305
  Beta virt. eigenvalues --   -0.22990  -0.06215   0.23905   0.30608   0.93363
  Beta virt. eigenvalues --    0.94108   0.94108   1.07245   1.18403   1.18403
  Beta virt. eigenvalues --    1.41900   1.41900   1.44255   1.92825   2.22016

 Mulliken charges and spin densities:
               1          2
     1  H    0.145210  -0.299383
     2  H    0.070875   0.607440
     3  F   -0.216086   0.691944
 Sum of Mulliken charges =  -0.00000   1.00000

 Dipole moment (field-independent basis, Debye):
    X=             -2.3404    Y=             -0.0000    Z=             -0.0000  Tot=              2.3404
 Quadrupole moment (field-independent basis, Debye-Ang):
   XX=             -7.9001   YY=             -7.3901   ZZ=             -7.3901
   XY=             -0.0000   XZ=             -0.0000   YZ=             -0.0000

  Exact polarizability:      44.701      -0.000       2.203      -0.000      -0.000       2.203
 Approx polarizability:      68.933       0.000       2.147       0.000      -0.000       2.147

 ******    2 imaginary frequencies (negative Signs) ******

                      1                      2                      3
                      A                      A                      A
 Frequencies --  -2380.6217              -496.3506              1099.3929
 Red. masses --      1.0171                 1.0975                 1.0158
 Frc consts  --      3.3962                 0.1593                 0.7234
 IR Inten    --    815.0021                 0.5269                 7.0560

                      4
                      A
 Frequencies --   1099.3929
 Red. masses --      1.0158
 Frc consts  --      0.7234
 IR Inten    --      7.0560

 - Thermochemistry -
 -------------------
 Temperature   298.150 Kelvin.  Pressure   1.00000 Atm.
 Atom     1 has atomic number  1 and mass   1.00783

 Molecular mass:    21.01405 amu.
 Principal axes and moments of inertia in atomic units:
                           1         2         3
     Eigenvalues --     0.00000  43.64651  43.64651
           X            1.00000  -0.00000   0.00000
           Y            0.00000   1.00000   0.00000
           Z            0.00000   0.00000   1.00000
 This molecule is a prolate symmetric top.
 Rotational symmetry number  1.
 Rotational temperature (Kelvin)      1.98444
 Rotational constant (GHZ):          41.349038
    2 imaginary frequencies ignored.
 Zero-point vibrational energy      13151.7 (Joules/Mol)
                                    3.14332 (Kcal/Mol)
 Vibrational temperatures:   1581.78  1581.78
          (Kelvin)

 Zero-point correction=                           0.005009 (Hartree/Particle)
 Thermal correction to Energy=                    0.007420
 Thermal correction to Enthalpy=                  0.008364
 Thermal correction to Gibbs Free Energy=        -0.014689
 Sum of electronic and zero-point Energies=           -100.849868
 Sum of electronic and thermal Energies=              -100.847458
 Sum of electronic and thermal Enthalpies=            -100.846514
 Sum of electronic and thermal Free Energies=         -100.869566

                     E (Thermal)             CV                S
                      KCal/Mol        Cal/Mol-Kelvin    Cal/Mol-Kelvin
 Total                    4.656              5.529             48.518
 Electronic               0.000              0.000              1.377
 Translational            0.889              2.981             35.068
 Rotational               0.592              1.987             11.948
 Vibrational              3.175              0.561              0.125

 Normal termination of Gaussian 16 at Fri Aug 22 16:39:58 2025.
