 Gaussian 16, Revision C.01,
 Gaussian 16:  ES64L-G16RevC.01  3-Jul-2019

 -----------------------------------------
 # sp b3lyp/6-311g** Force nosymm scf=(qc)
 -----------------------------------------

 -------------------
 Title Card Required
 -------------------
 Symbolic Z-matrix:
 Charge =  0 Multiplicity = 2

                          Input orientation:
 ---------------------------------------------------------------------
 Center     Atomic      Atomic             Coordinates (Angstroms)
 Number     Number       Type             X           Y           Z
 ---------------------------------------------------------------------
      1          1           0        0.000000    0.000000    0.000000
      2          1           0       -2.250000    0.000000    0.000000
      3          9           0        3.200000    0.000000    0.000000
 ---------------------------------------------------------------------

 SCF Done:  E(UB3LYP) =  -100.767617654     a.u. after   25 cycles

 Alpha  occ. eigenvalues --  -24.74856  -1.20856  -0.53976  -0.45320  -0.45320
 Alpha  occ. eigenvalues --   -0.33120
 Alpha virt. eigenvalues --   -0.10796   0.25680   0.33051   0.88760   0.91806
 Alpha virt. eigenvalues --    0.91806   1.02856   1.24361   1.24680   1.24680
 Alpha virt. eigenvalues --    1.38939   1.38939   1.43907   2.14129   2.35597

  Beta  occ. eigenvalues --  -24.71780  -1.12026  -0.42238  -0.42238  -0.33447
  Beta virt. eigenvalues --   -0.25232  -0.10115   0.25711   0.33903   0.93283
  Beta virt. eigenvalues --    0.93283   0.97724   1.06826   1.23913   1.24260
  Beta virt. eigenvalues --    1.24260   1.40009   1.40009   1.44880   2.15158

 Mulliken charges and spin densities:
               1          2
     1  H    0.015048  -0.911955
     2  H    0.006974   0.936741
     3  F   -0.022022   0.975214
 Sum of Mulliken charges =   0.00000   1.00000

 Dipole moment (field-independent basis, Debye):
    X=             -0.4363    Y=             -0.0000    Z=             -0.0000  Tot=              0.4363
 Quadrupole moment (field-independent basis, Debye-Ang):
   XX=             -7.3432   YY=             -7.6855   ZZ=             -7.6855
   XY=             -0.0000   XZ=             -0.0000   YZ=              0.0000

  Exact polarizability:      47.855      -0.000       2.012      -0.000       0.000       2.012
 Approx polarizability:      39.152      -0.000       1.926      -0.000      -0.000       1.926

 ******    2 imaginary frequencies (negative Signs) ******

                      1                      2                      3
                      A                      A                      A
 Frequencies --   -963.5972              -195.0503               368.1703
 Red. masses --      1.0081                 1.1082                 1.0142
 Frc consts  --      0.5515                 0.0248                 0.0810
 IR Inten    --     16.0731                16.6508                 0.1306

                      4
                      A
 Frequencies --    368.1703
 Red. masses --      1.0142
 Frc consts  --      0.0810
 IR Inten    --      0.1306

 - Thermochemistry -
 -------------------
 Temperature   298.150 Kelvin.  Pressure   1.00000 Atm.
 Atom     1 has atomic number  1 and mass   1.00783

 Molecular mass:    21.01405 amu.
 Principal axes and moments of inertia in atomic units:
                           1         2         3
     Eigenvalues --     0.00000 130.83852 130.83852
           X            1.00000  -0.00000   0.00000
           Y            0.00000   1.00000   0.00000
           Z            0.00000   0.00000   1.00000
 This molecule is a prolate symmetric top.
 Rotational symmetry number  1.
 Rotational temperature (Kelvin)      0.66199
 Rotational constant (GHZ):          13.793654
    2 imaginary frequencies ignored.
 Zero-point vibrational energy       4404.3 (Joules/Mol)
                                    1.05265 (Kcal/Mol)
 Warning -- explicit consideration of   2 degrees of freedom as
           vibrations may cause significant error
 Vibrational temperatures:    529.71   529.71
          (Kelvin)

 Zero-point correction=                           0.001678 (Hartree/Particle)
 Thermal correction to Energy=                    0.004721
 Thermal correction to Enthalpy=                  0.005665
 Thermal correction to Gibbs Free Energy=        -0.019398
 Sum of electronic and zero-point Energies=           -100.765940
 Sum of electronic and thermal Energies=              -100.762896
 Sum of electronic and thermal Enthalpies=            -100.761952
 Sum of electronic and thermal Free Energies=         -100.787015

                     E (Thermal)             CV                S
                      KCal/Mol        Cal/Mol-Kelvin    Cal/Mol-Kelvin
 Total                    2.963              8.043             52.749
 Electronic               0.000              0.000              1.377
 Translational            0.889              2.981             35.068
 Rotational               0.592              1.987             14.129
 Vibrational              1.481              3.075              2.175
 Vibration     1          0.741              1.538              1.087
 Vibration     2          0.741              1.538              1.087

 Normal termination of Gaussian 16 at Fri Aug 22 20:23:26 2025.
