 Gaussian 16, Revision C.01,
 Gaussian 16:  ES64L-G16RevC.01  3-Jul-2019

 -----------------------------------------
 # sp b3lyp/6-311g** Force nosymm scf=(qc)
 -----------------------------------------

 -------------------
 Title Card Required
 -------------------
 Symbolic Z-matrix:
 Charge =  0 Multiplicity = 2

                          Input orientation:
 ---------------------------------------------------------------------
 Center     Atomic      Atomic             Coordinates (Angstroms)
 Number     Number       Type             X           Y           Z
 ---------------------------------------------------------------------
      1          1           0        0.000000    0.000000    0.000000
      2          1           0       -3.950000    0.000000    0.000000
      3          9           0        2.900000    0.000000    0.000000
 ---------------------------------------------------------------------

 SCF Done:  E(UB3LYP) =  -100.761599755     a.u. after   21 cycles

 Alpha  occ. eigenvalues --  -24.73694  -1.19783  -0.52813  -0.44347  -0.44347
 Alpha  occ. eigenvalues --   -0.32504
 Alpha virt. eigenvalues --   -0.08113   0.23823   0.36129   0.89623   0.92509
 Alpha virt. eigenvalues --    0.92509   1.04439   1.24993   1.24993   1.25014
 Alpha virt. eigenvalues --    1.43703   1.43703   1.44893   2.14321   2.40519

  Beta  occ. eigenvalues --  -24.70694  -1.11194  -0.41346  -0.41346  -0.33985
  Beta virt. eigenvalues --   -0.24547  -0.05967   0.23770   0.38129   0.93961
  Beta virt. eigenvalues --    0.93961   0.98114   1.08010   1.23325   1.23325
  Beta virt. eigenvalues --    1.24113   1.46586   1.46717   1.46717   2.14138

 Mulliken charges and spin densities:
               1          2
     1  H    0.045150  -0.949566
     2  H    0.000161   0.999319
     3  F   -0.045311   0.950247
 Sum of Mulliken charges =  -0.00000   1.00000

 Dipole moment (field-independent basis, Debye):
    X=             -0.6772    Y=             -0.0000    Z=             -0.0000  Tot=              0.6772
 Quadrupole moment (field-independent basis, Debye-Ang):
   XX=             -8.5541   YY=             -7.5999   ZZ=             -7.5999
   XY=             -0.0000   XZ=             -0.0000   YZ=              0.0000

  Exact polarizability:      31.222      -0.000       2.026      -0.000      -0.000       2.026
 Approx polarizability:      33.828      -0.000       1.925      -0.000       0.000       1.925

 ******    2 imaginary frequencies (negative Signs) ******

                      1                      2                      3
                      A                      A                      A
 Frequencies --   -402.9083               -72.9549               143.4852
 Red. masses --      1.0548                 1.0568                 1.0221
 Frc consts  --      0.1009                 0.0033                 0.0124
 IR Inten    --     47.0376                 0.0709                 1.9748

                      4
                      A
 Frequencies --    143.4852
 Red. masses --      1.0221
 Frc consts  --      0.0124
 IR Inten    --      1.9748

 - Thermochemistry -
 -------------------
 Temperature   298.150 Kelvin.  Pressure   1.00000 Atm.
 Atom     1 has atomic number  1 and mass   1.00783

 Molecular mass:    21.01405 amu.
 Principal axes and moments of inertia in atomic units:
                           1         2         3
     Eigenvalues --     0.00000 182.73370 182.73370
           X            1.00000  -0.00000   0.00000
           Y            0.00000   1.00000   0.00000
           Z            0.00000   0.00000   1.00000
 This molecule is a prolate symmetric top.
 Rotational symmetry number  1.
 Rotational temperature (Kelvin)      0.47399
 Rotational constant (GHZ):           9.876346
    2 imaginary frequencies ignored.
 Zero-point vibrational energy       1716.5 (Joules/Mol)
                                    0.41024 (Kcal/Mol)
 Warning -- explicit consideration of   2 degrees of freedom as
           vibrations may cause significant error
 Vibrational temperatures:    206.44   206.44
          (Kelvin)

 Zero-point correction=                           0.000654 (Hartree/Particle)
 Thermal correction to Energy=                    0.004324
 Thermal correction to Enthalpy=                  0.005268
 Thermal correction to Gibbs Free Energy=        -0.021697
 Sum of electronic and zero-point Energies=           -100.760946
 Sum of electronic and thermal Energies=              -100.757276
 Sum of electronic and thermal Enthalpies=            -100.756332
 Sum of electronic and thermal Free Energies=         -100.783297

                     E (Thermal)             CV                S
                      KCal/Mol        Cal/Mol-Kelvin    Cal/Mol-Kelvin
 Total                    2.713              8.787             56.752
 Electronic               0.000              0.000              1.377
 Translational            0.889              2.981             35.068
 Rotational               0.592              1.987             14.793
 Vibrational              1.232              3.819              5.514
 Vibration     1          0.616              1.910              2.757
 Vibration     2          0.616              1.910              2.757

 Normal termination of Gaussian 16 at Fri Aug 22 19:05:14 2025.
