 Gaussian 16, Revision C.01,
 Gaussian 16:  ES64L-G16RevC.01  3-Jul-2019

 -----------------------------------------
 # sp b3lyp/6-311g** Force nosymm scf=(qc)
 -----------------------------------------

 -------------------
 Title Card Required
 -------------------
 Symbolic Z-matrix:
 Charge =  0 Multiplicity = 2

                          Input orientation:
 ---------------------------------------------------------------------
 Center     Atomic      Atomic             Coordinates (Angstroms)
 Number     Number       Type             X           Y           Z
 ---------------------------------------------------------------------
      1          1           0        0.000000    0.000000    0.000000
      2          1           0       -3.900000    0.000000    0.000000
      3          9           0        1.500000    0.000000    0.000000
 ---------------------------------------------------------------------

 SCF Done:  E(UB3LYP) =  -100.854619171     a.u. after    8 cycles

 Alpha  occ. eigenvalues --  -24.64367  -1.09689  -0.43237  -0.36441  -0.36441
 Alpha  occ. eigenvalues --   -0.33650
 Alpha virt. eigenvalues --   -0.14534   0.20458   0.27064   0.93487   0.93487
 Alpha virt. eigenvalues --    1.03522   1.09328   1.23821   1.23857   1.23857
 Alpha virt. eigenvalues --    1.31104   1.31104   1.72852   2.12742   2.18938

  Beta  occ. eigenvalues --  -24.64352  -1.09652  -0.43205  -0.36427  -0.36427
  Beta virt. eigenvalues --   -0.14656  -0.06129   0.23093   0.38301   0.93481
  Beta virt. eigenvalues --    0.93481   1.03556   1.09327   1.31035   1.31035
  Beta virt. eigenvalues --    1.46488   1.46808   1.46808   1.72844   2.17709

 Mulliken charges and spin densities:
               1          2
     1  H    0.349686  -0.003806
     2  H    0.000692   0.999272
     3  F   -0.350378   0.004533
 Sum of Mulliken charges =   0.00000   1.00000

 Dipole moment (field-independent basis, Debye):
    X=             -2.5953    Y=             -0.0000    Z=              0.0000  Tot=              2.5953
 Quadrupole moment (field-independent basis, Debye-Ang):
   XX=             -9.9618   YY=             -7.3209   ZZ=             -7.3209
   XY=             -0.0000   XZ=              0.0000   YZ=             -0.0000

  Exact polarizability:      14.711      -0.000       2.186       0.000      -0.000       2.186
 Approx polarizability:      28.312      -0.000       2.111       0.000       0.000       2.111

 ******    2 imaginary frequencies (negative Signs) ******

                      1                      2                      3
                      A                      A                      A
 Frequencies --  -1145.2591               -47.0053              1021.9358
 Red. masses --      1.0580                 1.0535                 1.0323
 Frc consts  --      0.8176                 0.0014                 0.6352
 IR Inten    --     38.6430                 0.0438               119.7910

                      4
                      A
 Frequencies --   1021.9358
 Red. masses --      1.0323
 Frc consts  --      0.6352
 IR Inten    --    119.7910

 - Thermochemistry -
 -------------------
 Temperature   298.150 Kelvin.  Pressure   1.00000 Atm.
 Atom     1 has atomic number  1 and mass   1.00783

 Molecular mass:    21.01405 amu.
 Principal axes and moments of inertia in atomic units:
                           1         2         3
     Eigenvalues --     0.00000 104.82704 104.82704
           X            1.00000  -0.00000   0.00000
           Y            0.00000   1.00000   0.00000
           Z            0.00000   0.00000   1.00000
 This molecule is a prolate symmetric top.
 Rotational symmetry number  1.
 Rotational temperature (Kelvin)      0.82626
 Rotational constant (GHZ):          17.216370
    2 imaginary frequencies ignored.
 Zero-point vibrational energy      12225.1 (Joules/Mol)
                                    2.92186 (Kcal/Mol)
 Vibrational temperatures:   1470.34  1470.34
          (Kelvin)

 Zero-point correction=                           0.004656 (Hartree/Particle)
 Thermal correction to Energy=                    0.007084
 Thermal correction to Enthalpy=                  0.008029
 Thermal correction to Gibbs Free Energy=        -0.015873
 Sum of electronic and zero-point Energies=           -100.849963
 Sum of electronic and thermal Energies=              -100.847535
 Sum of electronic and thermal Enthalpies=            -100.846591
 Sum of electronic and thermal Free Energies=         -100.870492

                     E (Thermal)             CV                S
                      KCal/Mol        Cal/Mol-Kelvin    Cal/Mol-Kelvin
 Total                    4.446              5.676             50.305
 Electronic               0.000              0.000              1.377
 Translational            0.889              2.981             35.068
 Rotational               0.592              1.987             13.689
 Vibrational              2.964              0.708              0.171

 Normal termination of Gaussian 16 at Fri Aug 22 16:26:53 2025.
