 Gaussian 16, Revision C.01,
 Gaussian 16:  ES64L-G16RevC.01  3-Jul-2019

 -----------------------------------------
 # sp b3lyp/6-311g** Force nosymm scf=(qc)
 -----------------------------------------

 -------------------
 Title Card Required
 -------------------
 Symbolic Z-matrix:
 Charge =  0 Multiplicity = 2

                          Input orientation:
 ---------------------------------------------------------------------
 Center     Atomic      Atomic             Coordinates (Angstroms)
 Number     Number       Type             X           Y           Z
 ---------------------------------------------------------------------
      1          1           0        0.000000    0.000000    0.000000
      2          1           0       -3.900000    0.000000    0.000000
      3          9           0        2.050000    0.000000    0.000000
 ---------------------------------------------------------------------

 SCF Done:  E(UB3LYP) =  -100.783929602     a.u. after   15 cycles

 Alpha  occ. eigenvalues --  -24.68643  -1.14967  -0.47647  -0.40114  -0.40114
 Alpha  occ. eigenvalues --   -0.33147
 Alpha virt. eigenvalues --   -0.13392   0.22586   0.31931   0.88463   0.94787
 Alpha virt. eigenvalues --    0.94787   1.05656   1.24355   1.24357   1.24357
 Alpha virt. eigenvalues --    1.35975   1.35975   1.58115   2.13697   2.30299

  Beta  occ. eigenvalues --  -24.66194  -1.08104  -0.37697  -0.37697  -0.37635
  Beta virt. eigenvalues --   -0.21073  -0.06322   0.22576   0.38053   0.90098
  Beta virt. eigenvalues --    0.95557   0.95557   1.08084   1.21727   1.21727
  Beta virt. eigenvalues --    1.46250   1.46527   1.46527   1.50384   2.11402

 Mulliken charges and spin densities:
               1          2
     1  H    0.179659  -0.769365
     2  H    0.000549   0.999162
     3  F   -0.180208   0.770203
 Sum of Mulliken charges =   0.00000   1.00000

 Dipole moment (field-independent basis, Debye):
    X=             -1.8416    Y=             -0.0000    Z=              0.0000  Tot=              1.8416
 Quadrupole moment (field-independent basis, Debye-Ang):
   XX=            -10.0430   YY=             -7.4964   ZZ=             -7.4964
   XY=              0.0000   XZ=             -0.0000   YZ=              0.0000

  Exact polarizability:      25.458       0.000       2.056      -0.000      -0.000       2.056
 Approx polarizability:      36.944       0.000       1.941      -0.000       0.000       1.941

 ******    2 imaginary frequencies (negative Signs) ******

                      1                      2                      3
                      A                      A                      A
 Frequencies --  -1050.4622               -74.5467               447.6320
 Red. masses --      1.0577                 1.0538                 1.0272
 Frc consts  --      0.6877                 0.0035                 0.1213
 IR Inten    --    118.6465                 0.0452                30.9274

                      4
                      A
 Frequencies --    447.6320
 Red. masses --      1.0272
 Frc consts  --      0.1213
 IR Inten    --     30.9274

 - Thermochemistry -
 -------------------
 Temperature   298.150 Kelvin.  Pressure   1.00000 Atm.
 Atom     1 has atomic number  1 and mass   1.00783

 Molecular mass:    21.01405 amu.
 Principal axes and moments of inertia in atomic units:
                           1         2         3
     Eigenvalues --     0.00000 131.49189 131.49189
           X            1.00000  -0.00000   0.00000
           Y            0.00000   1.00000   0.00000
           Z            0.00000   0.00000   1.00000
 This molecule is a prolate symmetric top.
 Rotational symmetry number  1.
 Rotational temperature (Kelvin)      0.65870
 Rotational constant (GHZ):          13.725114
    2 imaginary frequencies ignored.
 Zero-point vibrational energy       5354.9 (Joules/Mol)
                                    1.27984 (Kcal/Mol)
 Warning -- explicit consideration of   2 degrees of freedom as
           vibrations may cause significant error
 Vibrational temperatures:    644.04   644.04
          (Kelvin)

 Zero-point correction=                           0.002040 (Hartree/Particle)
 Thermal correction to Energy=                    0.004932
 Thermal correction to Enthalpy=                  0.005876
 Thermal correction to Gibbs Free Energy=        -0.018922
 Sum of electronic and zero-point Energies=           -100.781890
 Sum of electronic and thermal Energies=              -100.778998
 Sum of electronic and thermal Enthalpies=            -100.778054
 Sum of electronic and thermal Free Energies=         -100.802851

                     E (Thermal)             CV                S
                      KCal/Mol        Cal/Mol-Kelvin    Cal/Mol-Kelvin
 Total                    3.095              7.700             52.190
 Electronic               0.000              0.000              1.377
 Translational            0.889              2.981             35.068
 Rotational               0.592              1.987             14.139
 Vibrational              1.613              2.732              1.606
 Vibration     1          0.807              1.366              0.803
 Vibration     2          0.807              1.366              0.803

 Normal termination of Gaussian 16 at Fri Aug 22 17:01:59 2025.
