 Gaussian 16, Revision C.01,
 Gaussian 16:  ES64L-G16RevC.01  3-Jul-2019

 -----------------------------------------
 # sp b3lyp/6-311g** Force nosymm scf=(qc)
 -----------------------------------------

 -------------------
 Title Card Required
 -------------------
 Symbolic Z-matrix:
 Charge =  0 Multiplicity = 2

                          Input orientation:
 ---------------------------------------------------------------------
 Center     Atomic      Atomic             Coordinates (Angstroms)
 Number     Number       Type             X           Y           Z
 ---------------------------------------------------------------------
      1          1           0        0.000000    0.000000    0.000000
      2          1           0       -0.650000    0.000000    0.000000
      3          9           0        1.150000    0.000000    0.000000
 ---------------------------------------------------------------------

 SCF Done:  E(UB3LYP) =  -100.918873097     a.u. after    6 cycles

 Alpha  occ. eigenvalues --  -24.68282  -1.18481  -0.62429  -0.41588  -0.41588
 Alpha  occ. eigenvalues --   -0.38061
 Alpha virt. eigenvalues --    0.12615   0.18775   0.55032   0.87285   0.87285
 Alpha virt. eigenvalues --    0.95470   1.11147   1.11147   1.48386   1.65369
 Alpha virt. eigenvalues --    1.83895   1.83895   1.91816   2.42691   3.77445

  Beta  occ. eigenvalues --  -24.66161  -1.13029  -0.54045  -0.39620  -0.39620
  Beta virt. eigenvalues --   -0.19596   0.14263   0.19657   0.59355   0.88881
  Beta virt. eigenvalues --    0.88881   0.99904   1.14652   1.14652   1.51097
  Beta virt. eigenvalues --    1.71275   1.86841   1.86841   1.92838   2.48453

 Mulliken charges and spin densities:
               1          2
     1  H    0.254749  -0.019639
     2  H   -0.030823   0.437915
     3  F   -0.223927   0.581725
 Sum of Mulliken charges =   0.00000   1.00000

 Dipole moment (field-independent basis, Debye):
    X=             -1.4042    Y=             -0.0000    Z=             -0.0000  Tot=              1.4042
 Quadrupole moment (field-independent basis, Debye-Ang):
   XX=             -7.2414   YY=             -6.5294   ZZ=             -6.5294
   XY=             -0.0000   XZ=             -0.0000   YZ=              0.0000

  Exact polarizability:      14.651      -0.000       2.452      -0.000      -0.000       2.452
 Approx polarizability:      18.215      -0.000       2.505      -0.000       0.000       2.505

 ******    2 imaginary frequencies (negative Signs) ******

                      1                      2                      3
                      A                      A                      A
 Frequencies --  -2526.2870             -2526.2870              1229.7715
 Red. masses --      1.0125                 1.0125                 1.1080
 Frc consts  --      3.8073                 3.8073                 0.9873
 IR Inten    --      9.8183                 9.8183                13.8596

                      4
                      A
 Frequencies --   5457.3129
 Red. masses --      1.0082
 Frc consts  --     17.6918
 IR Inten    --    366.2020

 - Thermochemistry -
 -------------------
 Temperature   298.150 Kelvin.  Pressure   1.00000 Atm.
 Atom     1 has atomic number  1 and mass   1.00783

 Molecular mass:    21.01405 amu.
 Principal axes and moments of inertia in atomic units:
                           1         2         3
     Eigenvalues --     0.00000  14.91836  14.91836
           X            1.00000  -0.00000   0.00000
           Y            0.00000   1.00000   0.00000
           Z            0.00000   0.00000   1.00000
 This molecule is a prolate symmetric top.
 Rotational symmetry number  1.
 Rotational temperature (Kelvin)      5.80586
 Rotational constant (GHZ):         120.974465
    2 imaginary frequencies ignored.
 Zero-point vibrational energy      39997.6 (Joules/Mol)
                                    9.55967 (Kcal/Mol)
 Vibrational temperatures:   1769.37  7851.86
          (Kelvin)

 Zero-point correction=                           0.015234 (Hartree/Particle)
 Thermal correction to Energy=                    0.017610
 Thermal correction to Enthalpy=                  0.018554
 Thermal correction to Gibbs Free Energy=        -0.003443
 Sum of electronic and zero-point Energies=           -100.903639
 Sum of electronic and thermal Energies=              -100.901263
 Sum of electronic and thermal Enthalpies=            -100.900319
 Sum of electronic and thermal Free Energies=         -100.922316

                     E (Thermal)             CV                S
                      KCal/Mol        Cal/Mol-Kelvin    Cal/Mol-Kelvin
 Total                   11.050              5.154             46.296
 Electronic               0.000              0.000              1.377
 Translational            0.889              2.981             35.068
 Rotational               0.592              1.987              9.814
 Vibrational              9.569              0.186              0.037

 Normal termination of Gaussian 16 at Fri Aug 22 16:06:46 2025.
