 Gaussian 16, Revision C.01,
 Gaussian 16:  ES64L-G16RevC.01  3-Jul-2019

 -----------------------------------------
 # sp b3lyp/6-311g** Force nosymm scf=(qc)
 -----------------------------------------

 -------------------
 Title Card Required
 -------------------
 Symbolic Z-matrix:
 Charge =  0 Multiplicity = 2

                          Input orientation:
 ---------------------------------------------------------------------
 Center     Atomic      Atomic             Coordinates (Angstroms)
 Number     Number       Type             X           Y           Z
 ---------------------------------------------------------------------
      1          1           0        0.000000    0.000000    0.000000
      2          1           0       -1.350000    0.000000    0.000000
      3          9           0        0.900000    0.000000    0.000000
 ---------------------------------------------------------------------

 SCF Done:  E(UB3LYP) =  -100.967673276     a.u. after    6 cycles

 Alpha  occ. eigenvalues --  -24.63670  -1.19129  -0.55748  -0.39475  -0.39475
 Alpha  occ. eigenvalues --   -0.36778
 Alpha virt. eigenvalues --    0.11786   0.20325   0.41246   0.93718   0.93718
 Alpha virt. eigenvalues --    0.97614   1.12961   1.12961   1.29753   1.46780
 Alpha virt. eigenvalues --    1.46780   1.55080   2.11115   2.23760   2.74913

  Beta  occ. eigenvalues --  -24.63354  -1.18322  -0.53619  -0.39203  -0.39203
  Beta virt. eigenvalues --   -0.15588   0.13557   0.25921   0.45789   0.94140
  Beta virt. eigenvalues --    0.94140   0.98267   1.22568   1.22568   1.36473
  Beta virt. eigenvalues --    1.52429   1.52429   1.60006   2.18441   2.34167

 Mulliken charges and spin densities:
               1          2
     1  H    0.272889   0.003267
     2  H    0.025692   0.921463
     3  F   -0.298581   0.075270
 Sum of Mulliken charges =   0.00000   1.00000

 Dipole moment (field-independent basis, Debye):
    X=             -2.0418    Y=             -0.0000    Z=              0.0000  Tot=              2.0418
 Quadrupole moment (field-independent basis, Debye-Ang):
   XX=             -7.4984   YY=             -6.7204   ZZ=             -6.7204
   XY=             -0.0000   XZ=              0.0000   YZ=              0.0000

  Exact polarizability:      11.140       0.000       2.557      -0.000      -0.000       2.557
 Approx polarizability:      11.700       0.000       2.568      -0.000      -0.000       2.568

 ******    2 imaginary frequencies (negative Signs) ******

                      1                      2                      3
                      A                      A                      A
 Frequencies --   -828.0782              -828.0782               773.0404
 Red. masses --      1.0235                 1.0235                 1.0511
 Frc consts  --      0.4135                 0.4135                 0.3701
 IR Inten    --    104.8708               104.8708                 4.5971

                      4
                      A
 Frequencies --   4243.6503
 Red. masses --      1.0605
 Frc consts  --     11.2518
 IR Inten    --    168.2206

 - Thermochemistry -
 -------------------
 Temperature   298.150 Kelvin.  Pressure   1.00000 Atm.
 Atom     1 has atomic number  1 and mass   1.00783

 Molecular mass:    21.01405 amu.
 Principal axes and moments of inertia in atomic units:
                           1         2         3
     Eigenvalues --     0.00000  19.42249  19.42249
           X            1.00000  -0.00000   0.00000
           Y            0.00000   1.00000   0.00000
           Z            0.00000   0.00000   1.00000
 This molecule is a prolate symmetric top.
 Rotational symmetry number  1.
 Rotational temperature (Kelvin)      4.45947
 Rotational constant (GHZ):          92.920198
    2 imaginary frequencies ignored.
 Zero-point vibrational energy      30006.5 (Joules/Mol)
                                    7.17172 (Kcal/Mol)
 Vibrational temperatures:   1112.23  6105.67
          (Kelvin)

 Zero-point correction=                           0.011429 (Hartree/Particle)
 Thermal correction to Energy=                    0.013876
 Thermal correction to Enthalpy=                  0.014820
 Thermal correction to Gibbs Free Energy=        -0.007518
 Sum of electronic and zero-point Energies=           -100.956244
 Sum of electronic and thermal Energies=              -100.953797
 Sum of electronic and thermal Enthalpies=            -100.952853
 Sum of electronic and thermal Free Energies=         -100.975191

                     E (Thermal)             CV                S
                      KCal/Mol        Cal/Mol-Kelvin    Cal/Mol-Kelvin
 Total                    8.707              5.664             47.014
 Electronic               0.000              0.000              1.377
 Translational            0.889              2.981             35.068
 Rotational               0.592              1.987             10.339
 Vibrational              7.226              0.696              0.230

 Normal termination of Gaussian 16 at Fri Aug 22 15:55:22 2025.
