 Gaussian 16, Revision C.01,
 Gaussian 16:  ES64L-G16RevC.01  3-Jul-2019

 -----------------------------------------
 # sp b3lyp/6-311g** Force nosymm scf=(qc)
 -----------------------------------------

 -------------------
 Title Card Required
 -------------------
 Symbolic Z-matrix:
 Charge =  0 Multiplicity = 2

                          Input orientation:
 ---------------------------------------------------------------------
 Center     Atomic      Atomic             Coordinates (Angstroms)
 Number     Number       Type             X           Y           Z
 ---------------------------------------------------------------------
      1          1           0        0.000000    0.000000    0.000000
      2          1           0       -0.750000    0.000000    0.000000
      3          9           0        0.750000    0.000000    0.000000
 ---------------------------------------------------------------------

 SCF Done:  E(UB3LYP) =  -100.831887366     a.u. after    6 cycles

 Alpha  occ. eigenvalues --  -24.66689  -1.30940  -0.67085  -0.44322  -0.44322
 Alpha  occ. eigenvalues --   -0.31842
 Alpha virt. eigenvalues --    0.16705   0.17991   0.74539   0.86653   0.86653
 Alpha virt. eigenvalues --    0.93445   1.09521   1.09521   1.43332   1.71750
 Alpha virt. eigenvalues --    1.80767   1.80767   2.11311   2.57576   3.76596

  Beta  occ. eigenvalues --  -24.65805  -1.28420  -0.62488  -0.43561  -0.43561
  Beta virt. eigenvalues --   -0.13053   0.17538   0.22474   0.79363   0.88610
  Beta virt. eigenvalues --    0.88610   0.95643   1.14890   1.14890   1.45312
  Beta virt. eigenvalues --    1.78580   1.86242   1.86242   2.17164   2.65519

 Mulliken charges and spin densities:
               1          2
     1  H    0.265056  -0.030689
     2  H   -0.066959   0.868270
     3  F   -0.198097   0.162419
 Sum of Mulliken charges =   0.00000   1.00000

 Dipole moment (field-independent basis, Debye):
    X=             -1.0237    Y=             -0.0000    Z=              0.0000  Tot=              1.0237
 Quadrupole moment (field-independent basis, Debye-Ang):
   XX=             -7.5037   YY=             -6.4645   ZZ=             -6.4645
   XY=             -0.0000   XZ=              0.0000   YZ=             -0.0000

  Exact polarizability:       9.273      -0.000       2.528       0.000       0.000       2.528
 Approx polarizability:       9.582       0.000       2.607      -0.000       0.000       2.607

 ******    2 imaginary frequencies (negative Signs) ******

                      1                      2                      3
                      A                      A                      A
 Frequencies --  -3484.0176             -3484.0176              3344.7629
 Red. masses --      1.0179                 1.0179                 1.0678
 Frc consts  --      7.2801                 7.2801                 7.0387
 IR Inten    --     98.1489                98.1489               175.3850

                      4
                      A
 Frequencies --   7710.8236
 Red. masses --      1.0440
 Frc consts  --     36.5712
 IR Inten    --     37.1906

 - Thermochemistry -
 -------------------
 Temperature   298.150 Kelvin.  Pressure   1.00000 Atm.
 Atom     1 has atomic number  1 and mass   1.00783

 Molecular mass:    21.01405 amu.
 Principal axes and moments of inertia in atomic units:
                           1         2         3
     Eigenvalues --     0.00000   9.24839   9.24839
           X            1.00000  -0.00000   0.00000
           Y            0.00000   1.00000   0.00000
           Z            0.00000   0.00000   1.00000
 This molecule is a prolate symmetric top.
 Rotational symmetry number  1.
 Rotational temperature (Kelvin)      9.36530
 Rotational constant (GHZ):         195.141143
    2 imaginary frequencies ignored.
 Zero-point vibrational energy      66127.1 (Joules/Mol)
                                   15.80475 (Kcal/Mol)
 Vibrational temperatures:   4812.37 11094.16
          (Kelvin)

 Zero-point correction=                           0.025186 (Hartree/Particle)
 Thermal correction to Energy=                    0.027547
 Thermal correction to Enthalpy=                  0.028491
 Thermal correction to Gibbs Free Energy=         0.006963
 Sum of electronic and zero-point Energies=           -100.806701
 Sum of electronic and thermal Energies=              -100.804340
 Sum of electronic and thermal Enthalpies=            -100.803396
 Sum of electronic and thermal Free Energies=         -100.824924

                     E (Thermal)             CV                S
                      KCal/Mol        Cal/Mol-Kelvin    Cal/Mol-Kelvin
 Total                   17.286              4.968             45.310
 Electronic               0.000              0.000              1.377
 Translational            0.889              2.981             35.068
 Rotational               0.592              1.987              8.864
 Vibrational             15.805              0.000              0.000

 Normal termination of Gaussian 16 at Fri Aug 22 15:47:53 2025.
