 Gaussian 16, Revision C.01,
 Gaussian 16:  ES64L-G16RevC.01  3-Jul-2019

 -----------------------------------------
 # sp b3lyp/6-311g** Force nosymm scf=(qc)
 -----------------------------------------

 -------------------
 Title Card Required
 -------------------
 Symbolic Z-matrix:
 Charge =  0 Multiplicity = 2

                          Input orientation:
 ---------------------------------------------------------------------
 Center     Atomic      Atomic             Coordinates (Angstroms)
 Number     Number       Type             X           Y           Z
 ---------------------------------------------------------------------
      1          1           0        0.000000    0.000000    0.000000
      2          1           0       -3.450000    0.000000    0.000000
      3          9           0        3.050000    0.000000    0.000000
 ---------------------------------------------------------------------

 SCF Done:  E(UB3LYP) =  -100.760805223     a.u. after   22 cycles

 Alpha  occ. eigenvalues --  -24.74259  -1.20306  -0.53379  -0.44820  -0.44820
 Alpha  occ. eigenvalues --   -0.32528
 Alpha virt. eigenvalues --   -0.08070   0.24102   0.36113   0.89219   0.92171
 Alpha virt. eigenvalues --    0.92171   1.03626   1.24980   1.24980   1.25170
 Alpha virt. eigenvalues --    1.44007   1.44007   1.44270   2.14911   2.40192

  Beta  occ. eigenvalues --  -24.71219  -1.11593  -0.41777  -0.41777  -0.33616
  Beta virt. eigenvalues --   -0.24873  -0.06647   0.24015   0.37806   0.93636
  Beta virt. eigenvalues --    0.93636   0.97974   1.07401   1.23728   1.23728
  Beta virt. eigenvalues --    1.24115   1.45721   1.45980   1.45980   2.15159

 Mulliken charges and spin densities:
               1          2
     1  H    0.033093  -0.960828
     2  H    0.000472   0.997657
     3  F   -0.033565   0.963171
 Sum of Mulliken charges =  -0.00000   1.00000

 Dipole moment (field-independent basis, Debye):
    X=             -0.5337    Y=              0.0000    Z=             -0.0000  Tot=              0.5337
 Quadrupole moment (field-independent basis, Debye-Ang):
   XX=             -8.1968   YY=             -7.6124   ZZ=             -7.6124
   XY=              0.0000   XZ=             -0.0000   YZ=              0.0000

  Exact polarizability:      31.724       0.000       2.026      -0.000       0.000       2.026
 Approx polarizability:      31.352       0.000       1.927      -0.000      -0.000       1.927

 ******    2 imaginary frequencies (negative Signs) ******

                      1                      2                      3
                      A                      A                      A
 Frequencies --   -364.8490              -123.2540               128.3167
 Red. masses --      1.0436                 1.0683                 1.0195
 Frc consts  --      0.0818                 0.0096                 0.0099
 IR Inten    --     35.5938                 0.9124                 1.0172

                      4
                      A
 Frequencies --    128.3167
 Red. masses --      1.0195
 Frc consts  --      0.0099
 IR Inten    --      1.0172

 - Thermochemistry -
 -------------------
 Temperature   298.150 Kelvin.  Pressure   1.00000 Atm.
 Atom     1 has atomic number  1 and mass   1.00783

 Molecular mass:    21.01405 amu.
 Principal axes and moments of inertia in atomic units:
                           1         2         3
     Eigenvalues --     0.00000 169.79571 169.79571
           X            1.00000  -0.00000   0.00000
           Y            0.00000   1.00000   0.00000
           Z            0.00000   0.00000   1.00000
 This molecule is a prolate symmetric top.
 Rotational symmetry number  1.
 Rotational temperature (Kelvin)      0.51011
 Rotational constant (GHZ):          10.628898
    2 imaginary frequencies ignored.
 Zero-point vibrational energy       1535.0 (Joules/Mol)
                                    0.36688 (Kcal/Mol)
 Warning -- explicit consideration of   2 degrees of freedom as
           vibrations may cause significant error
 Vibrational temperatures:    184.62   184.62
          (Kelvin)

 Zero-point correction=                           0.000585 (Hartree/Particle)
 Thermal correction to Energy=                    0.004309
 Thermal correction to Enthalpy=                  0.005253
 Thermal correction to Gibbs Free Energy=        -0.021846
 Sum of electronic and zero-point Energies=           -100.760221
 Sum of electronic and thermal Energies=              -100.756496
 Sum of electronic and thermal Enthalpies=            -100.755552
 Sum of electronic and thermal Free Energies=         -100.782651

                     E (Thermal)             CV                S
                      KCal/Mol        Cal/Mol-Kelvin    Cal/Mol-Kelvin
 Total                    2.704              8.818             57.035
 Electronic               0.000              0.000              1.377
 Translational            0.889              2.981             35.068
 Rotational               0.592              1.987             14.647
 Vibrational              1.223              3.850              5.942
 Vibration     1          0.611              1.925              2.971
 Vibration     2          0.611              1.925              2.971

 Normal termination of Gaussian 16 at Fri Aug 22 19:45:17 2025.
