 Gaussian 16, Revision C.01,
 Gaussian 16:  ES64L-G16RevC.01  3-Jul-2019

 -----------------------------------------
 # sp b3lyp/6-311g** Force nosymm scf=(qc)
 -----------------------------------------

 -------------------
 Title Card Required
 -------------------
 Symbolic Z-matrix:
 Charge =  0 Multiplicity = 2

                          Input orientation:
 ---------------------------------------------------------------------
 Center     Atomic      Atomic             Coordinates (Angstroms)
 Number     Number       Type             X           Y           Z
 ---------------------------------------------------------------------
      1          1           0        0.000000    0.000000    0.000000
      2          1           0       -0.700000    0.000000    0.000000
      3          9           0        3.100000    0.000000    0.000000
 ---------------------------------------------------------------------

 SCF Done:  E(UB3LYP) =  -100.932929660     a.u. after  108 cycles

 Alpha  occ. eigenvalues --  -24.76550  -1.22364  -0.55558  -0.46821  -0.46708
 Alpha  occ. eigenvalues --   -0.44070
 Alpha virt. eigenvalues --    0.06960   0.19609   0.48509   0.85896   0.90769
 Alpha virt. eigenvalues --    0.93844   1.05053   1.09029   1.09036   1.57929
 Alpha virt. eigenvalues --    1.85933   1.85941   1.91382   2.38428   3.57040

  Beta  occ. eigenvalues --  -24.73389  -1.13278  -0.44342  -0.43539  -0.43377
  Beta virt. eigenvalues --   -0.26183   0.07001   0.19635   0.48610   0.92268
  Beta virt. eigenvalues --    0.95355   0.95617   1.08764   1.09029   1.09035
  Beta virt. eigenvalues --    1.57943   1.85933   1.85940   1.91418   2.38433

 Mulliken charges and spin densities:
               1          2
     1  H   -0.005437  -0.001116
     2  H   -0.002989   0.000027
     3  F    0.008426   1.001090
 Sum of Mulliken charges =   0.00000   1.00000

 Dipole moment (field-independent basis, Debye):
    X=              0.0833    Y=              0.0000    Z=             -0.0000  Tot=              0.0833
 Quadrupole moment (field-independent basis, Debye-Ang):
   XX=             -6.0743   YY=             -6.6953   ZZ=             -6.2189
   XY=             -0.0000   XZ=              0.0000   YZ=             -0.3602

  Exact polarizability:       7.935      -0.000       2.037      -0.000      -0.192       2.291
 Approx polarizability:       8.872      -0.000       2.143       0.000      -0.241       2.462

 ******    2 imaginary frequencies (negative Signs) ******

                      1                      2                      3
                      A                      A                      A
 Frequencies --  -1168.0794             -1166.9238                55.8590
 Red. masses --      1.0089                 1.0089                 1.1085
 Frc consts  --      0.8110                 0.8094                 0.0020
 IR Inten    --      0.0131                 0.0119                 0.2086

                      4
                      A
 Frequencies --   5088.1444
 Red. masses --      1.0078
 Frc consts  --     15.3728
 IR Inten    --      0.2658

 - Thermochemistry -
 -------------------
 Temperature   298.150 Kelvin.  Pressure   1.00000 Atm.
 Atom     1 has atomic number  1 and mass   1.00783

 Molecular mass:    21.01405 amu.
 Principal axes and moments of inertia in atomic units:
                           1         2         3
     Eigenvalues --     0.00000  78.33834  78.33834
           X            1.00000  -0.00000   0.00000
           Y            0.00000   1.00000   0.00000
           Z            0.00000   0.00000   1.00000
 This molecule is a prolate symmetric top.
 Rotational symmetry number  1.
 Rotational temperature (Kelvin)      1.10564
 Rotational constant (GHZ):          23.037777
    2 imaginary frequencies ignored.
 Zero-point vibrational energy      30768.0 (Joules/Mol)
                                    7.35372 (Kcal/Mol)
 Warning -- explicit consideration of   1 degrees of freedom as
           vibrations may cause significant error
 Vibrational temperatures:     80.37  7320.70
          (Kelvin)

 Zero-point correction=                           0.011719 (Hartree/Particle)
 Thermal correction to Energy=                    0.014902
 Thermal correction to Enthalpy=                  0.015846
 Thermal correction to Gibbs Free Energy=        -0.009884
 Sum of electronic and zero-point Energies=           -100.921211
 Sum of electronic and thermal Energies=              -100.918028
 Sum of electronic and thermal Enthalpies=            -100.917083
 Sum of electronic and thermal Free Energies=         -100.942814

                     E (Thermal)             CV                S
                      KCal/Mol        Cal/Mol-Kelvin    Cal/Mol-Kelvin
 Total                    9.351              6.943             54.154
 Electronic               0.000              0.000              1.377
 Translational            0.889              2.981             35.068
 Rotational               0.592              1.987             13.110
 Vibrational              7.870              1.975              4.598
 Vibration     1          0.596              1.975              4.598

 Normal termination of Gaussian 16 at Fri Aug 22 19:47:01 2025.
