 Gaussian 16, Revision C.01,
 Gaussian 16:  ES64L-G16RevC.01  3-Jul-2019

 -----------------------------------------
 # sp b3lyp/6-311g** Force nosymm scf=(qc)
 -----------------------------------------

 -------------------
 Title Card Required
 -------------------
 Symbolic Z-matrix:
 Charge =  0 Multiplicity = 2

                          Input orientation:
 ---------------------------------------------------------------------
 Center     Atomic      Atomic             Coordinates (Angstroms)
 Number     Number       Type             X           Y           Z
 ---------------------------------------------------------------------
      1          1           0        0.000000    0.000000    0.000000
      2          1           0       -0.650000    0.000000    0.000000
      3          9           0        0.900000    0.000000    0.000000
 ---------------------------------------------------------------------

 SCF Done:  E(UB3LYP) =  -100.879070737     a.u. after    6 cycles

 Alpha  occ. eigenvalues --  -24.67153  -1.24246  -0.66713  -0.42760  -0.42760
 Alpha  occ. eigenvalues --   -0.33044
 Alpha virt. eigenvalues --    0.15021   0.17974   0.67382   0.86565   0.86565
 Alpha virt. eigenvalues --    0.93762   1.10931   1.10931   1.45189   1.73469
 Alpha virt. eigenvalues --    1.82858   1.82858   1.94583   2.61731   3.78178

  Beta  occ. eigenvalues --  -24.65707  -1.20510  -0.59754  -0.41473  -0.41473
  Beta virt. eigenvalues --   -0.15201   0.17230   0.19475   0.72430   0.88614
  Beta virt. eigenvalues --    0.88614   0.96637   1.15279   1.15279   1.47361
  Beta virt. eigenvalues --    1.81295   1.87454   1.87454   1.96771   2.68386

 Mulliken charges and spin densities:
               1          2
     1  H    0.277949  -0.022186
     2  H   -0.068500   0.691064
     3  F   -0.209450   0.331121
 Sum of Mulliken charges =   0.00000   1.00000

 Dipole moment (field-independent basis, Debye):
    X=             -1.2361    Y=              0.0000    Z=             -0.0000  Tot=              1.2361
 Quadrupole moment (field-independent basis, Debye-Ang):
   XX=             -7.4407   YY=             -6.4505   ZZ=             -6.4505
   XY=              0.0000   XZ=             -0.0000   YZ=              0.0000

  Exact polarizability:      11.259      -0.000       2.519      -0.000      -0.000       2.519
 Approx polarizability:      12.687       0.000       2.593       0.000      -0.000       2.593

 ******    2 imaginary frequencies (negative Signs) ******

                      1                      2                      3
                      A                      A                      A
 Frequencies --  -3169.8639             -3169.8639              3066.1548
 Red. masses --      1.0145                 1.0145                 1.1060
 Frc consts  --      6.0059                 6.0059                 6.1262
 IR Inten    --     46.8771                46.8771               109.1488

                      4
                      A
 Frequencies --   6013.8089
 Red. masses --      1.0099
 Frc consts  --     21.5198
 IR Inten    --     20.1984

 - Thermochemistry -
 -------------------
 Temperature   298.150 Kelvin.  Pressure   1.00000 Atm.
 Atom     1 has atomic number  1 and mass   1.00783

 Molecular mass:    21.01405 amu.
 Principal axes and moments of inertia in atomic units:
                           1         2         3
     Eigenvalues --     0.00000  10.52574  10.52574
           X            1.00000  -0.00000   0.00000
           Y            0.00000   1.00000   0.00000
           Z            0.00000   0.00000   1.00000
 This molecule is a prolate symmetric top.
 Rotational symmetry number  1.
 Rotational temperature (Kelvin)      8.22877
 Rotational constant (GHZ):         171.459762
    2 imaginary frequencies ignored.
 Zero-point vibrational energy      54310.2 (Joules/Mol)
                                   12.98046 (Kcal/Mol)
 Vibrational temperatures:   4411.51  8652.53
          (Kelvin)

 Zero-point correction=                           0.020686 (Hartree/Particle)
 Thermal correction to Energy=                    0.023046
 Thermal correction to Enthalpy=                  0.023990
 Thermal correction to Gibbs Free Energy=         0.002340
 Sum of electronic and zero-point Energies=           -100.858385
 Sum of electronic and thermal Energies=              -100.856025
 Sum of electronic and thermal Enthalpies=            -100.855080
 Sum of electronic and thermal Free Energies=         -100.876731

                     E (Thermal)             CV                S
                      KCal/Mol        Cal/Mol-Kelvin    Cal/Mol-Kelvin
 Total                   14.462              4.968             45.567
 Electronic               0.000              0.000              1.377
 Translational            0.889              2.981             35.068
 Rotational               0.592              1.987              9.121
 Vibrational             12.980              0.000              0.000

 Normal termination of Gaussian 16 at Fri Aug 22 15:54:52 2025.
