 Gaussian 16, Revision C.01,
 Gaussian 16:  ES64L-G16RevC.01  3-Jul-2019

 -----------------------------------------
 # sp b3lyp/6-311g** Force nosymm scf=(qc)
 -----------------------------------------

 -------------------
 Title Card Required
 -------------------
 Symbolic Z-matrix:
 Charge =  0 Multiplicity = 2

                          Input orientation:
 ---------------------------------------------------------------------
 Center     Atomic      Atomic             Coordinates (Angstroms)
 Number     Number       Type             X           Y           Z
 ---------------------------------------------------------------------
      1          1           0        0.000000    0.000000    0.000000
      2          1           0       -3.350000    0.000000    0.000000
      3          9           0        3.900000    0.000000    0.000000
 ---------------------------------------------------------------------

 SCF Done:  E(UB3LYP) =  -100.758852380     a.u. after   33 cycles

 Alpha  occ. eigenvalues --  -24.75828  -1.21759  -0.54953  -0.46139  -0.46139
 Alpha  occ. eigenvalues --   -0.32286
 Alpha virt. eigenvalues --   -0.06947   0.24539   0.37379   0.86692   0.91203
 Alpha virt. eigenvalues --    0.91203   1.01158   1.25223   1.25223   1.25474
 Alpha virt. eigenvalues --    1.45213   1.45448   1.45448   2.15307   2.40757

  Beta  occ. eigenvalues --  -24.72686  -1.12724  -0.42989  -0.42989  -0.32507
  Beta virt. eigenvalues --   -0.25706  -0.06704   0.24372   0.37724   0.92701
  Beta virt. eigenvalues --    0.92701   0.96041   1.05273   1.24983   1.24983
  Beta virt. eigenvalues --    1.25218   1.45590   1.45816   1.45816   2.15323

 Mulliken charges and spin densities:
               1          2
     1  H    0.003251  -0.993127
     2  H    0.000120   0.996878
     3  F   -0.003371   0.996249
 Sum of Mulliken charges =  -0.00000   1.00000

 Dipole moment (field-independent basis, Debye):
    X=             -0.0700    Y=              0.0000    Z=              0.0000  Tot=              0.0700
 Quadrupole moment (field-independent basis, Debye-Ang):
   XX=             -6.9480   YY=             -7.6264   ZZ=             -7.6264
   XY=              0.0000   XZ=              0.0000   YZ=             -0.0000

  Exact polarizability:      13.449      -0.000       2.032       0.000       0.000       2.032
 Approx polarizability:       9.987       0.000       1.936       0.000       0.000       1.936

 ******    2 imaginary frequencies (negative Signs) ******

                      1                      2                      3
                      A                      A                      A
 Frequencies --   -226.9112               -76.5705                77.5618
 Red. masses --      1.0098                 1.1062                 1.0162
 Frc consts  --      0.0306                 0.0038                 0.0036
 IR Inten    --      1.2282                 0.7650                 0.0098

                      4
                      A
 Frequencies --     77.5618
 Red. masses --      1.0162
 Frc consts  --      0.0036
 IR Inten    --      0.0098

 - Thermochemistry -
 -------------------
 Temperature   298.150 Kelvin.  Pressure   1.00000 Atm.
 Atom     1 has atomic number  1 and mass   1.00783

 Molecular mass:    21.01405 amu.
 Principal axes and moments of inertia in atomic units:
                           1         2         3
     Eigenvalues --     0.00000 222.45488 222.45488
           X            1.00000  -0.00000   0.00000
           Y            0.00000   1.00000   0.00000
           Z            0.00000   0.00000   1.00000
 This molecule is a prolate symmetric top.
 Rotational symmetry number  1.
 Rotational temperature (Kelvin)      0.38936
 Rotational constant (GHZ):           8.112841
    2 imaginary frequencies ignored.
 Zero-point vibrational energy        927.8 (Joules/Mol)
                                    0.22176 (Kcal/Mol)
 Warning -- explicit consideration of   2 degrees of freedom as
           vibrations may cause significant error
 Vibrational temperatures:    111.59   111.59
          (Kelvin)

 Zero-point correction=                           0.000353 (Hartree/Particle)
 Thermal correction to Energy=                    0.004271
 Thermal correction to Enthalpy=                  0.005215
 Thermal correction to Gibbs Free Energy=        -0.023071
 Sum of electronic and zero-point Energies=           -100.758499
 Sum of electronic and thermal Energies=              -100.754582
 Sum of electronic and thermal Enthalpies=            -100.753637
 Sum of electronic and thermal Free Energies=         -100.781923

                     E (Thermal)             CV                S
                      KCal/Mol        Cal/Mol-Kelvin    Cal/Mol-Kelvin
 Total                    2.680              8.896             59.533
 Electronic               0.000              0.000              1.377
 Translational            0.889              2.981             35.068
 Rotational               0.592              1.987             15.184
 Vibrational              1.199              3.928              7.903
 Vibration     1          0.599              1.964              3.952
 Vibration     2          0.599              1.964              3.952

 Normal termination of Gaussian 16 at Sat Aug 23 01:26:52 2025.
