 Gaussian 16, Revision C.01,
 Gaussian 16:  ES64L-G16RevC.01  3-Jul-2019

 -----------------------------------------
 # sp b3lyp/6-311g** Force nosymm scf=(qc)
 -----------------------------------------

 -------------------
 Title Card Required
 -------------------
 Symbolic Z-matrix:
 Charge =  0 Multiplicity = 2

                          Input orientation:
 ---------------------------------------------------------------------
 Center     Atomic      Atomic             Coordinates (Angstroms)
 Number     Number       Type             X           Y           Z
 ---------------------------------------------------------------------
      1          1           0        0.000000    0.000000    0.000000
      2          1           0       -1.600000    0.000000    0.000000
      3          9           0        0.900000    0.000000    0.000000
 ---------------------------------------------------------------------

 SCF Done:  E(UB3LYP) =  -100.970702488     a.u. after    6 cycles

 Alpha  occ. eigenvalues --  -24.63541  -1.18816  -0.54510  -0.39314  -0.39314
 Alpha  occ. eigenvalues --   -0.36664
 Alpha virt. eigenvalues --    0.09613   0.21870   0.38522   0.94473   0.94473
 Alpha virt. eigenvalues --    0.98143   1.17866   1.17866   1.19288   1.40618
 Alpha virt. eigenvalues --    1.40618   1.53172   2.01962   2.25133   2.52381

  Beta  occ. eigenvalues --  -24.63375  -1.18393  -0.53439  -0.39173  -0.39173
  Beta virt. eigenvalues --   -0.14057   0.11607   0.29062   0.41628   0.94575
  Beta virt. eigenvalues --    0.94575   0.98509   1.28188   1.30174   1.30174
  Beta virt. eigenvalues --    1.45759   1.45759   1.57583   2.13910   2.29658

 Mulliken charges and spin densities:
               1          2
     1  H    0.274376   0.007768
     2  H    0.023775   0.952228
     3  F   -0.298151   0.040004
 Sum of Mulliken charges =   0.00000   1.00000

 Dipole moment (field-independent basis, Debye):
    X=             -2.0814    Y=             -0.0000    Z=             -0.0000  Tot=              2.0814
 Quadrupole moment (field-independent basis, Debye-Ang):
   XX=             -7.4636   YY=             -6.7718   ZZ=             -6.7718
   XY=             -0.0000   XZ=             -0.0000   YZ=             -0.0000

  Exact polarizability:      10.251      -0.000       2.524      -0.000      -0.000       2.524
 Approx polarizability:      10.652       0.000       2.523      -0.000       0.000       2.523

 ******    2 imaginary frequencies (negative Signs) ******

                      1                      2                      3
                      A                      A                      A
 Frequencies --   -709.5556              -709.5556               480.0177
 Red. masses --      1.0262                 1.0262                 1.0522
 Frc consts  --      0.3044                 0.3044                 0.1428
 IR Inten    --    123.2689               123.2689                 0.0336

                      4
                      A
 Frequencies --   4342.5401
 Red. masses --      1.0594
 Frc consts  --     11.7703
 IR Inten    --    204.7875

 - Thermochemistry -
 -------------------
 Temperature   298.150 Kelvin.  Pressure   1.00000 Atm.
 Atom     1 has atomic number  1 and mass   1.00783

 Molecular mass:    21.01405 amu.
 Principal axes and moments of inertia in atomic units:
                           1         2         3
     Eigenvalues --     0.00000  23.41366  23.41366
           X            1.00000  -0.00000   0.00000
           Y            0.00000   1.00000   0.00000
           Z            0.00000   0.00000   1.00000
 This molecule is a prolate symmetric top.
 Rotational symmetry number  1.
 Rotational temperature (Kelvin)      3.69929
 Rotational constant (GHZ):          77.080681
    2 imaginary frequencies ignored.
 Zero-point vibrational energy      28845.3 (Joules/Mol)
                                    6.89419 (Kcal/Mol)
 Warning -- explicit consideration of   1 degrees of freedom as
           vibrations may cause significant error
 Vibrational temperatures:    690.64  6247.95
          (Kelvin)

 Zero-point correction=                           0.010987 (Hartree/Particle)
 Thermal correction to Energy=                    0.013586
 Thermal correction to Enthalpy=                  0.014531
 Thermal correction to Gibbs Free Energy=        -0.008212
 Sum of electronic and zero-point Energies=           -100.959716
 Sum of electronic and thermal Energies=              -100.957116
 Sum of electronic and thermal Enthalpies=            -100.956172
 Sum of electronic and thermal Free Energies=         -100.978914

                     E (Thermal)             CV                S
                      KCal/Mol        Cal/Mol-Kelvin    Cal/Mol-Kelvin
 Total                    8.526              6.262             47.865
 Electronic               0.000              0.000              1.377
 Translational            0.889              2.981             35.068
 Rotational               0.592              1.987             10.710
 Vibrational              7.044              1.294              0.710
 Vibration     1          0.836              1.294              0.710

 Normal termination of Gaussian 16 at Fri Aug 22 15:55:33 2025.
