 Gaussian 16, Revision C.01,
 Gaussian 16:  ES64L-G16RevC.01  3-Jul-2019

 -----------------------------------------
 # sp b3lyp/6-311g** Force nosymm scf=(qc)
 -----------------------------------------

 -------------------
 Title Card Required
 -------------------
 Symbolic Z-matrix:
 Charge =  0 Multiplicity = 2

                          Input orientation:
 ---------------------------------------------------------------------
 Center     Atomic      Atomic             Coordinates (Angstroms)
 Number     Number       Type             X           Y           Z
 ---------------------------------------------------------------------
      1          1           0        0.000000    0.000000    0.000000
      2          1           0       -2.850000    0.000000    0.000000
      3          9           0        3.900000    0.000000    0.000000
 ---------------------------------------------------------------------

 SCF Done:  E(UB3LYP) =  -100.760091266     a.u. after   37 cycles

 Alpha  occ. eigenvalues --  -24.75842  -1.21772  -0.54967  -0.46152  -0.46152
 Alpha  occ. eigenvalues --   -0.32392
 Alpha virt. eigenvalues --   -0.08111   0.25302   0.35975   0.86686   0.91193
 Alpha virt. eigenvalues --    0.91193   1.01148   1.25164   1.25164   1.26169
 Alpha virt. eigenvalues --    1.43739   1.43739   1.43957   2.15980   2.38942

  Beta  occ. eigenvalues --  -24.72699  -1.12736  -0.43001  -0.43001  -0.32581
  Beta virt. eigenvalues --   -0.25717  -0.07869   0.25135   0.36301   0.92691
  Beta virt. eigenvalues --    0.92691   0.96043   1.05267   1.24956   1.24956
  Beta virt. eigenvalues --    1.25940   1.44100   1.44100   1.44317   2.16047

 Mulliken charges and spin densities:
               1          2
     1  H    0.002790  -0.984971
     2  H    0.000437   0.988598
     3  F   -0.003227   0.996373
 Sum of Mulliken charges =   0.00000   1.00000

 Dipole moment (field-independent basis, Debye):
    X=             -0.0709    Y=             -0.0000    Z=             -0.0000  Tot=              0.0709
 Quadrupole moment (field-independent basis, Debye-Ang):
   XX=             -6.8596   YY=             -7.6431   ZZ=             -7.6431
   XY=             -0.0000   XZ=             -0.0000   YZ=              0.0000

  Exact polarizability:      16.559      -0.000       2.027      -0.000       0.000       2.027
 Approx polarizability:      12.347      -0.000       1.933      -0.000      -0.000       1.933

 ******    2 imaginary frequencies (negative Signs) ******

                      1                      2                      3
                      A                      A                      A
 Frequencies --   -407.8337               -80.2310               146.2571
 Red. masses --      1.0080                 1.1083                 1.0146
 Frc consts  --      0.0988                 0.0042                 0.0128
 IR Inten    --      0.9714                 0.9747                 0.0065

                      4
                      A
 Frequencies --    146.2571
 Red. masses --      1.0146
 Frc consts  --      0.0128
 IR Inten    --      0.0065

 - Thermochemistry -
 -------------------
 Temperature   298.150 Kelvin.  Pressure   1.00000 Atm.
 Atom     1 has atomic number  1 and mass   1.00783

 Molecular mass:    21.01405 amu.
 Principal axes and moments of inertia in atomic units:
                           1         2         3
     Eigenvalues --     0.00000 199.14324 199.14324
           X            1.00000  -0.00000   0.00000
           Y            0.00000   1.00000   0.00000
           Z            0.00000   0.00000   1.00000
 This molecule is a prolate symmetric top.
 Rotational symmetry number  1.
 Rotational temperature (Kelvin)      0.43493
 Rotational constant (GHZ):           9.062528
    2 imaginary frequencies ignored.
 Zero-point vibrational energy       1749.6 (Joules/Mol)
                                    0.41817 (Kcal/Mol)
 Warning -- explicit consideration of   2 degrees of freedom as
           vibrations may cause significant error
 Vibrational temperatures:    210.43   210.43
          (Kelvin)

 Zero-point correction=                           0.000666 (Hartree/Particle)
 Thermal correction to Energy=                    0.004327
 Thermal correction to Enthalpy=                  0.005271
 Thermal correction to Gibbs Free Energy=        -0.021741
 Sum of electronic and zero-point Energies=           -100.759425
 Sum of electronic and thermal Energies=              -100.755765
 Sum of electronic and thermal Enthalpies=            -100.754821
 Sum of electronic and thermal Free Energies=         -100.781832

                     E (Thermal)             CV                S
                      KCal/Mol        Cal/Mol-Kelvin    Cal/Mol-Kelvin
 Total                    2.715              8.781             56.850
 Electronic               0.000              0.000              1.377
 Translational            0.889              2.981             35.068
 Rotational               0.592              1.987             14.964
 Vibrational              1.234              3.813              5.441
 Vibration     1          0.617              1.907              2.720
 Vibration     2          0.617              1.907              2.720

 Normal termination of Gaussian 16 at Sat Aug 23 01:25:59 2025.
