 Gaussian 16, Revision C.01,
 Gaussian 16:  ES64L-G16RevC.01  3-Jul-2019

 -----------------------------------------
 # sp b3lyp/6-311g** Force nosymm scf=(qc)
 -----------------------------------------

 -------------------
 Title Card Required
 -------------------
 Symbolic Z-matrix:
 Charge =  0 Multiplicity = 2

                          Input orientation:
 ---------------------------------------------------------------------
 Center     Atomic      Atomic             Coordinates (Angstroms)
 Number     Number       Type             X           Y           Z
 ---------------------------------------------------------------------
      1          1           0        0.000000    0.000000    0.000000
      2          1           0       -3.050000    0.000000    0.000000
      3          9           0        0.500000    0.000000    0.000000
 ---------------------------------------------------------------------

 SCF Done:  E(UB3LYP) =  -100.269025372     a.u. after    6 cycles

 Alpha  occ. eigenvalues --  -24.63025  -1.42342  -0.63503  -0.44326  -0.44326
 Alpha  occ. eigenvalues --   -0.33579
 Alpha virt. eigenvalues --    0.08345   0.25572   0.62405   0.89005   0.90163
 Alpha virt. eigenvalues --    0.90163   1.22809   1.23943   1.23943   1.40242
 Alpha virt. eigenvalues --    1.58525   1.58525   2.00383   2.15291   3.76641

  Beta  occ. eigenvalues --  -24.63024  -1.42338  -0.63502  -0.44326  -0.44326
  Beta virt. eigenvalues --   -0.05779   0.09230   0.39301   0.62407   0.89013
  Beta virt. eigenvalues --    0.90157   0.90157   1.36278   1.50021   1.50021
  Beta virt. eigenvalues --    1.52626   1.58528   1.58528   2.00144   2.45297

 Mulliken charges and spin densities:
               1          2
     1  H    0.124109   0.000983
     2  H    0.001759   0.997927
     3  F   -0.125868   0.001090
 Sum of Mulliken charges =   0.00000   1.00000

 Dipole moment (field-independent basis, Debye):
    X=             -1.3151    Y=             -0.0000    Z=             -0.0000  Tot=              1.3151
 Quadrupole moment (field-independent basis, Debye-Ang):
   XX=             -6.5919   YY=             -6.4383   ZZ=             -6.4383
   XY=             -0.0000   XZ=             -0.0000   YZ=              0.0000

  Exact polarizability:       3.492      -0.000       2.420      -0.000      -0.000       2.420
 Approx polarizability:       3.589       0.000       2.398      -0.000      -0.000       2.398

 ******    2 imaginary frequencies (negative Signs) ******

                      1                      2                      3
                      A                      A                      A
 Frequencies --  -9578.2632             -9578.2632                20.5596
 Red. masses --      1.0444                 1.0444                 1.0532
 Frc consts  --     56.4531                56.4531                 0.0003
 IR Inten    --    278.5708               278.5708                 0.0647

                      4
                      A
 Frequencies --  19159.2355
 Red. masses --      1.0583
 Frc consts  --    228.8863
 IR Inten    --     79.3942

 - Thermochemistry -
 -------------------
 Temperature   298.150 Kelvin.  Pressure   1.00000 Atm.
 Atom     1 has atomic number  1 and mass   1.00783

 Molecular mass:    21.01405 amu.
 Principal axes and moments of inertia in atomic units:
                           1         2         3
     Eigenvalues --     0.00000  43.42507  43.42507
           X            1.00000  -0.00000   0.00000
           Y            0.00000   1.00000   0.00000
           Z            0.00000   0.00000   1.00000
 This molecule is a prolate symmetric top.
 Rotational symmetry number  1.
 Rotational temperature (Kelvin)      1.99456
 Rotational constant (GHZ):          41.559889
    2 imaginary frequencies ignored.
 Zero-point vibrational energy     114720.7 (Joules/Mol)
                                   27.41889 (Kcal/Mol)
 Warning -- explicit consideration of   1 degrees of freedom as
           vibrations may cause significant error
 Vibrational temperatures:     29.58 27565.87
          (Kelvin)

 Zero-point correction=                           0.043695 (Hartree/Particle)
 Thermal correction to Energy=                    0.046953
 Thermal correction to Enthalpy=                  0.047898
 Thermal correction to Gibbs Free Energy=         0.021783
 Sum of electronic and zero-point Energies=           -100.225331
 Sum of electronic and thermal Energies=              -100.222072
 Sum of electronic and thermal Enthalpies=            -100.221128
 Sum of electronic and thermal Free Energies=         -100.247242

                     E (Thermal)             CV                S
                      KCal/Mol        Cal/Mol-Kelvin    Cal/Mol-Kelvin
 Total                   29.464              6.954             54.962
 Electronic               0.000              0.000              1.377
 Translational            0.889              2.981             35.068
 Rotational               0.592              1.987             11.937
 Vibrational             27.982              1.986              6.579
 Vibration     1          0.593              1.986              6.579

 Normal termination of Gaussian 16 at Fri Aug 22 15:37:38 2025.
