 Gaussian 16, Revision C.01,
 Gaussian 16:  ES64L-G16RevC.01  3-Jul-2019

 -----------------------------------------
 # sp b3lyp/6-311g** Force nosymm scf=(qc)
 -----------------------------------------

 -------------------
 Title Card Required
 -------------------
 Symbolic Z-matrix:
 Charge =  0 Multiplicity = 2

                          Input orientation:
 ---------------------------------------------------------------------
 Center     Atomic      Atomic             Coordinates (Angstroms)
 Number     Number       Type             X           Y           Z
 ---------------------------------------------------------------------
      1          1           0        0.000000    0.000000    0.000000
      2          1           0       -2.700000    0.000000    0.000000
      3          9           0        2.300000    0.000000    0.000000
 ---------------------------------------------------------------------

 SCF Done:  E(UB3LYP) =  -100.774910414     a.u. after   14 cycles

 Alpha  occ. eigenvalues --  -24.70455  -1.16730  -0.49530  -0.41628  -0.41628
 Alpha  occ. eigenvalues --   -0.33835
 Alpha virt. eigenvalues --   -0.12313   0.24238   0.33027   0.89217   0.94248
 Alpha virt. eigenvalues --    0.94248   1.06576   1.23757   1.23757   1.25756
 Alpha virt. eigenvalues --    1.37701   1.37701   1.47853   2.14788   2.32234

  Beta  occ. eigenvalues --  -24.67744  -1.09054  -0.38934  -0.38934  -0.36201
  Beta virt. eigenvalues --   -0.22500  -0.08965   0.25134   0.35534   0.93956
  Beta virt. eigenvalues --    0.95469   0.95469   1.08843   1.21769   1.21769
  Beta virt. eigenvalues --    1.37010   1.42854   1.42854   1.44012   2.13482

 Mulliken charges and spin densities:
               1          2
     1  H    0.114561  -0.837866
     2  H    0.008463   0.982913
     3  F   -0.123023   0.854953
 Sum of Mulliken charges =  -0.00000   1.00000

 Dipole moment (field-independent basis, Debye):
    X=             -1.5358    Y=              0.0000    Z=              0.0000  Tot=              1.5358
 Quadrupole moment (field-independent basis, Debye-Ang):
   XX=             -9.2939   YY=             -7.5699   ZZ=             -7.5699
   XY=              0.0000   XZ=              0.0000   YZ=             -0.0000

  Exact polarizability:      37.110       0.000       2.027       0.000      -0.000       2.027
 Approx polarizability:      44.126       0.000       1.923       0.000       0.000       1.923

 ******    2 imaginary frequencies (negative Signs) ******

                      1                      2                      3
                      A                      A                      A
 Frequencies --   -844.8244              -306.9541               345.2828
 Red. masses --      1.0395                 1.0726                 1.0200
 Frc consts  --      0.4371                 0.0595                 0.0716
 IR Inten    --     82.5235                10.0125                11.4159

                      4
                      A
 Frequencies --    345.2828
 Red. masses --      1.0200
 Frc consts  --      0.0716
 IR Inten    --     11.4159

 - Thermochemistry -
 -------------------
 Temperature   298.150 Kelvin.  Pressure   1.00000 Atm.
 Atom     1 has atomic number  1 and mass   1.00783

 Molecular mass:    21.01405 amu.
 Principal axes and moments of inertia in atomic units:
                           1         2         3
     Eigenvalues --     0.00000  99.81575  99.81575
           X            1.00000  -0.00000   0.00000
           Y            0.00000   1.00000   0.00000
           Z            0.00000   0.00000   1.00000
 This molecule is a prolate symmetric top.
 Rotational symmetry number  1.
 Rotational temperature (Kelvin)      0.86774
 Rotational constant (GHZ):          18.080726
    2 imaginary frequencies ignored.
 Zero-point vibrational energy       4130.5 (Joules/Mol)
                                    0.98721 (Kcal/Mol)
 Warning -- explicit consideration of   2 degrees of freedom as
           vibrations may cause significant error
 Vibrational temperatures:    496.78   496.78
          (Kelvin)

 Zero-point correction=                           0.001573 (Hartree/Particle)
 Thermal correction to Energy=                    0.004667
 Thermal correction to Enthalpy=                  0.005611
 Thermal correction to Gibbs Free Energy=        -0.019292
 Sum of electronic and zero-point Energies=           -100.773337
 Sum of electronic and thermal Energies=              -100.770244
 Sum of electronic and thermal Enthalpies=            -100.769299
 Sum of electronic and thermal Free Energies=         -100.794202

                     E (Thermal)             CV                S
                      KCal/Mol        Cal/Mol-Kelvin    Cal/Mol-Kelvin
 Total                    2.928              8.138             52.412
 Electronic               0.000              0.000              1.377
 Translational            0.889              2.981             35.068
 Rotational               0.592              1.987             13.591
 Vibrational              1.447              3.170              2.375
 Vibration     1          0.724              1.585              1.188
 Vibration     2          0.724              1.585              1.188

 Normal termination of Gaussian 16 at Fri Aug 22 17:22:33 2025.
