 Gaussian 16, Revision C.01,
 Gaussian 16:  ES64L-G16RevC.01  3-Jul-2019

 -----------------------------------------
 # sp b3lyp/6-311g** Force nosymm scf=(qc)
 -----------------------------------------

 -------------------
 Title Card Required
 -------------------
 Symbolic Z-matrix:
 Charge =  0 Multiplicity = 2

                          Input orientation:
 ---------------------------------------------------------------------
 Center     Atomic      Atomic             Coordinates (Angstroms)
 Number     Number       Type             X           Y           Z
 ---------------------------------------------------------------------
      1          1           0        0.000000    0.000000    0.000000
      2          1           0       -2.650000    0.000000    0.000000
      3          9           0        2.550000    0.000000    0.000000
 ---------------------------------------------------------------------

 SCF Done:  E(UB3LYP) =  -100.768874221     a.u. after   17 cycles

 Alpha  occ. eigenvalues --  -24.72041  -1.18233  -0.51143  -0.42957  -0.42957
 Alpha  occ. eigenvalues --   -0.33493
 Alpha virt. eigenvalues --   -0.11392   0.24706   0.33580   0.90119   0.93463
 Alpha virt. eigenvalues --    0.93463   1.06430   1.24110   1.24110   1.26286
 Alpha virt. eigenvalues --    1.38964   1.38964   1.42757   2.15134   2.34557

  Beta  occ. eigenvalues --  -24.69173  -1.10062  -0.40096  -0.40096  -0.35140
  Beta virt. eigenvalues --   -0.23557  -0.08972   0.25484   0.35328   0.94847
  Beta virt. eigenvalues --    0.94847   0.97317   1.09340   1.22383   1.22383
  Beta virt. eigenvalues --    1.28856   1.42686   1.42686   1.43671   2.14703

 Mulliken charges and spin densities:
               1          2
     1  H    0.075096  -0.887442
     2  H    0.007213   0.980818
     3  F   -0.082308   0.906624
 Sum of Mulliken charges =  -0.00000   1.00000

 Dipole moment (field-independent basis, Debye):
    X=             -1.1608    Y=             -0.0000    Z=              0.0000  Tot=              1.1608
 Quadrupole moment (field-independent basis, Debye-Ang):
   XX=             -8.8708   YY=             -7.6063   ZZ=             -7.6063
   XY=              0.0000   XZ=             -0.0000   YZ=              0.0000

  Exact polarizability:      40.274      -0.000       2.017      -0.000       0.000       2.017
 Approx polarizability:      44.295      -0.000       1.918       0.000      -0.000       1.918

 ******    2 imaginary frequencies (negative Signs) ******

                      1                      2                      3
                      A                      A                      A
 Frequencies --   -716.1252              -298.2305               281.6944
 Red. masses --      1.0263                 1.0870                 1.0184
 Frc consts  --      0.3101                 0.0570                 0.0476
 IR Inten    --     58.8434                15.4114                 4.8232

                      4
                      A
 Frequencies --    281.6944
 Red. masses --      1.0184
 Frc consts  --      0.0476
 IR Inten    --      4.8232

 - Thermochemistry -
 -------------------
 Temperature   298.150 Kelvin.  Pressure   1.00000 Atm.
 Atom     1 has atomic number  1 and mass   1.00783

 Molecular mass:    21.01405 amu.
 Principal axes and moments of inertia in atomic units:
                           1         2         3
     Eigenvalues --     0.00000 110.35254 110.35254
           X            1.00000  -0.00000   0.00000
           Y            0.00000   1.00000   0.00000
           Z            0.00000   0.00000   1.00000
 This molecule is a prolate symmetric top.
 Rotational symmetry number  1.
 Rotational temperature (Kelvin)      0.78488
 Rotational constant (GHZ):          16.354324
    2 imaginary frequencies ignored.
 Zero-point vibrational energy       3369.8 (Joules/Mol)
                                    0.80540 (Kcal/Mol)
 Warning -- explicit consideration of   2 degrees of freedom as
           vibrations may cause significant error
 Vibrational temperatures:    405.30   405.30
          (Kelvin)

 Zero-point correction=                           0.001283 (Hartree/Particle)
 Thermal correction to Energy=                    0.004531
 Thermal correction to Enthalpy=                  0.005475
 Thermal correction to Gibbs Free Energy=        -0.019841
 Sum of electronic and zero-point Energies=           -100.767591
 Sum of electronic and thermal Energies=              -100.764343
 Sum of electronic and thermal Enthalpies=            -100.763399
 Sum of electronic and thermal Free Energies=         -100.788715

                     E (Thermal)             CV                S
                      KCal/Mol        Cal/Mol-Kelvin    Cal/Mol-Kelvin
 Total                    2.843              8.383             53.283
 Electronic               0.000              0.000              1.377
 Translational            0.889              2.981             35.068
 Rotational               0.592              1.987             13.791
 Vibrational              1.362              3.415              3.047
 Vibration     1          0.681              1.708              1.523
 Vibration     2          0.681              1.708              1.523

 Normal termination of Gaussian 16 at Fri Aug 22 17:54:27 2025.
