 Gaussian 16, Revision C.01,
 Gaussian 16:  ES64L-G16RevC.01  3-Jul-2019

 -----------------------------------------
 # sp b3lyp/6-311g** Force nosymm scf=(qc)
 -----------------------------------------

 -------------------
 Title Card Required
 -------------------
 Symbolic Z-matrix:
 Charge =  0 Multiplicity = 2

                          Input orientation:
 ---------------------------------------------------------------------
 Center     Atomic      Atomic             Coordinates (Angstroms)
 Number     Number       Type             X           Y           Z
 ---------------------------------------------------------------------
      1          1           0        0.000000    0.000000    0.000000
      2          1           0       -2.900000    0.000000    0.000000
      3          9           0        3.450000    0.000000    0.000000
 ---------------------------------------------------------------------

 SCF Done:  E(UB3LYP) =  -100.760428155     a.u. after   31 cycles

 Alpha  occ. eigenvalues --  -24.75322  -1.21290  -0.54444  -0.45712  -0.45712
 Alpha  occ. eigenvalues --   -0.32499
 Alpha virt. eigenvalues --   -0.08385   0.25098   0.35515   0.87775   0.91520
 Alpha virt. eigenvalues --    0.91520   1.01944   1.25050   1.25050   1.25979
 Alpha virt. eigenvalues --    1.43347   1.43347   1.43487   2.15819   2.39114

  Beta  occ. eigenvalues --  -24.72213  -1.12357  -0.42596  -0.42596  -0.32950
  Beta virt. eigenvalues --   -0.25455  -0.07785   0.24882   0.36423   0.93007
  Beta virt. eigenvalues --    0.93007   0.96895   1.05951   1.24523   1.24523
  Beta virt. eigenvalues --    1.25397   1.44300   1.44300   1.44417   2.16215

 Mulliken charges and spin densities:
               1          2
     1  H    0.011885  -0.975984
     2  H    0.000944   0.990190
     3  F   -0.012829   0.985794
 Sum of Mulliken charges =   0.00000   1.00000

 Dipole moment (field-independent basis, Debye):
    X=             -0.2406    Y=              0.0000    Z=             -0.0000  Tot=              0.2406
 Quadrupole moment (field-independent basis, Debye-Ang):
   XX=             -7.3577   YY=             -7.6380   ZZ=             -7.6380
   XY=              0.0000   XZ=             -0.0000   YZ=              0.0000

  Exact polarizability:      28.524       0.000       2.028      -0.000      -0.000       2.028
 Approx polarizability:      22.394       0.000       1.930      -0.000      -0.000       1.930

 ******    2 imaginary frequencies (negative Signs) ******

                      1                      2                      3
                      A                      A                      A
 Frequencies --   -405.2318              -139.7358               142.4842
 Red. masses --      1.0102                 1.1057                 1.0160
 Frc consts  --      0.0977                 0.0127                 0.0122
 IR Inten    --      8.5236                 5.2696                 0.1158

                      4
                      A
 Frequencies --    142.4842
 Red. masses --      1.0160
 Frc consts  --      0.0122
 IR Inten    --      0.1158

 - Thermochemistry -
 -------------------
 Temperature   298.150 Kelvin.  Pressure   1.00000 Atm.
 Atom     1 has atomic number  1 and mass   1.00783

 Molecular mass:    21.01405 amu.
 Principal axes and moments of inertia in atomic units:
                           1         2         3
     Eigenvalues --     0.00000 171.38105 171.38105
           X            1.00000  -0.00000   0.00000
           Y            0.00000   1.00000   0.00000
           Z            0.00000   0.00000   1.00000
 This molecule is a prolate symmetric top.
 Rotational symmetry number  1.
 Rotational temperature (Kelvin)      0.50539
 Rotational constant (GHZ):          10.530576
    2 imaginary frequencies ignored.
 Zero-point vibrational energy       1704.5 (Joules/Mol)
                                    0.40738 (Kcal/Mol)
 Warning -- explicit consideration of   2 degrees of freedom as
           vibrations may cause significant error
 Vibrational temperatures:    205.00   205.00
          (Kelvin)

 Zero-point correction=                           0.000649 (Hartree/Particle)
 Thermal correction to Energy=                    0.004323
 Thermal correction to Enthalpy=                  0.005267
 Thermal correction to Gibbs Free Energy=        -0.021650
 Sum of electronic and zero-point Energies=           -100.759779
 Sum of electronic and thermal Energies=              -100.756106
 Sum of electronic and thermal Enthalpies=            -100.755161
 Sum of electronic and thermal Free Energies=         -100.782078

                     E (Thermal)             CV                S
                      KCal/Mol        Cal/Mol-Kelvin    Cal/Mol-Kelvin
 Total                    2.713              8.789             56.652
 Electronic               0.000              0.000              1.377
 Translational            0.889              2.981             35.068
 Rotational               0.592              1.987             14.666
 Vibrational              1.231              3.821              5.540
 Vibration     1          0.616              1.911              2.770
 Vibration     2          0.616              1.911              2.770

 Normal termination of Gaussian 16 at Fri Aug 22 21:42:24 2025.
