 Gaussian 16, Revision C.01,
 Gaussian 16:  ES64L-G16RevC.01  3-Jul-2019

 -----------------------------------------
 # sp b3lyp/6-311g** Force nosymm scf=(qc)
 -----------------------------------------

 -------------------
 Title Card Required
 -------------------
 Symbolic Z-matrix:
 Charge =  0 Multiplicity = 2

                          Input orientation:
 ---------------------------------------------------------------------
 Center     Atomic      Atomic             Coordinates (Angstroms)
 Number     Number       Type             X           Y           Z
 ---------------------------------------------------------------------
      1          1           0        0.000000    0.000000    0.000000
      2          1           0       -0.800000    0.000000    0.000000
      3          9           0        1.250000    0.000000    0.000000
 ---------------------------------------------------------------------

 SCF Done:  E(UB3LYP) =  -100.943722954     a.u. after    6 cycles

 Alpha  occ. eigenvalues --  -24.68070  -1.16810  -0.58091  -0.40854  -0.40854
 Alpha  occ. eigenvalues --   -0.39245
 Alpha virt. eigenvalues --    0.10283   0.19161   0.44143   0.88168   0.88168
 Alpha virt. eigenvalues --    0.97046   1.08646   1.08646   1.41191   1.64224
 Alpha virt. eigenvalues --    1.75564   1.75564   2.07976   2.35496   2.97311

  Beta  occ. eigenvalues --  -24.66000  -1.11380  -0.49823  -0.38906  -0.38906
  Beta virt. eigenvalues --   -0.21402   0.12125   0.20408   0.48130   0.89548
  Beta virt. eigenvalues --    0.89548   1.01565   1.12258   1.12258   1.44775
  Beta virt. eigenvalues --    1.69012   1.78198   1.78198   2.08632   2.41672

 Mulliken charges and spin densities:
               1          2
     1  H    0.229545  -0.044182
     2  H    0.008068   0.449542
     3  F   -0.237614   0.594640
 Sum of Mulliken charges =   0.00000   1.00000

 Dipole moment (field-independent basis, Debye):
    X=             -1.6345    Y=             -0.0000    Z=              0.0000  Tot=              1.6345
 Quadrupole moment (field-independent basis, Debye-Ang):
   XX=             -7.3363   YY=             -6.7135   ZZ=             -6.7135
   XY=             -0.0000   XZ=              0.0000   YZ=             -0.0000

  Exact polarizability:      18.907      -0.000       2.458       0.000      -0.000       2.458
 Approx polarizability:      25.038      -0.000       2.486       0.000      -0.000       2.486

 ******    3 imaginary frequencies (negative Signs) ******

                      1                      2                      3
                      A                      A                      A
 Frequencies --   -740.4871              -740.4871              -686.5575
 Red. masses --      1.0134                 1.0134                 1.1000
 Frc consts  --      0.3274                 0.3274                 0.3055
 IR Inten    --      9.6141                 9.6141               129.1464

                      4
                      A
 Frequencies --   2912.8719
 Red. masses --      1.0150
 Frc consts  --      5.0741
 IR Inten    --    497.8559

 - Thermochemistry -
 -------------------
 Temperature   298.150 Kelvin.  Pressure   1.00000 Atm.
 Atom     1 has atomic number  1 and mass   1.00783

 Molecular mass:    21.01405 amu.
 Principal axes and moments of inertia in atomic units:
                           1         2         3
     Eigenvalues --     0.00000  18.86859  18.86859
           X            1.00000  -0.00000   0.00000
           Y            0.00000   1.00000   0.00000
           Z            0.00000   0.00000   1.00000
 This molecule is a prolate symmetric top.
 Rotational symmetry number  1.
 Rotational temperature (Kelvin)      4.59037
 Rotational constant (GHZ):          95.647885
    3 imaginary frequencies ignored.
 Zero-point vibrational energy      17422.8 (Joules/Mol)
                                    4.16416 (Kcal/Mol)
 Vibrational temperatures:   4190.97
          (Kelvin)

 Zero-point correction=                           0.006636 (Hartree/Particle)
 Thermal correction to Energy=                    0.008996
 Thermal correction to Enthalpy=                  0.009941
 Thermal correction to Gibbs Free Energy=        -0.012261
 Sum of electronic and zero-point Energies=           -100.937087
 Sum of electronic and thermal Energies=              -100.934726
 Sum of electronic and thermal Enthalpies=            -100.933782
 Sum of electronic and thermal Free Energies=         -100.955984

                     E (Thermal)             CV                S
                      KCal/Mol        Cal/Mol-Kelvin    Cal/Mol-Kelvin
 Total                    5.645              4.968             46.727
 Electronic               0.000              0.000              1.377
 Translational            0.889              2.981             35.068
 Rotational               0.592              1.987             10.281
 Vibrational              4.164              0.000              0.000

 Normal termination of Gaussian 16 at Fri Aug 22 16:11:42 2025.
