 Gaussian 16, Revision C.01,
 Gaussian 16:  ES64L-G16RevC.01  3-Jul-2019

 -----------------------------------------
 # sp b3lyp/6-311g** Force nosymm scf=(qc)
 -----------------------------------------

 -------------------
 Title Card Required
 -------------------
 Symbolic Z-matrix:
 Charge =  0 Multiplicity = 2

                          Input orientation:
 ---------------------------------------------------------------------
 Center     Atomic      Atomic             Coordinates (Angstroms)
 Number     Number       Type             X           Y           Z
 ---------------------------------------------------------------------
      1          1           0        0.000000    0.000000    0.000000
      2          1           0       -1.400000    0.000000    0.000000
      3          9           0        2.450000    0.000000    0.000000
 ---------------------------------------------------------------------

 SCF Done:  E(UB3LYP) =  -100.839261643     a.u. after   18 cycles

 Alpha  occ. eigenvalues --  -24.73817  -1.19912  -0.53041  -0.44479  -0.44479
 Alpha  occ. eigenvalues --   -0.36373
 Alpha virt. eigenvalues --   -0.09108   0.23343   0.31899   0.88816   0.92272
 Alpha virt. eigenvalues --    0.92272   1.05190   1.15910   1.15910   1.16122
 Alpha virt. eigenvalues --    1.43306   1.43306   1.88192   2.23533   2.49599

  Beta  occ. eigenvalues --  -24.70847  -1.11424  -0.41512  -0.41512  -0.35929
  Beta virt. eigenvalues --   -0.25228  -0.08290   0.24065   0.32271   0.93684
  Beta virt. eigenvalues --    0.93684   0.96000   1.07712   1.16510   1.16510
  Beta virt. eigenvalues --    1.19346   1.43794   1.43794   1.88867   2.24398

 Mulliken charges and spin densities:
               1          2
     1  H    0.013249  -0.167205
     2  H    0.036503   0.228824
     3  F   -0.049752   0.938381
 Sum of Mulliken charges =  -0.00000   1.00000

 Dipole moment (field-independent basis, Debye):
    X=             -0.8569    Y=             -0.0000    Z=             -0.0000  Tot=              0.8569
 Quadrupole moment (field-independent basis, Debye-Ang):
   XX=             -6.6124   YY=             -7.6154   ZZ=             -7.6154
   XY=              0.0000   XZ=             -0.0000   YZ=              0.0000

  Exact polarizability:      52.638       0.000       2.081       0.000       0.000       2.081
 Approx polarizability:      73.505      -0.000       2.068       0.000      -0.000       2.068

 ******    2 imaginary frequencies (negative Signs) ******

                      1                      2                      3
                      A                      A                      A
 Frequencies --  -1707.2969              -272.6182              1257.8099
 Red. masses --      1.0091                 1.1069                 1.0126
 Frc consts  --      1.7331                 0.0485                 0.9439
 IR Inten    --    746.7480                19.9190                 0.0041

                      4
                      A
 Frequencies --   1257.8099
 Red. masses --      1.0126
 Frc consts  --      0.9439
 IR Inten    --      0.0041

 - Thermochemistry -
 -------------------
 Temperature   298.150 Kelvin.  Pressure   1.00000 Atm.
 Atom     1 has atomic number  1 and mass   1.00783

 Molecular mass:    21.01405 amu.
 Principal axes and moments of inertia in atomic units:
                           1         2         3
     Eigenvalues --     0.00000  68.09858  68.09858
           X            1.00000  -0.00000   0.00000
           Y            0.00000   1.00000   0.00000
           Z            0.00000   0.00000   1.00000
 This molecule is a prolate symmetric top.
 Rotational symmetry number  1.
 Rotational temperature (Kelvin)      1.27189
 Rotational constant (GHZ):          26.501890
    2 imaginary frequencies ignored.
 Zero-point vibrational energy      15046.7 (Joules/Mol)
                                    3.59626 (Kcal/Mol)
 Vibrational temperatures:   1809.71  1809.71
          (Kelvin)

 Zero-point correction=                           0.005731 (Hartree/Particle)
 Thermal correction to Energy=                    0.008118
 Thermal correction to Enthalpy=                  0.009062
 Thermal correction to Gibbs Free Energy=        -0.014382
 Sum of electronic and zero-point Energies=           -100.833531
 Sum of electronic and thermal Energies=              -100.831144
 Sum of electronic and thermal Enthalpies=            -100.830199
 Sum of electronic and thermal Free Energies=         -100.853643

                     E (Thermal)             CV                S
                      KCal/Mol        Cal/Mol-Kelvin    Cal/Mol-Kelvin
 Total                    5.094              5.308             49.342
 Electronic               0.000              0.000              1.377
 Translational            0.889              2.981             35.068
 Rotational               0.592              1.987             12.832
 Vibrational              3.613              0.340              0.065

 Normal termination of Gaussian 16 at Fri Aug 22 17:37:41 2025.
