 Gaussian 16, Revision C.01,
 Gaussian 16:  ES64L-G16RevC.01  3-Jul-2019

 -----------------------------------------
 # sp b3lyp/6-311g** Force nosymm scf=(qc)
 -----------------------------------------

 -------------------
 Title Card Required
 -------------------
 Symbolic Z-matrix:
 Charge =  0 Multiplicity = 2

                          Input orientation:
 ---------------------------------------------------------------------
 Center     Atomic      Atomic             Coordinates (Angstroms)
 Number     Number       Type             X           Y           Z
 ---------------------------------------------------------------------
      1          1           0        0.000000    0.000000    0.000000
      2          1           0       -2.400000    0.000000    0.000000
      3          9           0        1.650000    0.000000    0.000000
 ---------------------------------------------------------------------

 SCF Done:  E(UB3LYP) =  -100.828518958     a.u. after   15 cycles

 Alpha  occ. eigenvalues --  -24.65041  -1.11011  -0.43901  -0.36977  -0.36977
 Alpha  occ. eigenvalues --   -0.35987
 Alpha virt. eigenvalues --   -0.14301   0.23392   0.27921   0.94630   0.94630
 Alpha virt. eigenvalues --    0.98787   1.07035   1.21609   1.21609   1.25314
 Alpha virt. eigenvalues --    1.33113   1.33113   1.74644   2.12313   2.23421

  Beta  occ. eigenvalues --  -24.63745  -1.07504  -0.40355  -0.35727  -0.35727
  Beta virt. eigenvalues --   -0.18333  -0.09514   0.24491   0.34383   0.94355
  Beta virt. eigenvalues --    0.94355   1.00193   1.08233   1.26833   1.26833
  Beta virt. eigenvalues --    1.40498   1.40498   1.42550   1.72027   2.13914

 Mulliken charges and spin densities:
               1          2
     1  H    0.285406  -0.373676
     2  H    0.025539   0.965534
     3  F   -0.310944   0.408142
 Sum of Mulliken charges =   0.00000   1.00000

 Dipole moment (field-independent basis, Debye):
    X=             -2.7946    Y=             -0.0000    Z=              0.0000  Tot=              2.7946
 Quadrupole moment (field-independent basis, Debye-Ang):
   XX=             -9.4017   YY=             -7.4057   ZZ=             -7.4057
   XY=             -0.0000   XZ=              0.0000   YZ=              0.0000

  Exact polarizability:      31.131      -0.000       2.146       0.000      -0.000       2.146
 Approx polarizability:      43.008       0.000       2.055      -0.000      -0.000       2.055

 ******    2 imaginary frequencies (negative Signs) ******

                      1                      2                      3
                      A                      A                      A
 Frequencies --  -1866.4505              -374.3243               826.3673
 Red. masses --      1.0493                 1.0623                 1.0231
 Frc consts  --      2.1538                 0.0877                 0.4116
 IR Inten    --     47.3176                10.2610                66.7170

                      4
                      A
 Frequencies --    826.3673
 Red. masses --      1.0231
 Frc consts  --      0.4116
 IR Inten    --     66.7170

 - Thermochemistry -
 -------------------
 Temperature   298.150 Kelvin.  Pressure   1.00000 Atm.
 Atom     1 has atomic number  1 and mass   1.00783

 Molecular mass:    21.01405 amu.
 Principal axes and moments of inertia in atomic units:
                           1         2         3
     Eigenvalues --     0.00000  63.22304  63.22304
           X            1.00000  -0.00000   0.00000
           Y            0.00000   1.00000   0.00000
           Z            0.00000   0.00000   1.00000
 This molecule is a prolate symmetric top.
 Rotational symmetry number  1.
 Rotational temperature (Kelvin)      1.36997
 Rotational constant (GHZ):          28.545625
    2 imaginary frequencies ignored.
 Zero-point vibrational energy       9885.5 (Joules/Mol)
                                    2.36270 (Kcal/Mol)
 Vibrational temperatures:   1188.96  1188.96
          (Kelvin)

 Zero-point correction=                           0.003765 (Hartree/Particle)
 Thermal correction to Energy=                    0.006268
 Thermal correction to Enthalpy=                  0.007212
 Thermal correction to Gibbs Free Energy=        -0.016308
 Sum of electronic and zero-point Energies=           -100.824754
 Sum of electronic and thermal Energies=              -100.822251
 Sum of electronic and thermal Enthalpies=            -100.821307
 Sum of electronic and thermal Free Energies=         -100.844827

                     E (Thermal)             CV                S
                      KCal/Mol        Cal/Mol-Kelvin    Cal/Mol-Kelvin
 Total                    3.933              6.185             49.503
 Electronic               0.000              0.000              1.377
 Translational            0.889              2.981             35.068
 Rotational               0.592              1.987             12.684
 Vibrational              2.452              1.217              0.374

 Normal termination of Gaussian 16 at Fri Aug 22 16:34:40 2025.
