 Gaussian 16, Revision C.01,
 Gaussian 16:  ES64L-G16RevC.01  3-Jul-2019

 -----------------------------------------
 # sp b3lyp/6-311g** Force nosymm scf=(qc)
 -----------------------------------------

 -------------------
 Title Card Required
 -------------------
 Symbolic Z-matrix:
 Charge =  0 Multiplicity = 2

                          Input orientation:
 ---------------------------------------------------------------------
 Center     Atomic      Atomic             Coordinates (Angstroms)
 Number     Number       Type             X           Y           Z
 ---------------------------------------------------------------------
      1          1           0        0.000000    0.000000    0.000000
      2          1           0       -2.000000    0.000000    0.000000
      3          9           0        2.450000    0.000000    0.000000
 ---------------------------------------------------------------------

 SCF Done:  E(UB3LYP) =  -100.783105149     a.u. after   17 cycles

 Alpha  occ. eigenvalues --  -24.71574  -1.17787  -0.50680  -0.42555  -0.42555
 Alpha  occ. eigenvalues --   -0.34971
 Alpha virt. eigenvalues --   -0.12849   0.24742   0.31975   0.89682   0.93722
 Alpha virt. eigenvalues --    0.93722   1.05690   1.21636   1.22963   1.22963
 Alpha virt. eigenvalues --    1.35016   1.35016   1.49525   2.11205   2.34529

  Beta  occ. eigenvalues --  -24.68750  -1.09753  -0.39741  -0.39741  -0.35342
  Beta virt. eigenvalues --   -0.23425  -0.11640   0.26590   0.31957   0.95070
  Beta virt. eigenvalues --    0.95070   0.96159   1.08611   1.22781   1.22781
  Beta virt. eigenvalues --    1.25150   1.36932   1.36932   1.49941   2.11868

 Mulliken charges and spin densities:
               1          2
     1  H    0.061781  -0.761784
     2  H    0.030566   0.869687
     3  F   -0.092348   0.892097
 Sum of Mulliken charges =  -0.00000   1.00000

 Dipole moment (field-independent basis, Debye):
    X=             -1.4431    Y=              0.0000    Z=              0.0000  Tot=              1.4431
 Quadrupole moment (field-independent basis, Debye-Ang):
   XX=             -8.2291   YY=             -7.6526   ZZ=             -7.6526
   XY=             -0.0000   XZ=             -0.0000   YZ=             -0.0000

  Exact polarizability:      58.521      -0.000       2.011      -0.000      -0.000       2.011
 Approx polarizability:      63.528       0.000       1.931       0.000       0.000       1.931

 ******    2 imaginary frequencies (negative Signs) ******

                      1                      2                      3
                      A                      A                      A
 Frequencies --  -1402.2375              -408.6289               568.2156
 Red. masses --      1.0096                 1.1064                 1.0157
 Frc consts  --      1.1696                 0.1088                 0.1932
 IR Inten    --     79.7453                51.2219                 2.0795

                      4
                      A
 Frequencies --    568.2156
 Red. masses --      1.0157
 Frc consts  --      0.1932
 IR Inten    --      2.0795

 - Thermochemistry -
 -------------------
 Temperature   298.150 Kelvin.  Pressure   1.00000 Atm.
 Atom     1 has atomic number  1 and mass   1.00783

 Molecular mass:    21.01405 amu.
 Principal axes and moments of inertia in atomic units:
                           1         2         3
     Eigenvalues --     0.00000  84.65460  84.65460
           X            1.00000  -0.00000   0.00000
           Y            0.00000   1.00000   0.00000
           Z            0.00000   0.00000   1.00000
 This molecule is a prolate symmetric top.
 Rotational symmetry number  1.
 Rotational temperature (Kelvin)      1.02314
 Rotational constant (GHZ):          21.318879
    2 imaginary frequencies ignored.
 Zero-point vibrational energy       6797.4 (Joules/Mol)
                                    1.62461 (Kcal/Mol)
 Warning -- explicit consideration of   2 degrees of freedom as
           vibrations may cause significant error
 Vibrational temperatures:    817.54   817.54
          (Kelvin)

 Zero-point correction=                           0.002589 (Hartree/Particle)
 Thermal correction to Energy=                    0.005306
 Thermal correction to Enthalpy=                  0.006250
 Thermal correction to Gibbs Free Energy=        -0.017851
 Sum of electronic and zero-point Energies=           -100.780516
 Sum of electronic and thermal Energies=              -100.777799
 Sum of electronic and thermal Enthalpies=            -100.776855
 Sum of electronic and thermal Free Energies=         -100.800956

                     E (Thermal)             CV                S
                      KCal/Mol        Cal/Mol-Kelvin    Cal/Mol-Kelvin
 Total                    3.330              7.168             50.725
 Electronic               0.000              0.000              1.377
 Translational            0.889              2.981             35.068
 Rotational               0.592              1.987             13.264
 Vibrational              1.848              2.200              1.015
 Vibration     1          0.924              1.100              0.508
 Vibration     2          0.924              1.100              0.508

 Normal termination of Gaussian 16 at Fri Aug 22 17:38:19 2025.
