 Gaussian 16, Revision C.01,
 Gaussian 16:  ES64L-G16RevC.01  3-Jul-2019

 -----------------------------------------
 # sp b3lyp/6-311g** Force nosymm scf=(qc)
 -----------------------------------------

 -------------------
 Title Card Required
 -------------------
 Symbolic Z-matrix:
 Charge =  0 Multiplicity = 2

                          Input orientation:
 ---------------------------------------------------------------------
 Center     Atomic      Atomic             Coordinates (Angstroms)
 Number     Number       Type             X           Y           Z
 ---------------------------------------------------------------------
      1          1           0        0.000000    0.000000    0.000000
      2          1           0       -2.950000    0.000000    0.000000
      3          9           0        2.650000    0.000000    0.000000
 ---------------------------------------------------------------------

 SCF Done:  E(UB3LYP) =  -100.765737370     a.u. after   19 cycles

 Alpha  occ. eigenvalues --  -24.72577  -1.18740  -0.51687  -0.43410  -0.43410
 Alpha  occ. eigenvalues --   -0.33067
 Alpha virt. eigenvalues --   -0.10329   0.24382   0.34557   0.90108   0.93159
 Alpha virt. eigenvalues --    0.93159   1.05967   1.24480   1.24480   1.25514
 Alpha virt. eigenvalues --    1.40845   1.40845   1.42813   2.15247   2.36375

  Beta  occ. eigenvalues --  -24.69664  -1.10424  -0.40501  -0.40501  -0.34792
  Beta virt. eigenvalues --   -0.23883  -0.07931   0.24852   0.36506   0.94572
  Beta virt. eigenvalues --    0.94572   0.97798   1.09062   1.22602   1.22602
  Beta virt. eigenvalues --    1.26576   1.44346   1.44346   1.44435   2.14768

 Mulliken charges and spin densities:
               1          2
     1  H    0.067009  -0.913220
     2  H    0.003009   0.991554
     3  F   -0.070018   0.921666
 Sum of Mulliken charges =  -0.00000   1.00000

 Dipole moment (field-independent basis, Debye):
    X=             -0.9907    Y=             -0.0000    Z=             -0.0000  Tot=              0.9907
 Quadrupole moment (field-independent basis, Debye-Ang):
   XX=             -8.8627   YY=             -7.6007   ZZ=             -7.6007
   XY=             -0.0000   XZ=             -0.0000   YZ=              0.0000

  Exact polarizability:      35.808      -0.000       2.020      -0.000      -0.000       2.020
 Approx polarizability:      40.414      -0.000       1.919      -0.000       0.000       1.919

 ******    2 imaginary frequencies (negative Signs) ******

                      1                      2                      3
                      A                      A                      A
 Frequencies --   -581.5748              -219.5539               223.0286
 Red. masses --      1.0376                 1.0746                 1.0193
 Frc consts  --      0.2068                 0.0305                 0.0299
 IR Inten    --     61.9888                 4.8507                 4.0539

                      4
                      A
 Frequencies --    223.0286
 Red. masses --      1.0193
 Frc consts  --      0.0299
 IR Inten    --      4.0539

 - Thermochemistry -
 -------------------
 Temperature   298.150 Kelvin.  Pressure   1.00000 Atm.
 Atom     1 has atomic number  1 and mass   1.00783

 Molecular mass:    21.01405 amu.
 Principal axes and moments of inertia in atomic units:
                           1         2         3
     Eigenvalues --     0.00000 126.39089 126.39089
           X            1.00000  -0.00000   0.00000
           Y            0.00000   1.00000   0.00000
           Z            0.00000   0.00000   1.00000
 This molecule is a prolate symmetric top.
 Rotational symmetry number  1.
 Rotational temperature (Kelvin)      0.68529
 Rotational constant (GHZ):          14.279045
    2 imaginary frequencies ignored.
 Zero-point vibrational energy       2668.0 (Joules/Mol)
                                    0.63767 (Kcal/Mol)
 Warning -- explicit consideration of   2 degrees of freedom as
           vibrations may cause significant error
 Vibrational temperatures:    320.89   320.89
          (Kelvin)

 Zero-point correction=                           0.001016 (Hartree/Particle)
 Thermal correction to Energy=                    0.004428
 Thermal correction to Enthalpy=                  0.005372
 Thermal correction to Gibbs Free Energy=        -0.020463
 Sum of electronic and zero-point Energies=           -100.764721
 Sum of electronic and thermal Energies=              -100.761310
 Sum of electronic and thermal Enthalpies=            -100.760365
 Sum of electronic and thermal Free Energies=         -100.786201

                     E (Thermal)             CV                S
                      KCal/Mol        Cal/Mol-Kelvin    Cal/Mol-Kelvin
 Total                    2.778              8.580             54.375
 Electronic               0.000              0.000              1.377
 Translational            0.889              2.981             35.068
 Rotational               0.592              1.987             14.060
 Vibrational              1.297              3.612              3.869
 Vibration     1          0.649              1.806              1.934
 Vibration     2          0.649              1.806              1.934

 Normal termination of Gaussian 16 at Fri Aug 22 18:15:18 2025.
