 Gaussian 16, Revision C.01,
 Gaussian 16:  ES64L-G16RevC.01  3-Jul-2019

 -----------------------------------------
 # sp b3lyp/6-311g** Force nosymm scf=(qc)
 -----------------------------------------

 -------------------
 Title Card Required
 -------------------
 Symbolic Z-matrix:
 Charge =  0 Multiplicity = 2

                          Input orientation:
 ---------------------------------------------------------------------
 Center     Atomic      Atomic             Coordinates (Angstroms)
 Number     Number       Type             X           Y           Z
 ---------------------------------------------------------------------
      1          1           0        0.000000    0.000000    0.000000
      2          1           0       -1.750000    0.000000    0.000000
      3          9           0        1.400000    0.000000    0.000000
 ---------------------------------------------------------------------

 SCF Done:  E(UB3LYP) =  -100.885533890     a.u. after    9 cycles

 Alpha  occ. eigenvalues --  -24.63603  -1.10244  -0.45937  -0.37665  -0.36177
 Alpha  occ. eigenvalues --   -0.36177
 Alpha virt. eigenvalues --   -0.07473   0.22075   0.27914   0.93883   0.93883
 Alpha virt. eigenvalues --    1.00201   1.03787   1.18280   1.18280   1.35953
 Alpha virt. eigenvalues --    1.35953   1.45104   1.73549   2.13381   2.33529

  Beta  occ. eigenvalues --  -24.62936  -1.08501  -0.42992  -0.35550  -0.35550
  Beta virt. eigenvalues --   -0.18986  -0.03622   0.25956   0.31023   0.93814
  Beta virt. eigenvalues --    0.93814   1.04432   1.07019   1.29178   1.29178
  Beta virt. eigenvalues --    1.38790   1.38790   1.52475   1.76344   2.20597

 Mulliken charges and spin densities:
               1          2
     1  H    0.303313  -0.105995
     2  H    0.056407   0.900306
     3  F   -0.359719   0.205689
 Sum of Mulliken charges =  -0.00000   1.00000

 Dipole moment (field-independent basis, Debye):
    X=             -2.9955    Y=              0.0000    Z=              0.0000  Tot=              2.9955
 Quadrupole moment (field-independent basis, Debye-Ang):
   XX=             -8.4375   YY=             -7.1970   ZZ=             -7.1970
   XY=              0.0000   XZ=              0.0000   YZ=              0.0000

  Exact polarizability:      26.343       0.000       2.305       0.000       0.000       2.305
 Approx polarizability:      36.131       0.000       2.251       0.000       0.000       2.251

 ******    2 imaginary frequencies (negative Signs) ******

                      1                      2                      3
                      A                      A                      A
 Frequencies --  -1940.4586              -330.8737              1057.7508
 Red. masses --      1.0279                 1.0852                 1.0209
 Frc consts  --      2.2804                 0.0700                 0.6730
 IR Inten    --     45.1258                 3.8606                62.8945

                      4
                      A
 Frequencies --   1057.7508
 Red. masses --      1.0209
 Frc consts  --      0.6730
 IR Inten    --     62.8945

 - Thermochemistry -
 -------------------
 Temperature   298.150 Kelvin.  Pressure   1.00000 Atm.
 Atom     1 has atomic number  1 and mass   1.00783

 Molecular mass:    21.01405 amu.
 Principal axes and moments of inertia in atomic units:
                           1         2         3
     Eigenvalues --     0.00000  39.19182  39.19182
           X            1.00000  -0.00000   0.00000
           Y            0.00000   1.00000   0.00000
           Z            0.00000   0.00000   1.00000
 This molecule is a prolate symmetric top.
 Rotational symmetry number  1.
 Rotational temperature (Kelvin)      2.21000
 Rotational constant (GHZ):          46.048921
    2 imaginary frequencies ignored.
 Zero-point vibrational energy      12653.5 (Joules/Mol)
                                    3.02426 (Kcal/Mol)
 Vibrational temperatures:   1521.87  1521.87
          (Kelvin)

 Zero-point correction=                           0.004819 (Hartree/Particle)
 Thermal correction to Energy=                    0.007239
 Thermal correction to Enthalpy=                  0.008183
 Thermal correction to Gibbs Free Energy=        -0.014779
 Sum of electronic and zero-point Energies=           -100.880714
 Sum of electronic and thermal Energies=              -100.878295
 Sum of electronic and thermal Enthalpies=            -100.877351
 Sum of electronic and thermal Free Energies=         -100.900313

                     E (Thermal)             CV                S
                      KCal/Mol        Cal/Mol-Kelvin    Cal/Mol-Kelvin
 Total                    4.542              5.604             48.327
 Electronic               0.000              0.000              1.377
 Translational            0.889              2.981             35.068
 Rotational               0.592              1.987             11.734
 Vibrational              3.061              0.636              0.148

 Normal termination of Gaussian 16 at Fri Aug 22 16:19:59 2025.
