 Gaussian 16, Revision C.01,
 Gaussian 16:  ES64L-G16RevC.01  3-Jul-2019

 -----------------------------------------
 # sp b3lyp/6-311g** Force nosymm scf=(qc)
 -----------------------------------------

 -------------------
 Title Card Required
 -------------------
 Symbolic Z-matrix:
 Charge =  0 Multiplicity = 2

                          Input orientation:
 ---------------------------------------------------------------------
 Center     Atomic      Atomic             Coordinates (Angstroms)
 Number     Number       Type             X           Y           Z
 ---------------------------------------------------------------------
      1          1           0        0.000000    0.000000    0.000000
      2          1           0       -1.700000    0.000000    0.000000
      3          9           0        1.000000    0.000000    0.000000
 ---------------------------------------------------------------------

 SCF Done:  E(UB3LYP) =  -100.967225176     a.u. after    6 cycles

 Alpha  occ. eigenvalues --  -24.63580  -1.15687  -0.52111  -0.38334  -0.38334
 Alpha  occ. eigenvalues --   -0.36825
 Alpha virt. eigenvalues --    0.05997   0.22372   0.33655   0.94381   0.94381
 Alpha virt. eigenvalues --    0.98990   1.13645   1.18861   1.18861   1.38180
 Alpha virt. eigenvalues --    1.38180   1.52339   1.91723   2.29946   2.35073

  Beta  occ. eigenvalues --  -24.63407  -1.15255  -0.51025  -0.38182  -0.38182
  Beta virt. eigenvalues --   -0.14516   0.08490   0.29359   0.36295   0.94440
  Beta virt. eigenvalues --    0.94440   0.99452   1.22966   1.31592   1.31592
  Beta virt. eigenvalues --    1.43049   1.43049   1.56551   2.00829   2.33833

 Mulliken charges and spin densities:
               1          2
     1  H    0.297025   0.002786
     2  H    0.027454   0.951165
     3  F   -0.324479   0.046048
 Sum of Mulliken charges =   0.00000   1.00000

 Dipole moment (field-independent basis, Debye):
    X=             -2.2840    Y=             -0.0000    Z=              0.0000  Tot=              2.2840
 Quadrupole moment (field-independent basis, Debye-Ang):
   XX=             -7.6747   YY=             -6.8762   ZZ=             -6.8762
   XY=             -0.0000   XZ=              0.0000   YZ=             -0.0000

  Exact polarizability:      12.019      -0.000       2.489      -0.000      -0.000       2.489
 Approx polarizability:      13.085      -0.000       2.477      -0.000      -0.000       2.477

                      1                      2                      3
                      A                      A                      A
 Frequencies --    211.9308               899.7311               899.7311
 Red. masses --      1.0498                 1.0255                 1.0255
 Frc consts  --      0.0278                 0.4891                 0.4891
 IR Inten    --      2.6536               115.4676               115.4676

                      4
                      A
 Frequencies --   2896.7547
 Red. masses --      1.0618
 Frc consts  --      5.2496
 IR Inten    --    219.0733

 - Thermochemistry -
 -------------------
 Temperature   298.150 Kelvin.  Pressure   1.00000 Atm.
 Atom     1 has atomic number  1 and mass   1.00783

 Molecular mass:    21.01405 amu.
 Principal axes and moments of inertia in atomic units:
                           1         2         3
     Eigenvalues --     0.00000  27.47279  27.47279
           X            1.00000  -0.00000   0.00000
           Y            0.00000   1.00000   0.00000
           Z            0.00000   0.00000   1.00000
 This molecule is a prolate symmetric top.
 Rotational symmetry number  1.
 Rotational temperature (Kelvin)      3.15272
 Rotational constant (GHZ):          65.691947
 Zero-point vibrational energy      29357.2 (Joules/Mol)
                                    7.01655 (Kcal/Mol)
 Warning -- explicit consideration of   1 degrees of freedom as
           vibrations may cause significant error
 Vibrational temperatures:    304.92  1294.51  1294.51  4167.78
          (Kelvin)

 Zero-point correction=                           0.011182 (Hartree/Particle)
 Thermal correction to Energy=                    0.014192
 Thermal correction to Enthalpy=                  0.015137
 Thermal correction to Gibbs Free Energy=        -0.008515
 Sum of electronic and zero-point Energies=           -100.956044
 Sum of electronic and thermal Energies=              -100.953033
 Sum of electronic and thermal Enthalpies=            -100.952089
 Sum of electronic and thermal Free Energies=         -100.975740

                     E (Thermal)             CV                S
                      KCal/Mol        Cal/Mol-Kelvin    Cal/Mol-Kelvin
 Total                    8.906              7.792             49.780
 Electronic               0.000              0.000              1.377
 Translational            0.889              2.981             35.068
 Rotational               0.592              1.987             11.028
 Vibrational              7.425              2.824              2.307
 Vibration     1          0.643              1.823              2.027

 Normal termination of Gaussian 16 at Fri Aug 22 16:00:20 2025.
