 Gaussian 16, Revision C.01,
 Gaussian 16:  ES64L-G16RevC.01  3-Jul-2019

 -----------------------------------------
 # sp b3lyp/6-311g** Force nosymm scf=(qc)
 -----------------------------------------

 -------------------
 Title Card Required
 -------------------
 Symbolic Z-matrix:
 Charge =  0 Multiplicity = 2

                          Input orientation:
 ---------------------------------------------------------------------
 Center     Atomic      Atomic             Coordinates (Angstroms)
 Number     Number       Type             X           Y           Z
 ---------------------------------------------------------------------
      1          1           0        0.000000    0.000000    0.000000
      2          1           0       -2.250000    0.000000    0.000000
      3          9           0        0.850000    0.000000    0.000000
 ---------------------------------------------------------------------

 SCF Done:  E(UB3LYP) =  -100.965828387     a.u. after    6 cycles

 Alpha  occ. eigenvalues --  -24.63707  -1.20781  -0.54992  -0.40004  -0.40004
 Alpha  occ. eigenvalues --   -0.35202
 Alpha virt. eigenvalues --    0.06484   0.25003   0.42146   0.94456   0.94456
 Alpha virt. eigenvalues --    0.97135   1.16187   1.22333   1.22333   1.38498
 Alpha virt. eigenvalues --    1.38498   1.46057   2.01076   2.15901   2.42968

  Beta  occ. eigenvalues --  -24.63680  -1.20711  -0.54866  -0.39983  -0.39983
  Beta virt. eigenvalues --   -0.10256   0.08218   0.36568   0.42025   0.94459
  Beta virt. eigenvalues --    0.94459   0.97432   1.26024   1.38369   1.38369
  Beta virt. eigenvalues --    1.43199   1.43199   1.57069   2.02407   2.41484

 Mulliken charges and spin densities:
               1          2
     1  H    0.276136   0.005482
     2  H    0.008483   0.987105
     3  F   -0.284618   0.007412
 Sum of Mulliken charges =   0.00000   1.00000

 Dipole moment (field-independent basis, Debye):
    X=             -1.9093    Y=             -0.0000    Z=             -0.0000  Tot=              1.9093
 Quadrupole moment (field-independent basis, Debye-Ang):
   XX=             -7.4805   YY=             -6.8021   ZZ=             -6.8021
   XY=             -0.0000   XZ=             -0.0000   YZ=              0.0000

  Exact polarizability:       7.513       0.000       2.477      -0.000      -0.000       2.477
 Approx polarizability:       7.884       0.000       2.464       0.000      -0.000       2.464

 ******    2 imaginary frequencies (negative Signs) ******

                      1                      2                      3
                      A                      A                      A
 Frequencies --  -1310.3390             -1310.3390               145.2152
 Red. masses --      1.0326                 1.0326                 1.0532
 Frc consts  --      1.0446                 1.0446                 0.0131
 IR Inten    --    166.1265               166.1265                 0.7354

                      4
                      A
 Frequencies --   5302.2664
 Red. masses --      1.0584
 Frc consts  --     17.5317
 IR Inten    --    144.5480

 - Thermochemistry -
 -------------------
 Temperature   298.150 Kelvin.  Pressure   1.00000 Atm.
 Atom     1 has atomic number  1 and mass   1.00783

 Molecular mass:    21.01405 amu.
 Principal axes and moments of inertia in atomic units:
                           1         2         3
     Eigenvalues --     0.00000  34.49366  34.49366
           X            1.00000  -0.00000   0.00000
           Y            0.00000   1.00000   0.00000
           Z            0.00000   0.00000   1.00000
 This molecule is a prolate symmetric top.
 Rotational symmetry number  1.
 Rotational temperature (Kelvin)      2.51101
 Rotational constant (GHZ):          52.320960
    2 imaginary frequencies ignored.
 Zero-point vibrational energy      32583.2 (Joules/Mol)
                                    7.78757 (Kcal/Mol)
 Warning -- explicit consideration of   1 degrees of freedom as
           vibrations may cause significant error
 Vibrational temperatures:    208.93  7628.78
          (Kelvin)

 Zero-point correction=                           0.012410 (Hartree/Particle)
 Thermal correction to Energy=                    0.015422
 Thermal correction to Enthalpy=                  0.016367
 Thermal correction to Gibbs Free Energy=        -0.007703
 Sum of electronic and zero-point Energies=           -100.953418
 Sum of electronic and thermal Energies=              -100.950406
 Sum of electronic and thermal Enthalpies=            -100.949462
 Sum of electronic and thermal Free Energies=         -100.973532

                     E (Thermal)             CV                S
                      KCal/Mol        Cal/Mol-Kelvin    Cal/Mol-Kelvin
 Total                    9.678              6.876             50.659
 Electronic               0.000              0.000              1.377
 Translational            0.889              2.981             35.068
 Rotational               0.592              1.987             11.480
 Vibrational              8.197              1.908              2.734
 Vibration     1          0.617              1.908              2.734

 Normal termination of Gaussian 16 at Fri Aug 22 15:53:37 2025.
