 Gaussian 16, Revision C.01,
 Gaussian 16:  ES64L-G16RevC.01  3-Jul-2019

 -----------------------------------------
 # sp b3lyp/6-311g** Force nosymm scf=(qc)
 -----------------------------------------

 -------------------
 Title Card Required
 -------------------
 Symbolic Z-matrix:
 Charge =  0 Multiplicity = 2

                          Input orientation:
 ---------------------------------------------------------------------
 Center     Atomic      Atomic             Coordinates (Angstroms)
 Number     Number       Type             X           Y           Z
 ---------------------------------------------------------------------
      1          1           0        0.000000    0.000000    0.000000
      2          1           0       -1.150000    0.000000    0.000000
      3          9           0        1.900000    0.000000    0.000000
 ---------------------------------------------------------------------

 SCF Done:  E(UB3LYP) =  -100.888759415     a.u. after   13 cycles

 Alpha  occ. eigenvalues --  -24.71738  -1.18087  -0.51798  -0.42830  -0.42830
 Alpha  occ. eigenvalues --   -0.39942
 Alpha virt. eigenvalues --   -0.03044   0.21364   0.34113   0.90658   0.91905
 Alpha virt. eigenvalues --    0.91905   1.06951   1.09211   1.09211   1.44831
 Alpha virt. eigenvalues --    1.54435   1.54435   2.12186   2.29159   2.54579

  Beta  occ. eigenvalues --  -24.69001  -1.10373  -0.40119  -0.40119  -0.39891
  Beta virt. eigenvalues --   -0.24639  -0.01251   0.22459   0.34706   0.93061
  Beta virt. eigenvalues --    0.93061   0.97262   1.09879   1.10790   1.10790
  Beta virt. eigenvalues --    1.48105   1.55448   1.55448   2.14090   2.30730

 Mulliken charges and spin densities:
               1          2
     1  H    0.057524  -0.114988
     2  H    0.053487   0.259348
     3  F   -0.111011   0.855639
 Sum of Mulliken charges =  -0.00000   1.00000

 Dipole moment (field-independent basis, Debye):
    X=             -1.3160    Y=              0.0000    Z=              0.0000  Tot=              1.3160
 Quadrupole moment (field-independent basis, Debye-Ang):
   XX=             -6.9804   YY=             -7.3067   ZZ=             -7.3067
   XY=              0.0000   XZ=              0.0000   YZ=             -0.0000

  Exact polarizability:      38.307       0.000       2.205       0.000      -0.000       2.205
 Approx polarizability:      55.471      -0.000       2.200      -0.000       0.000       2.200

 ******    1 imaginary frequencies (negative Signs) ******

                      1                      2                      3
                      A                      A                      A
 Frequencies --  -1391.3805               310.1398              1388.7374
 Red. masses --      1.0257                 1.0877                 1.0130
 Frc consts  --      1.1699                 0.0616                 1.1511
 IR Inten    --   1033.2245                22.6377                 0.2420

                      4
                      A
 Frequencies --   1388.7374
 Red. masses --      1.0130
 Frc consts  --      1.1511
 IR Inten    --      0.2420

 - Thermochemistry -
 -------------------
 Temperature   298.150 Kelvin.  Pressure   1.00000 Atm.
 Atom     1 has atomic number  1 and mass   1.00783

 Molecular mass:    21.01405 amu.
 Principal axes and moments of inertia in atomic units:
                           1         2         3
     Eigenvalues --     0.00000  42.24290  42.24290
           X            1.00000  -0.00000   0.00000
           Y            0.00000   1.00000   0.00000
           Z            0.00000   0.00000   1.00000
 This molecule is a prolate symmetric top.
 Rotational symmetry number  1.
 Rotational temperature (Kelvin)      2.05038
 Rotational constant (GHZ):          42.722951
    1 imaginary frequencies ignored.
 Zero-point vibrational energy      18468.0 (Joules/Mol)
                                    4.41397 (Kcal/Mol)
 Warning -- explicit consideration of   1 degrees of freedom as
           vibrations may cause significant error
 Vibrational temperatures:    446.22  1998.08  1998.08
          (Kelvin)

 Zero-point correction=                           0.007034 (Hartree/Particle)
 Thermal correction to Energy=                    0.009818
 Thermal correction to Enthalpy=                  0.010762
 Thermal correction to Gibbs Free Energy=        -0.012865
 Sum of electronic and zero-point Energies=           -100.881725
 Sum of electronic and thermal Energies=              -100.878942
 Sum of electronic and thermal Enthalpies=            -100.877997
 Sum of electronic and thermal Free Energies=         -100.901625

                     E (Thermal)             CV                S
                      KCal/Mol        Cal/Mol-Kelvin    Cal/Mol-Kelvin
 Total                    6.161              6.842             49.727
 Electronic               0.000              0.000              1.377
 Translational            0.889              2.981             35.068
 Rotational               0.592              1.987             11.883
 Vibrational              4.680              1.874              1.399
 Vibration     1          0.699              1.654              1.362

 Normal termination of Gaussian 16 at Fri Aug 22 16:49:13 2025.
