 Gaussian 16, Revision C.01,
 Gaussian 16:  ES64L-G16RevC.01  3-Jul-2019

 -----------------------------------------
 # sp b3lyp/6-311g** Force nosymm scf=(qc)
 -----------------------------------------

 -------------------
 Title Card Required
 -------------------
 Symbolic Z-matrix:
 Charge =  0 Multiplicity = 2

                          Input orientation:
 ---------------------------------------------------------------------
 Center     Atomic      Atomic             Coordinates (Angstroms)
 Number     Number       Type             X           Y           Z
 ---------------------------------------------------------------------
      1          1           0        0.000000    0.000000    0.000000
      2          1           0       -3.450000    0.000000    0.000000
      3          9           0        1.300000    0.000000    0.000000
 ---------------------------------------------------------------------

 SCF Done:  E(UB3LYP) =  -100.901271261     a.u. after    7 cycles

 Alpha  occ. eigenvalues --  -24.64364  -1.11108  -0.46057  -0.37064  -0.37064
 Alpha  occ. eigenvalues --   -0.33951
 Alpha virt. eigenvalues --   -0.08912   0.21496   0.28475   0.93009   0.93009
 Alpha virt. eigenvalues --    1.02063   1.21501   1.23565   1.23565   1.23654
 Alpha virt. eigenvalues --    1.33804   1.33804   1.70632   2.13724   2.24733

  Beta  occ. eigenvalues --  -24.64357  -1.11089  -0.46037  -0.37057  -0.37057
  Beta virt. eigenvalues --   -0.09776  -0.05816   0.25157   0.38367   0.93008
  Beta virt. eigenvalues --    0.93008   1.02084   1.21593   1.33783   1.33783
  Beta virt. eigenvalues --    1.46166   1.46655   1.46655   1.70666   2.24398

 Mulliken charges and spin densities:
               1          2
     1  H    0.357730  -0.000584
     2  H    0.001614   0.998236
     3  F   -0.359344   0.002348
 Sum of Mulliken charges =   0.00000   1.00000

 Dipole moment (field-independent basis, Debye):
    X=             -2.4152    Y=              0.0000    Z=             -0.0000  Tot=              2.4152
 Quadrupole moment (field-independent basis, Debye-Ang):
   XX=             -9.1848   YY=             -7.1997   ZZ=             -7.1997
   XY=              0.0000   XZ=             -0.0000   YZ=             -0.0000

  Exact polarizability:      11.462      -0.000       2.280       0.000      -0.000       2.280
 Approx polarizability:      17.580      -0.000       2.224      -0.000       0.000       2.224

 ******    2 imaginary frequencies (negative Signs) ******

                      1                      2                      3
                      A                      A                      A
 Frequencies --   -611.0972               -68.7466              1159.5985
 Red. masses --      1.0560                 1.0555                 1.0326
 Frc consts  --      0.2324                 0.0029                 0.8181
 IR Inten    --     60.4169                 0.0481               135.5622

                      4
                      A
 Frequencies --   1159.5985
 Red. masses --      1.0326
 Frc consts  --      0.8181
 IR Inten    --    135.5622

 - Thermochemistry -
 -------------------
 Temperature   298.150 Kelvin.  Pressure   1.00000 Atm.
 Atom     1 has atomic number  1 and mass   1.00783

 Molecular mass:    21.01405 amu.
 Principal axes and moments of inertia in atomic units:
                           1         2         3
     Eigenvalues --     0.00000  80.96711  80.96711
           X            1.00000  -0.00000   0.00000
           Y            0.00000   1.00000   0.00000
           Z            0.00000   0.00000   1.00000
 This molecule is a prolate symmetric top.
 Rotational symmetry number  1.
 Rotational temperature (Kelvin)      1.06974
 Rotational constant (GHZ):          22.289806
    2 imaginary frequencies ignored.
 Zero-point vibrational energy      13871.9 (Joules/Mol)
                                    3.31546 (Kcal/Mol)
 Vibrational temperatures:   1668.40  1668.40
          (Kelvin)

 Zero-point correction=                           0.005284 (Hartree/Particle)
 Thermal correction to Energy=                    0.007683
 Thermal correction to Enthalpy=                  0.008628
 Thermal correction to Gibbs Free Energy=        -0.014995
 Sum of electronic and zero-point Energies=           -100.895988
 Sum of electronic and thermal Energies=              -100.893588
 Sum of electronic and thermal Enthalpies=            -100.892644
 Sum of electronic and thermal Free Energies=         -100.916267

                     E (Thermal)             CV                S
                      KCal/Mol        Cal/Mol-Kelvin    Cal/Mol-Kelvin
 Total                    4.821              5.434             49.719
 Electronic               0.000              0.000              1.377
 Translational            0.889              2.981             35.068
 Rotational               0.592              1.987             13.176
 Vibrational              3.340              0.466              0.098

 Normal termination of Gaussian 16 at Fri Aug 22 16:16:02 2025.
