 Gaussian 16, Revision C.01,
 Gaussian 16:  ES64L-G16RevC.01  3-Jul-2019

 -----------------------------------------
 # sp b3lyp/6-311g** Force nosymm scf=(qc)
 -----------------------------------------

 -------------------
 Title Card Required
 -------------------
 Symbolic Z-matrix:
 Charge =  0 Multiplicity = 2

                          Input orientation:
 ---------------------------------------------------------------------
 Center     Atomic      Atomic             Coordinates (Angstroms)
 Number     Number       Type             X           Y           Z
 ---------------------------------------------------------------------
      1          1           0        0.000000    0.000000    0.000000
      2          1           0       -3.250000    0.000000    0.000000
      3          9           0        2.750000    0.000000    0.000000
 ---------------------------------------------------------------------

 SCF Done:  E(UB3LYP) =  -100.763687797     a.u. after   19 cycles

 Alpha  occ. eigenvalues --  -24.73059  -1.19191  -0.52173  -0.43815  -0.43815
 Alpha  occ. eigenvalues --   -0.32797
 Alpha virt. eigenvalues --   -0.09407   0.24054   0.35410   0.89993   0.92882
 Alpha virt. eigenvalues --    0.92882   1.05390   1.24723   1.24723   1.25132
 Alpha virt. eigenvalues --    1.42280   1.42280   1.43259   2.15001   2.37856

  Beta  occ. eigenvalues --  -24.70107  -1.10754  -0.40865  -0.40865  -0.34451
  Beta virt. eigenvalues --   -0.24173  -0.07136   0.24311   0.37411   0.94314
  Beta virt. eigenvalues --    0.94314   0.98075   1.08702   1.22885   1.22885
  Beta virt. eigenvalues --    1.25125   1.45206   1.45438   1.45438   2.14629

 Mulliken charges and spin densities:
               1          2
     1  H    0.057930  -0.930584
     2  H    0.001229   0.996139
     3  F   -0.059158   0.934445
 Sum of Mulliken charges =  -0.00000   1.00000

 Dipole moment (field-independent basis, Debye):
    X=             -0.8524    Y=             -0.0000    Z=              0.0000  Tot=              0.8524
 Quadrupole moment (field-independent basis, Debye-Ang):
   XX=             -8.7663   YY=             -7.5996   ZZ=             -7.5996
   XY=             -0.0000   XZ=              0.0000   YZ=              0.0000

  Exact polarizability:      33.471      -0.000       2.022       0.000       0.000       2.022
 Approx polarizability:      37.645      -0.000       1.922       0.000      -0.000       1.922

 ******    2 imaginary frequencies (negative Signs) ******

                      1                      2                      3
                      A                      A                      A
 Frequencies --   -497.7850              -157.8469               185.1109
 Red. masses --      1.0457                 1.0661                 1.0201
 Frc consts  --      0.1527                 0.0156                 0.0206
 IR Inten    --     57.6509                 1.3702                 3.1212

                      4
                      A
 Frequencies --    185.1109
 Red. masses --      1.0201
 Frc consts  --      0.0206
 IR Inten    --      3.1212

 - Thermochemistry -
 -------------------
 Temperature   298.150 Kelvin.  Pressure   1.00000 Atm.
 Atom     1 has atomic number  1 and mass   1.00783

 Molecular mass:    21.01405 amu.
 Principal axes and moments of inertia in atomic units:
                           1         2         3
     Eigenvalues --     0.00000 143.56659 143.56659
           X            1.00000  -0.00000   0.00000
           Y            0.00000   1.00000   0.00000
           Z            0.00000   0.00000   1.00000
 This molecule is a prolate symmetric top.
 Rotational symmetry number  1.
 Rotational temperature (Kelvin)      0.60330
 Rotational constant (GHZ):          12.570760
    2 imaginary frequencies ignored.
 Zero-point vibrational energy       2214.4 (Joules/Mol)
                                    0.52926 (Kcal/Mol)
 Warning -- explicit consideration of   2 degrees of freedom as
           vibrations may cause significant error
 Vibrational temperatures:    266.33   266.33
          (Kelvin)

 Zero-point correction=                           0.000843 (Hartree/Particle)
 Thermal correction to Energy=                    0.004373
 Thermal correction to Enthalpy=                  0.005317
 Thermal correction to Gibbs Free Energy=        -0.020963
 Sum of electronic and zero-point Energies=           -100.762844
 Sum of electronic and thermal Energies=              -100.759315
 Sum of electronic and thermal Enthalpies=            -100.758371
 Sum of electronic and thermal Free Energies=         -100.784651

                     E (Thermal)             CV                S
                      KCal/Mol        Cal/Mol-Kelvin    Cal/Mol-Kelvin
 Total                    2.744              8.688             55.312
 Electronic               0.000              0.000              1.377
 Translational            0.889              2.981             35.068
 Rotational               0.592              1.987             14.314
 Vibrational              1.263              3.720              4.552
 Vibration     1          0.631              1.860              2.276
 Vibration     2          0.631              1.860              2.276

 Normal termination of Gaussian 16 at Fri Aug 22 18:34:55 2025.
