 Gaussian 16, Revision C.01,
 Gaussian 16:  ES64L-G16RevC.01  3-Jul-2019

 -----------------------------------------
 # sp b3lyp/6-311g** Force nosymm scf=(qc)
 -----------------------------------------

 -------------------
 Title Card Required
 -------------------
 Symbolic Z-matrix:
 Charge =  0 Multiplicity = 2

                          Input orientation:
 ---------------------------------------------------------------------
 Center     Atomic      Atomic             Coordinates (Angstroms)
 Number     Number       Type             X           Y           Z
 ---------------------------------------------------------------------
      1          1           0        0.000000    0.000000    0.000000
      2          1           0       -2.350000    0.000000    0.000000
      3          9           0        3.300000    0.000000    0.000000
 ---------------------------------------------------------------------

 SCF Done:  E(UB3LYP) =  -100.765420705     a.u. after   26 cycles

 Alpha  occ. eigenvalues --  -24.75084  -1.21068  -0.54204  -0.45512  -0.45512
 Alpha  occ. eigenvalues --   -0.32926
 Alpha virt. eigenvalues --   -0.10318   0.25700   0.33521   0.88339   0.91665
 Alpha virt. eigenvalues --    0.91665   1.02421   1.24805   1.24805   1.25768
 Alpha virt. eigenvalues --    1.39880   1.39880   1.43040   2.14938   2.35905

  Beta  occ. eigenvalues --  -24.71992  -1.12188  -0.42414  -0.42414  -0.33269
  Beta virt. eigenvalues --   -0.25346  -0.09681   0.25613   0.34381   0.93147
  Beta virt. eigenvalues --    0.93147   0.97381   1.06412   1.24377   1.24377
  Beta virt. eigenvalues --    1.25260   1.40877   1.40877   1.44003   2.15800

 Mulliken charges and spin densities:
               1          2
     1  H    0.012863  -0.933558
     2  H    0.004728   0.953308
     3  F   -0.017592   0.980250
 Sum of Mulliken charges =   0.00000   1.00000

 Dipole moment (field-independent basis, Debye):
    X=             -0.3508    Y=             -0.0000    Z=              0.0000  Tot=              0.3508
 Quadrupole moment (field-independent basis, Debye-Ang):
   XX=             -7.2824   YY=             -7.6767   ZZ=             -7.6767
   XY=             -0.0000   XZ=              0.0000   YZ=             -0.0000

  Exact polarizability:      42.563      -0.000       2.016       0.000       0.000       2.016
 Approx polarizability:      33.643      -0.000       1.926       0.000      -0.000       1.926

 ******    2 imaginary frequencies (negative Signs) ******

                      1                      2                      3
                      A                      A                      A
 Frequencies --   -834.9170              -177.5341               313.3434
 Red. masses --      1.0081                 1.1082                 1.0144
 Frc consts  --      0.4140                 0.0206                 0.0587
 IR Inten    --     11.7569                12.2467                 0.1044

                      4
                      A
 Frequencies --    313.3434
 Red. masses --      1.0144
 Frc consts  --      0.0587
 IR Inten    --      0.1044

 - Thermochemistry -
 -------------------
 Temperature   298.150 Kelvin.  Pressure   1.00000 Atm.
 Atom     1 has atomic number  1 and mass   1.00783

 Molecular mass:    21.01405 amu.
 Principal axes and moments of inertia in atomic units:
                           1         2         3
     Eigenvalues --     0.00000 140.25631 140.25631
           X            1.00000  -0.00000   0.00000
           Y            0.00000   1.00000   0.00000
           Z            0.00000   0.00000   1.00000
 This molecule is a prolate symmetric top.
 Rotational symmetry number  1.
 Rotational temperature (Kelvin)      0.61754
 Rotational constant (GHZ):          12.867451
    2 imaginary frequencies ignored.
 Zero-point vibrational energy       3748.4 (Joules/Mol)
                                    0.89589 (Kcal/Mol)
 Warning -- explicit consideration of   2 degrees of freedom as
           vibrations may cause significant error
 Vibrational temperatures:    450.83   450.83
          (Kelvin)

 Zero-point correction=                           0.001428 (Hartree/Particle)
 Thermal correction to Energy=                    0.004596
 Thermal correction to Enthalpy=                  0.005540
 Thermal correction to Gibbs Free Energy=        -0.019833
 Sum of electronic and zero-point Energies=           -100.763993
 Sum of electronic and thermal Energies=              -100.760825
 Sum of electronic and thermal Enthalpies=            -100.759881
 Sum of electronic and thermal Free Energies=         -100.785254

                     E (Thermal)             CV                S
                      KCal/Mol        Cal/Mol-Kelvin    Cal/Mol-Kelvin
 Total                    2.884              8.264             53.402
 Electronic               0.000              0.000              1.377
 Translational            0.889              2.981             35.068
 Rotational               0.592              1.987             14.267
 Vibrational              1.403              3.296              2.689
 Vibration     1          0.701              1.648              1.345
 Vibration     2          0.701              1.648              1.345

 Normal termination of Gaussian 16 at Fri Aug 22 20:48:39 2025.
