 Gaussian 16, Revision C.01,
 Gaussian 16:  ES64L-G16RevC.01  3-Jul-2019

 -----------------------------------------
 # sp b3lyp/6-311g** Force nosymm scf=(qc)
 -----------------------------------------

 -------------------
 Title Card Required
 -------------------
 Symbolic Z-matrix:
 Charge =  0 Multiplicity = 2

                          Input orientation:
 ---------------------------------------------------------------------
 Center     Atomic      Atomic             Coordinates (Angstroms)
 Number     Number       Type             X           Y           Z
 ---------------------------------------------------------------------
      1          1           0        0.000000    0.000000    0.000000
      2          1           0       -1.400000    0.000000    0.000000
      3          9           0        0.750000    0.000000    0.000000
 ---------------------------------------------------------------------

 SCF Done:  E(UB3LYP) =  -100.914731860     a.u. after    6 cycles

 Alpha  occ. eigenvalues --  -24.63453  -1.25785  -0.58701  -0.41263  -0.41263
 Alpha  occ. eigenvalues --   -0.36186
 Alpha virt. eigenvalues --    0.13582   0.21022   0.50984   0.93331   0.93331
 Alpha virt. eigenvalues --    0.95696   1.15016   1.15016   1.36219   1.48791
 Alpha virt. eigenvalues --    1.48791   1.58175   2.03713   2.19638   3.06573

  Beta  occ. eigenvalues --  -24.63267  -1.25272  -0.57529  -0.41113  -0.41113
  Beta virt. eigenvalues --   -0.13404   0.14866   0.28198   0.55544   0.93618
  Beta virt. eigenvalues --    0.93618   0.96099   1.26460   1.26460   1.41021
  Beta virt. eigenvalues --    1.54148   1.54148   1.66471   2.04306   2.39944

 Mulliken charges and spin densities:
               1          2
     1  H    0.251979   0.011846
     2  H    0.014676   0.954226
     3  F   -0.266655   0.033928
 Sum of Mulliken charges =   0.00000   1.00000

 Dipole moment (field-independent basis, Debye):
    X=             -1.7176    Y=             -0.0000    Z=             -0.0000  Tot=              1.7176
 Quadrupole moment (field-independent basis, Debye-Ang):
   XX=             -7.2201   YY=             -6.6035   ZZ=             -6.6035
   XY=             -0.0000   XZ=              0.0000   YZ=              0.0000

  Exact polarizability:       8.182       0.000       2.554       0.000       0.000       2.554
 Approx polarizability:       8.084      -0.000       2.569       0.000       0.000       2.569

 ******    2 imaginary frequencies (negative Signs) ******

                      1                      2                      3
                      A                      A                      A
 Frequencies --  -2659.8343             -2659.8343               926.2949
 Red. masses --      1.0269                 1.0269                 1.0535
 Frc consts  --      4.2806                 4.2806                 0.5326
 IR Inten    --    135.3838               135.3838                 6.2443

                      4
                      A
 Frequencies --   7536.1331
 Red. masses --      1.0580
 Frc consts  --     35.4039
 IR Inten    --    154.4332

 - Thermochemistry -
 -------------------
 Temperature   298.150 Kelvin.  Pressure   1.00000 Atm.
 Atom     1 has atomic number  1 and mass   1.00783

 Molecular mass:    21.01405 amu.
 Principal axes and moments of inertia in atomic units:
                           1         2         3
     Eigenvalues --     0.00000  17.20924  17.20924
           X            1.00000  -0.00000   0.00000
           Y            0.00000   1.00000   0.00000
           Z            0.00000   0.00000   1.00000
 This molecule is a prolate symmetric top.
 Rotational symmetry number  1.
 Rotational temperature (Kelvin)      5.03299
 Rotational constant (GHZ):         104.870506
    2 imaginary frequencies ignored.
 Zero-point vibrational energy      50616.6 (Joules/Mol)
                                   12.09765 (Kcal/Mol)
 Vibrational temperatures:   1332.73 10842.81
          (Kelvin)

 Zero-point correction=                           0.019279 (Hartree/Particle)
 Thermal correction to Energy=                    0.021688
 Thermal correction to Enthalpy=                  0.022632
 Thermal correction to Gibbs Free Energy=         0.000458
 Sum of electronic and zero-point Energies=           -100.895453
 Sum of electronic and thermal Energies=              -100.893044
 Sum of electronic and thermal Enthalpies=            -100.892100
 Sum of electronic and thermal Free Energies=         -100.914274

                     E (Thermal)             CV                S
                      KCal/Mol        Cal/Mol-Kelvin    Cal/Mol-Kelvin
 Total                   13.610              5.433             46.669
 Electronic               0.000              0.000              1.377
 Translational            0.889              2.981             35.068
 Rotational               0.592              1.987             10.098
 Vibrational             12.128              0.465              0.126

 Normal termination of Gaussian 16 at Fri Aug 22 15:48:20 2025.
