 Gaussian 16, Revision C.01,
 Gaussian 16:  ES64L-G16RevC.01  3-Jul-2019

 -----------------------------------------
 # sp b3lyp/6-311g** Force nosymm scf=(qc)
 -----------------------------------------

 -------------------
 Title Card Required
 -------------------
 Symbolic Z-matrix:
 Charge =  0 Multiplicity = 2

                          Input orientation:
 ---------------------------------------------------------------------
 Center     Atomic      Atomic             Coordinates (Angstroms)
 Number     Number       Type             X           Y           Z
 ---------------------------------------------------------------------
      1          1           0        0.000000    0.000000    0.000000
      2          1           0       -1.700000    0.000000    0.000000
      3          9           0        3.750000    0.000000    0.000000
 ---------------------------------------------------------------------

 SCF Done:  E(UB3LYP) =  -100.794815937     a.u. after   72 cycles

 Alpha  occ. eigenvalues --  -24.76232  -1.22129  -0.55332  -0.46508  -0.46488
 Alpha  occ. eigenvalues --   -0.33061
 Alpha virt. eigenvalues --   -0.10544   0.25743   0.30977   0.86038   0.90916
 Alpha virt. eigenvalues --    0.91518   1.00986   1.07654   1.23855   1.23856
 Alpha virt. eigenvalues --    1.38295   1.38298   1.67703   2.16934   2.41547

  Beta  occ. eigenvalues --  -24.73078  -1.13057  -0.43350  -0.43325  -0.33050
  Beta virt. eigenvalues --   -0.25982  -0.10579   0.25722   0.31026   0.92417
  Beta virt. eigenvalues --    0.92977   0.95506   1.05110   1.07647   1.23851
  Beta virt. eigenvalues --    1.23854   1.38283   1.38285   1.67723   2.17104

 Mulliken charges and spin densities:
               1          2
     1  H    0.000734  -0.612032
     2  H   -0.001985   0.612024
     3  F    0.001251   1.000008
 Sum of Mulliken charges =  -0.00000   1.00000

 Dipole moment (field-independent basis, Debye):
    X=              0.0299    Y=              0.0000    Z=             -0.0000  Tot=              0.0299
 Quadrupole moment (field-independent basis, Debye-Ang):
   XX=             -6.5922   YY=             -7.7688   ZZ=             -6.9042
   XY=             -0.0000   XZ=             -0.0001   YZ=              0.0041

  Exact polarizability:      23.829      -0.000       2.018      -0.000       0.002       2.482
 Approx polarizability:      37.804      -0.000       1.980      -0.000       0.003       2.562

 ******    2 imaginary frequencies (negative Signs) ******

                      1                      2                      3
                      A                      A                      A
 Frequencies --  -1906.1591               -42.8706               908.0410
 Red. masses --      1.0078                 1.1085                 1.0112
 Frc consts  --      2.1575                 0.0012                 0.4912
 IR Inten    --      0.0150                 0.0684                 0.0017

                      4
                      A
 Frequencies --    908.8145
 Red. masses --      1.0112
 Frc consts  --      0.4921
 IR Inten    --      0.0009

 - Thermochemistry -
 -------------------
 Temperature   298.150 Kelvin.  Pressure   1.00000 Atm.
 Atom     1 has atomic number  1 and mass   1.00783

 Molecular mass:    21.01405 amu.
 Principal axes and moments of inertia in atomic units:
                           1         2         3
     Eigenvalues --     0.00000 142.90116 142.90116
           X            1.00000  -0.00000   0.00000
           Y            0.00000   1.00000   0.00000
           Z            0.00000   0.00000   1.00000
 This molecule is a prolate symmetric top.
 Rotational symmetry number  1.
 Rotational temperature (Kelvin)      0.60611
 Rotational constant (GHZ):          12.629297
    2 imaginary frequencies ignored.
 Zero-point vibrational energy      10867.2 (Joules/Mol)
                                    2.59733 (Kcal/Mol)
 Vibrational temperatures:   1306.47  1307.58
          (Kelvin)

 Zero-point correction=                           0.004139 (Hartree/Particle)
 Thermal correction to Energy=                    0.006604
 Thermal correction to Enthalpy=                  0.007548
 Thermal correction to Gibbs Free Energy=        -0.016693
 Sum of electronic and zero-point Energies=           -100.790677
 Sum of electronic and thermal Energies=              -100.788212
 Sum of electronic and thermal Enthalpies=            -100.787268
 Sum of electronic and thermal Free Energies=         -100.811509

                     E (Thermal)             CV                S
                      KCal/Mol        Cal/Mol-Kelvin    Cal/Mol-Kelvin
 Total                    4.144              5.945             51.020
 Electronic               0.000              0.000              1.377
 Translational            0.889              2.981             35.068
 Rotational               0.592              1.987             14.304
 Vibrational              2.663              0.977              0.270

 Normal termination of Gaussian 16 at Sat Aug 23 00:21:29 2025.
