 Gaussian 16, Revision C.01,
 Gaussian 16:  ES64L-G16RevC.01  3-Jul-2019

 -----------------------------------------
 # sp b3lyp/6-311g** Force nosymm scf=(qc)
 -----------------------------------------

 -------------------
 Title Card Required
 -------------------
 Symbolic Z-matrix:
 Charge =  0 Multiplicity = 2

                          Input orientation:
 ---------------------------------------------------------------------
 Center     Atomic      Atomic             Coordinates (Angstroms)
 Number     Number       Type             X           Y           Z
 ---------------------------------------------------------------------
      1          1           0        0.000000    0.000000    0.000000
      2          1           0       -2.700000    0.000000    0.000000
      3          9           0        3.650000    0.000000    0.000000
 ---------------------------------------------------------------------

 SCF Done:  E(UB3LYP) =  -100.761086967     a.u. after   31 cycles

 Alpha  occ. eigenvalues --  -24.75635  -1.21580  -0.54759  -0.45977  -0.45977
 Alpha  occ. eigenvalues --   -0.32506
 Alpha virt. eigenvalues --   -0.08736   0.25480   0.35174   0.87178   0.91323
 Alpha virt. eigenvalues --    0.91323   1.01467   1.25080   1.25080   1.26434
 Alpha virt. eigenvalues --    1.42719   1.42719   1.43343   2.16022   2.38137

  Beta  occ. eigenvalues --  -24.72506  -1.12586  -0.42840  -0.42840  -0.32780
  Beta virt. eigenvalues --   -0.25618  -0.08347   0.25275   0.35747   0.92817
  Beta virt. eigenvalues --    0.92817   0.96429   1.05542   1.24765   1.24765
  Beta virt. eigenvalues --    1.26073   1.43315   1.43315   1.43939   2.16294

 Mulliken charges and spin densities:
               1          2
     1  H    0.006021  -0.975019
     2  H    0.001047   0.982929
     3  F   -0.007068   0.992090
 Sum of Mulliken charges =   0.00000   1.00000

 Dipole moment (field-independent basis, Debye):
    X=             -0.1462    Y=              0.0000    Z=             -0.0000  Tot=              0.1462
 Quadrupole moment (field-independent basis, Debye-Ang):
   XX=             -7.0278   YY=             -7.6509   ZZ=             -7.6509
   XY=             -0.0000   XZ=              0.0000   YZ=              0.0000

  Exact polarizability:      25.148       0.000       2.016      -0.000       0.000       2.016
 Approx polarizability:      18.621      -0.000       1.931       0.000      -0.000       1.931

 ******    2 imaginary frequencies (negative Signs) ******

                      1                      2                      3
                      A                      A                      A
 Frequencies --   -506.0506              -115.5121               183.6988
 Red. masses --      1.0081                 1.1081                 1.0147
 Frc consts  --      0.1521                 0.0087                 0.0202
 IR Inten    --      3.3901                 3.1952                 0.0325

                      4
                      A
 Frequencies --    183.6988
 Red. masses --      1.0147
 Frc consts  --      0.0202
 IR Inten    --      0.0325

 - Thermochemistry -
 -------------------
 Temperature   298.150 Kelvin.  Pressure   1.00000 Atm.
 Atom     1 has atomic number  1 and mass   1.00783

 Molecular mass:    21.01405 amu.
 Principal axes and moments of inertia in atomic units:
                           1         2         3
     Eigenvalues --     0.00000 175.80812 175.80812
           X            1.00000  -0.00000   0.00000
           Y            0.00000   1.00000   0.00000
           Z            0.00000   0.00000   1.00000
 This molecule is a prolate symmetric top.
 Rotational symmetry number  1.
 Rotational temperature (Kelvin)      0.49266
 Rotational constant (GHZ):          10.265403
    2 imaginary frequencies ignored.
 Zero-point vibrational energy       2197.5 (Joules/Mol)
                                    0.52522 (Kcal/Mol)
 Warning -- explicit consideration of   2 degrees of freedom as
           vibrations may cause significant error
 Vibrational temperatures:    264.30   264.30
          (Kelvin)

 Zero-point correction=                           0.000837 (Hartree/Particle)
 Thermal correction to Energy=                    0.004371
 Thermal correction to Enthalpy=                  0.005315
 Thermal correction to Gibbs Free Energy=        -0.021170
 Sum of electronic and zero-point Energies=           -100.760250
 Sum of electronic and thermal Energies=              -100.756716
 Sum of electronic and thermal Enthalpies=            -100.755772
 Sum of electronic and thermal Free Energies=         -100.782257

                     E (Thermal)             CV                S
                      KCal/Mol        Cal/Mol-Kelvin    Cal/Mol-Kelvin
 Total                    2.743              8.692             55.743
 Electronic               0.000              0.000              1.377
 Translational            0.889              2.981             35.068
 Rotational               0.592              1.987             14.716
 Vibrational              1.262              3.724              4.581
 Vibration     1          0.631              1.862              2.290
 Vibration     2          0.631              1.862              2.290

 Normal termination of Gaussian 16 at Fri Aug 22 23:36:51 2025.
