 Gaussian 16, Revision C.01,
 Gaussian 16:  ES64L-G16RevC.01  3-Jul-2019

 -----------------------------------------
 # sp b3lyp/6-311g** Force nosymm scf=(qc)
 -----------------------------------------

 -------------------
 Title Card Required
 -------------------
 Symbolic Z-matrix:
 Charge =  0 Multiplicity = 2

                          Input orientation:
 ---------------------------------------------------------------------
 Center     Atomic      Atomic             Coordinates (Angstroms)
 Number     Number       Type             X           Y           Z
 ---------------------------------------------------------------------
      1          1           0        0.000000    0.000000    0.000000
      2          1           0       -2.300000    0.000000    0.000000
      3          9           0        1.700000    0.000000    0.000000
 ---------------------------------------------------------------------

 SCF Done:  E(UB3LYP) =  -100.822148092     a.u. after   15 cycles

 Alpha  occ. eigenvalues --  -24.65437  -1.11536  -0.44363  -0.37330  -0.37330
 Alpha  occ. eigenvalues --   -0.36220
 Alpha virt. eigenvalues --   -0.14153   0.23588   0.28426   0.94813   0.94813
 Alpha virt. eigenvalues --    0.96674   1.06511   1.21433   1.21433   1.26225
 Alpha virt. eigenvalues --    1.33436   1.33436   1.73242   2.11724   2.24857

  Beta  occ. eigenvalues --  -24.63876  -1.07280  -0.39769  -0.35817  -0.35817
  Beta virt. eigenvalues --   -0.18932  -0.09984   0.24744   0.33760   0.94631
  Beta virt. eigenvalues --    0.94631   0.98128   1.08375   1.25977   1.25977
  Beta virt. eigenvalues --    1.39450   1.39450   1.42424   1.70031   2.13255

 Mulliken charges and spin densities:
               1          2
     1  H    0.260932  -0.446001
     2  H    0.030709   0.954706
     3  F   -0.291641   0.491295
 Sum of Mulliken charges =  -0.00000   1.00000

 Dipole moment (field-independent basis, Debye):
    X=             -2.7560    Y=              0.0000    Z=             -0.0000  Tot=              2.7560
 Quadrupole moment (field-independent basis, Debye-Ang):
   XX=             -9.2860   YY=             -7.4294   ZZ=             -7.4294
   XY=              0.0000   XZ=             -0.0000   YZ=             -0.0000

  Exact polarizability:      34.446       0.000       2.132      -0.000      -0.000       2.132
 Approx polarizability:      45.582       0.000       2.037      -0.000      -0.000       2.037

 ******    2 imaginary frequencies (negative Signs) ******

                      1                      2                      3
                      A                      A                      A
 Frequencies --  -1804.2216              -436.8583               774.4320
 Red. masses --      1.0461                 1.0656                 1.0220
 Frc consts  --      2.0063                 0.1198                 0.3611
 IR Inten    --     66.2453                13.1859                53.4646

                      4
                      A
 Frequencies --    774.4320
 Red. masses --      1.0220
 Frc consts  --      0.3611
 IR Inten    --     53.4646

 - Thermochemistry -
 -------------------
 Temperature   298.150 Kelvin.  Pressure   1.00000 Atm.
 Atom     1 has atomic number  1 and mass   1.00783

 Molecular mass:    21.01405 amu.
 Principal axes and moments of inertia in atomic units:
                           1         2         3
     Eigenvalues --     0.00000  62.37727  62.37727
           X            1.00000  -0.00000   0.00000
           Y            0.00000   1.00000   0.00000
           Z            0.00000   0.00000   1.00000
 This molecule is a prolate symmetric top.
 Rotational symmetry number  1.
 Rotational temperature (Kelvin)      1.38855
 Rotational constant (GHZ):          28.932673
    2 imaginary frequencies ignored.
 Zero-point vibrational energy       9264.3 (Joules/Mol)
                                    2.21421 (Kcal/Mol)
 Vibrational temperatures:   1114.23  1114.23
          (Kelvin)

 Zero-point correction=                           0.003529 (Hartree/Particle)
 Thermal correction to Energy=                    0.006061
 Thermal correction to Enthalpy=                  0.007005
 Thermal correction to Gibbs Free Energy=        -0.016543
 Sum of electronic and zero-point Energies=           -100.818620
 Sum of electronic and thermal Energies=              -100.816087
 Sum of electronic and thermal Enthalpies=            -100.815143
 Sum of electronic and thermal Free Energies=         -100.838691

                     E (Thermal)             CV                S
                      KCal/Mol        Cal/Mol-Kelvin    Cal/Mol-Kelvin
 Total                    3.803              6.356             49.561
 Electronic               0.000              0.000              1.377
 Translational            0.889              2.981             35.068
 Rotational               0.592              1.987             12.657
 Vibrational              2.322              1.388              0.458

 Normal termination of Gaussian 16 at Fri Aug 22 16:37:43 2025.
