 Gaussian 16, Revision C.01,
 Gaussian 16:  ES64L-G16RevC.01  3-Jul-2019

 -----------------------------------------
 # sp b3lyp/6-311g** Force nosymm scf=(qc)
 -----------------------------------------

 -------------------
 Title Card Required
 -------------------
 Symbolic Z-matrix:
 Charge =  0 Multiplicity = 2

                          Input orientation:
 ---------------------------------------------------------------------
 Center     Atomic      Atomic             Coordinates (Angstroms)
 Number     Number       Type             X           Y           Z
 ---------------------------------------------------------------------
      1          1           0        0.000000    0.000000    0.000000
      2          1           0       -2.900000    0.000000    0.000000
      3          9           0        3.900000    0.000000    0.000000
 ---------------------------------------------------------------------

 SCF Done:  E(UB3LYP) =  -100.759889151     a.u. after   44 cycles

 Alpha  occ. eigenvalues --  -24.75840  -1.21770  -0.54965  -0.46150  -0.46150
 Alpha  occ. eigenvalues --   -0.32377
 Alpha virt. eigenvalues --   -0.07972   0.25221   0.36146   0.86687   0.91194
 Alpha virt. eigenvalues --    0.91194   1.01149   1.25171   1.25171   1.26069
 Alpha virt. eigenvalues --    1.43964   1.43964   1.44085   2.15927   2.39164

  Beta  occ. eigenvalues --  -24.72697  -1.12734  -0.42999  -0.42999  -0.32571
  Beta virt. eigenvalues --   -0.25716  -0.07730   0.25054   0.36474   0.92692
  Beta virt. eigenvalues --    0.92692   0.96043   1.05268   1.24959   1.24959
  Beta virt. eigenvalues --    1.25837   1.44327   1.44327   1.44448   2.15988

 Mulliken charges and spin densities:
               1          2
     1  H    0.002863  -0.986384
     2  H    0.000385   0.990029
     3  F   -0.003248   0.996355
 Sum of Mulliken charges =   0.00000   1.00000

 Dipole moment (field-independent basis, Debye):
    X=             -0.0708    Y=             -0.0000    Z=             -0.0000  Tot=              0.0708
 Quadrupole moment (field-independent basis, Debye-Ang):
   XX=             -6.8723   YY=             -7.6406   ZZ=             -7.6406
   XY=             -0.0000   XZ=             -0.0000   YZ=              0.0000

  Exact polarizability:      16.094      -0.000       2.028      -0.000       0.000       2.028
 Approx polarizability:      11.994      -0.000       1.934      -0.000      -0.000       1.934

 ******    2 imaginary frequencies (negative Signs) ******

                      1                      2                      3
                      A                      A                      A
 Frequencies --   -382.0748               -80.0846               136.4670
 Red. masses --      1.0080                 1.1083                 1.0148
 Frc consts  --      0.0867                 0.0042                 0.0111
 IR Inten    --      0.9900                 0.9622                 0.0069

                      4
                      A
 Frequencies --    136.4670
 Red. masses --      1.0148
 Frc consts  --      0.0111
 IR Inten    --      0.0069

 - Thermochemistry -
 -------------------
 Temperature   298.150 Kelvin.  Pressure   1.00000 Atm.
 Atom     1 has atomic number  1 and mass   1.00783

 Molecular mass:    21.01405 amu.
 Principal axes and moments of inertia in atomic units:
                           1         2         3
     Eigenvalues --     0.00000 201.39731 201.39731
           X            1.00000  -0.00000   0.00000
           Y            0.00000   1.00000   0.00000
           Z            0.00000   0.00000   1.00000
 This molecule is a prolate symmetric top.
 Rotational symmetry number  1.
 Rotational temperature (Kelvin)      0.43006
 Rotational constant (GHZ):           8.961099
    2 imaginary frequencies ignored.
 Zero-point vibrational energy       1632.5 (Joules/Mol)
                                    0.39018 (Kcal/Mol)
 Warning -- explicit consideration of   2 degrees of freedom as
           vibrations may cause significant error
 Vibrational temperatures:    196.35   196.35
          (Kelvin)

 Zero-point correction=                           0.000622 (Hartree/Particle)
 Thermal correction to Energy=                    0.004317
 Thermal correction to Enthalpy=                  0.005261
 Thermal correction to Gibbs Free Energy=        -0.021887
 Sum of electronic and zero-point Energies=           -100.759267
 Sum of electronic and thermal Energies=              -100.755573
 Sum of electronic and thermal Enthalpies=            -100.754628
 Sum of electronic and thermal Free Energies=         -100.781776

                     E (Thermal)             CV                S
                      KCal/Mol        Cal/Mol-Kelvin    Cal/Mol-Kelvin
 Total                    2.709              8.802             57.137
 Electronic               0.000              0.000              1.377
 Translational            0.889              2.981             35.068
 Rotational               0.592              1.987             14.986
 Vibrational              1.227              3.834              5.706
 Vibration     1          0.614              1.917              2.853
 Vibration     2          0.614              1.917              2.853

 Normal termination of Gaussian 16 at Sat Aug 23 01:26:06 2025.
