 Gaussian 16, Revision C.01,
 Gaussian 16:  ES64L-G16RevC.01  3-Jul-2019

 -----------------------------------------
 # sp b3lyp/6-311g** Force nosymm scf=(qc)
 -----------------------------------------

 -------------------
 Title Card Required
 -------------------
 Symbolic Z-matrix:
 Charge =  0 Multiplicity = 2

                          Input orientation:
 ---------------------------------------------------------------------
 Center     Atomic      Atomic             Coordinates (Angstroms)
 Number     Number       Type             X           Y           Z
 ---------------------------------------------------------------------
      1          1           0        0.000000    0.000000    0.000000
      2          1           0       -1.200000    0.000000    0.000000
      3          9           0        2.700000    0.000000    0.000000
 ---------------------------------------------------------------------

 SCF Done:  E(UB3LYP) =  -100.872456360     a.u. after   90 cycles

 Alpha  occ. eigenvalues --  -24.76968  -1.22756  -0.55932  -0.47268  -0.47079
 Alpha  occ. eigenvalues --   -0.36017
 Alpha virt. eigenvalues --   -0.03584   0.23251   0.35266   0.85563   0.90431
 Alpha virt. eigenvalues --    0.93134   1.06700   1.13156   1.13169   1.22806
 Alpha virt. eigenvalues --    1.54656   1.54668   2.08611   2.32482   2.55951

  Beta  occ. eigenvalues --  -24.73804  -1.13664  -0.44125  -0.43907  -0.35983
  Beta virt. eigenvalues --   -0.26544  -0.03551   0.23280   0.35368   0.91928
  Beta virt. eigenvalues --    0.94930   0.95012   1.10395   1.13158   1.13167
  Beta virt. eigenvalues --    1.22845   1.54654   1.54666   2.08615   2.32483

 Mulliken charges and spin densities:
               1          2
     1  H   -0.001668  -0.000075
     2  H   -0.010368  -0.001651
     3  F    0.012036   1.001726
 Sum of Mulliken charges =  -0.00000   1.00000

 Dipole moment (field-independent basis, Debye):
    X=              0.1638    Y=             -0.0000    Z=             -0.0000  Tot=              0.1638
 Quadrupole moment (field-independent basis, Debye-Ang):
   XX=             -6.1025   YY=             -7.0747   ZZ=             -7.0741
   XY=             -0.0000   XZ=             -0.0000   YZ=              0.4316

  Exact polarizability:      16.873       0.000       2.319       0.000       0.229       2.320
 Approx polarizability:      24.825      -0.000       2.407      -0.000       0.288       2.408

 ******    1 imaginary frequencies (negative Signs) ******

                      1                      2                      3
                      A                      A                      A
 Frequencies --   -452.8086                93.5651              1463.9359
 Red. masses --      1.0078                 1.1085                 1.0111
 Frc consts  --      0.1218                 0.0057                 1.2767
 IR Inten    --      3.5583                 1.4596                 0.0168

                      4
                      A
 Frequencies --   1467.6195
 Red. masses --      1.0111
 Frc consts  --      1.2831
 IR Inten    --      0.0082

 - Thermochemistry -
 -------------------
 Temperature   298.150 Kelvin.  Pressure   1.00000 Atm.
 Atom     1 has atomic number  1 and mass   1.00783

 Molecular mass:    21.01405 amu.
 Principal axes and moments of inertia in atomic units:
                           1         2         3
     Eigenvalues --     0.00000  73.45893  73.45893
           X            1.00000  -0.00000   0.00000
           Y            0.00000   1.00000   0.00000
           Z            0.00000   0.00000   1.00000
 This molecule is a prolate symmetric top.
 Rotational symmetry number  1.
 Rotational temperature (Kelvin)      1.17908
 Rotational constant (GHZ):          24.568028
    1 imaginary frequencies ignored.
 Zero-point vibrational energy      18094.2 (Joules/Mol)
                                    4.32463 (Kcal/Mol)
 Warning -- explicit consideration of   1 degrees of freedom as
           vibrations may cause significant error
 Vibrational temperatures:    134.62  2106.28  2111.58
          (Kelvin)

 Zero-point correction=                           0.006892 (Hartree/Particle)
 Thermal correction to Energy=                    0.010011
 Thermal correction to Enthalpy=                  0.010955
 Thermal correction to Gibbs Free Energy=        -0.014246
 Sum of electronic and zero-point Energies=           -100.865565
 Sum of electronic and thermal Energies=              -100.862446
 Sum of electronic and thermal Enthalpies=            -100.861502
 Sum of electronic and thermal Free Energies=         -100.886702

                     E (Thermal)             CV                S
                      KCal/Mol        Cal/Mol-Kelvin    Cal/Mol-Kelvin
 Total                    6.282              7.091             53.039
 Electronic               0.000              0.000              1.377
 Translational            0.889              2.981             35.068
 Rotational               0.592              1.987             12.982
 Vibrational              4.800              2.123              3.611
 Vibration     1          0.603              1.954              3.584

 Normal termination of Gaussian 16 at Fri Aug 22 18:22:46 2025.
