 Gaussian 16, Revision C.01,
 Gaussian 16:  ES64L-G16RevC.01  3-Jul-2019

 -----------------------------------------
 # sp b3lyp/6-311g** Force nosymm scf=(qc)
 -----------------------------------------

 -------------------
 Title Card Required
 -------------------
 Symbolic Z-matrix:
 Charge =  0 Multiplicity = 2

                          Input orientation:
 ---------------------------------------------------------------------
 Center     Atomic      Atomic             Coordinates (Angstroms)
 Number     Number       Type             X           Y           Z
 ---------------------------------------------------------------------
      1          1           0        0.000000    0.000000    0.000000
      2          1           0       -1.600000    0.000000    0.000000
      3          9           0        2.250000    0.000000    0.000000
 ---------------------------------------------------------------------

 SCF Done:  E(UB3LYP) =  -100.815939302     a.u. after   12 cycles

 Alpha  occ. eigenvalues --  -24.71227  -1.17478  -0.50444  -0.42291  -0.42291
 Alpha  occ. eigenvalues --   -0.36612
 Alpha virt. eigenvalues --   -0.11717   0.23401   0.31228   0.86456   0.93688
 Alpha virt. eigenvalues --    0.93688   1.02733   1.19077   1.19077   1.20674
 Alpha virt. eigenvalues --    1.36796   1.36796   1.72760   2.16722   2.42236

  Beta  occ. eigenvalues --  -24.68465  -1.09644  -0.39544  -0.39544  -0.36150
  Beta virt. eigenvalues --   -0.23803  -0.10690   0.25366   0.30822   0.91196
  Beta virt. eigenvalues --    0.94949   0.94949   1.06493   1.20200   1.20200
  Beta virt. eigenvalues --    1.24831   1.37506   1.37506   1.73625   2.17710

 Mulliken charges and spin densities:
               1          2
     1  H    0.054932  -0.457469
     2  H    0.050911   0.586721
     3  F   -0.105843   0.870749
 Sum of Mulliken charges =  -0.00000   1.00000

 Dipole moment (field-independent basis, Debye):
    X=             -1.5886    Y=              0.0000    Z=              0.0000  Tot=              1.5886
 Quadrupole moment (field-independent basis, Debye-Ang):
   XX=             -7.6021   YY=             -7.6250   ZZ=             -7.6250
   XY=              0.0000   XZ=              0.0000   YZ=             -0.0000

  Exact polarizability:      58.522       0.000       2.056       0.000      -0.000       2.056
 Approx polarizability:      82.378      -0.000       2.009      -0.000       0.000       2.009

 ******    2 imaginary frequencies (negative Signs) ******

                      1                      2                      3
                      A                      A                      A
 Frequencies --  -2056.4455              -428.4578               986.5103
 Red. masses --      1.0094                 1.1067                 1.0143
 Frc consts  --      2.5150                 0.1197                 0.5816
 IR Inten    --    486.1003                39.1574                 0.7131

                      4
                      A
 Frequencies --    986.5103
 Red. masses --      1.0143
 Frc consts  --      0.5816
 IR Inten    --      0.7131

 - Thermochemistry -
 -------------------
 Temperature   298.150 Kelvin.  Pressure   1.00000 Atm.
 Atom     1 has atomic number  1 and mass   1.00783

 Molecular mass:    21.01405 amu.
 Principal axes and moments of inertia in atomic units:
                           1         2         3
     Eigenvalues --     0.00000  65.14358  65.14358
           X            1.00000  -0.00000   0.00000
           Y            0.00000   1.00000   0.00000
           Z            0.00000   0.00000   1.00000
 This molecule is a prolate symmetric top.
 Rotational symmetry number  1.
 Rotational temperature (Kelvin)      1.32958
 Rotational constant (GHZ):          27.704053
    2 imaginary frequencies ignored.
 Zero-point vibrational energy      11801.3 (Joules/Mol)
                                    2.82057 (Kcal/Mol)
 Vibrational temperatures:   1419.37  1419.37
          (Kelvin)

 Zero-point correction=                           0.004495 (Hartree/Particle)
 Thermal correction to Energy=                    0.006933
 Thermal correction to Enthalpy=                  0.007877
 Thermal correction to Gibbs Free Energy=        -0.015588
 Sum of electronic and zero-point Energies=           -100.811444
 Sum of electronic and thermal Energies=              -100.809006
 Sum of electronic and thermal Enthalpies=            -100.808062
 Sum of electronic and thermal Free Energies=         -100.831527

                     E (Thermal)             CV                S
                      KCal/Mol        Cal/Mol-Kelvin    Cal/Mol-Kelvin
 Total                    4.350              5.752             49.386
 Electronic               0.000              0.000              1.377
 Translational            0.889              2.981             35.068
 Rotational               0.592              1.987             12.743
 Vibrational              2.869              0.784              0.198

 Normal termination of Gaussian 16 at Fri Aug 22 17:16:04 2025.
