 Gaussian 16, Revision C.01,
 Gaussian 16:  ES64L-G16RevC.01  3-Jul-2019

 -----------------------------------------
 # sp b3lyp/6-311g** Force nosymm scf=(qc)
 -----------------------------------------

 -------------------
 Title Card Required
 -------------------
 Symbolic Z-matrix:
 Charge =  0 Multiplicity = 2

                          Input orientation:
 ---------------------------------------------------------------------
 Center     Atomic      Atomic             Coordinates (Angstroms)
 Number     Number       Type             X           Y           Z
 ---------------------------------------------------------------------
      1          1           0        0.000000    0.000000    0.000000
      2          1           0       -1.100000    0.000000    0.000000
      3          9           0        2.450000    0.000000    0.000000
 ---------------------------------------------------------------------

 SCF Done:  E(UB3LYP) =  -100.890713550     a.u. after   66 cycles

 Alpha  occ. eigenvalues --  -24.75638  -1.21573  -0.54794  -0.46086  -0.45990
 Alpha  occ. eigenvalues --   -0.38344
 Alpha virt. eigenvalues --   -0.01956   0.22106   0.37057   0.88200   0.91158
 Alpha virt. eigenvalues --    0.91966   1.09493   1.09893   1.09898   1.30834
 Alpha virt. eigenvalues --    1.59017   1.59022   2.16124   2.33828   2.55618

  Beta  occ. eigenvalues --  -24.72553  -1.12728  -0.43049  -0.42902  -0.38125
  Beta virt. eigenvalues --   -0.26055  -0.01482   0.22383   0.37444   0.92615
  Beta virt. eigenvalues --    0.92972   0.97213   1.10165   1.10166   1.13249
  Beta virt. eigenvalues --    1.31621   1.59230   1.59234   2.16485   2.34138

 Mulliken charges and spin densities:
               1          2
     1  H   -0.003145  -0.023630
     2  H    0.016934   0.048632
     3  F   -0.013789   0.974998
 Sum of Mulliken charges =  -0.00000   1.00000

 Dipole moment (field-independent basis, Debye):
    X=             -0.2727    Y=              0.0030    Z=              0.0002  Tot=              0.2727
 Quadrupole moment (field-independent basis, Debye-Ang):
   XX=             -6.0528   YY=             -7.1713   ZZ=             -7.3705
   XY=              0.3555   XZ=              0.0206   YZ=              0.0116

  Exact polarizability:      76.357       0.514       2.203       0.243       0.010       2.068
 Approx polarizability:      34.194       0.065       2.268       0.004       0.008       2.136

 ******    1 imaginary frequencies (negative Signs) ******

                      1                      2                      3
                      A                      A                      A
 Frequencies --   -495.2870               719.2700              1498.3497
 Red. masses --      1.0897                 1.0239                 1.0111
 Frc consts  --      0.1575                 0.3121                 1.3374
 IR Inten    --    876.4519               800.8713                13.4278

                      4
                      A
 Frequencies --   1532.0252
 Red. masses --      1.0111
 Frc consts  --      1.3982
 IR Inten    --      2.8638

 - Thermochemistry -
 -------------------
 Temperature   298.150 Kelvin.  Pressure   1.00000 Atm.
 Atom     1 has atomic number  1 and mass   1.00783

 Molecular mass:    21.01405 amu.
 Principal axes and moments of inertia in atomic units:
                           1         2         3
     Eigenvalues --     0.00000  60.74570  60.74570
           X            1.00000  -0.00000   0.00000
           Y            0.00000   1.00000   0.00000
           Z            0.00000   0.00000   1.00000
 This molecule is a prolate symmetric top.
 Rotational symmetry number  1.
 Rotational temperature (Kelvin)      1.42584
 Rotational constant (GHZ):          29.709775
    1 imaginary frequencies ignored.
 Zero-point vibrational energy      22427.9 (Joules/Mol)
                                    5.36039 (Kcal/Mol)
 Vibrational temperatures:   1034.87  2155.79  2204.24
          (Kelvin)

 Zero-point correction=                           0.008542 (Hartree/Particle)
 Thermal correction to Energy=                    0.011017
 Thermal correction to Enthalpy=                  0.011961
 Thermal correction to Gibbs Free Energy=        -0.011489
 Sum of electronic and zero-point Energies=           -100.882171
 Sum of electronic and thermal Energies=              -100.879696
 Sum of electronic and thermal Enthalpies=            -100.878752
 Sum of electronic and thermal Free Energies=         -100.902203

                     E (Thermal)             CV                S
                      KCal/Mol        Cal/Mol-Kelvin    Cal/Mol-Kelvin
 Total                    6.913              5.903             49.356
 Electronic               0.000              0.000              1.377
 Translational            0.889              2.981             35.068
 Rotational               0.592              1.987             12.605
 Vibrational              5.432              0.935              0.306

 Normal termination of Gaussian 16 at Fri Aug 22 17:37:07 2025.
