 Gaussian 16, Revision C.01,
 Gaussian 16:  ES64L-G16RevC.01  3-Jul-2019

 -----------------------------------------
 # sp b3lyp/6-311g** Force nosymm scf=(qc)
 -----------------------------------------

 -------------------
 Title Card Required
 -------------------
 Symbolic Z-matrix:
 Charge =  0 Multiplicity = 2

                          Input orientation:
 ---------------------------------------------------------------------
 Center     Atomic      Atomic             Coordinates (Angstroms)
 Number     Number       Type             X           Y           Z
 ---------------------------------------------------------------------
      1          1           0        0.000000    0.000000    0.000000
      2          1           0       -2.150000    0.000000    0.000000
      3          9           0        3.350000    0.000000    0.000000
 ---------------------------------------------------------------------

 SCF Done:  E(UB3LYP) =  -100.769600746     a.u. after   24 cycles

 Alpha  occ. eigenvalues --  -24.75258  -1.21229  -0.54379  -0.45660  -0.45660
 Alpha  occ. eigenvalues --   -0.33077
 Alpha virt. eigenvalues --   -0.10844   0.25804   0.32832   0.88149   0.91554
 Alpha virt. eigenvalues --    0.91554   1.02212   1.22095   1.24806   1.24806
 Alpha virt. eigenvalues --    1.38580   1.38580   1.46170   2.13551   2.35674

  Beta  occ. eigenvalues --  -24.72156  -1.12319  -0.42551  -0.42551  -0.33264
  Beta virt. eigenvalues --   -0.25452  -0.10397   0.25745   0.33478   0.93039
  Beta virt. eigenvalues --    0.93039   0.97227   1.06223   1.21908   1.24561
  Beta virt. eigenvalues --    1.24561   1.39254   1.39254   1.46722   2.14369

 Mulliken charges and spin densities:
               1          2
     1  H    0.008209  -0.896134
     2  H    0.006374   0.912721
     3  F   -0.014582   0.983413
 Sum of Mulliken charges =  -0.00000   1.00000

 Dipole moment (field-independent basis, Debye):
    X=             -0.3157    Y=              0.0000    Z=             -0.0000  Tot=              0.3157
 Quadrupole moment (field-independent basis, Debye-Ang):
   XX=             -6.9930   YY=             -7.7022   ZZ=             -7.7022
   XY=              0.0000   XZ=             -0.0000   YZ=             -0.0000

  Exact polarizability:      46.167       0.000       2.013      -0.000       0.000       2.013
 Approx polarizability:      37.273       0.000       1.930      -0.000       0.000       1.930

 ******    2 imaginary frequencies (negative Signs) ******

                      1                      2                      3
                      A                      A                      A
 Frequencies --  -1104.4867              -165.4460               430.1888
 Red. masses --      1.0079                 1.1084                 1.0135
 Frc consts  --      0.7244                 0.0179                 0.1105
 IR Inten    --     12.6274                11.5332                 0.0267

                      4
                      A
 Frequencies --    430.1888
 Red. masses --      1.0135
 Frc consts  --      0.1105
 IR Inten    --      0.0267

 - Thermochemistry -
 -------------------
 Temperature   298.150 Kelvin.  Pressure   1.00000 Atm.
 Atom     1 has atomic number  1 and mass   1.00783

 Molecular mass:    21.01405 amu.
 Principal axes and moments of inertia in atomic units:
                           1         2         3
     Eigenvalues --     0.00000 135.74088 135.74088
           X            1.00000  -0.00000   0.00000
           Y            0.00000   1.00000   0.00000
           Z            0.00000   0.00000   1.00000
 This molecule is a prolate symmetric top.
 Rotational symmetry number  1.
 Rotational temperature (Kelvin)      0.63808
 Rotational constant (GHZ):          13.295488
    2 imaginary frequencies ignored.
 Zero-point vibrational energy       5146.2 (Joules/Mol)
                                    1.22997 (Kcal/Mol)
 Warning -- explicit consideration of   2 degrees of freedom as
           vibrations may cause significant error
 Vibrational temperatures:    618.95   618.95
          (Kelvin)

 Zero-point correction=                           0.001960 (Hartree/Particle)
 Thermal correction to Energy=                    0.004883
 Thermal correction to Enthalpy=                  0.005827
 Thermal correction to Gibbs Free Energy=        -0.019053
 Sum of electronic and zero-point Energies=           -100.767641
 Sum of electronic and thermal Energies=              -100.764718
 Sum of electronic and thermal Enthalpies=            -100.763774
 Sum of electronic and thermal Free Energies=         -100.788653

                     E (Thermal)             CV                S
                      KCal/Mol        Cal/Mol-Kelvin    Cal/Mol-Kelvin
 Total                    3.064              7.777             52.364
 Electronic               0.000              0.000              1.377
 Translational            0.889              2.981             35.068
 Rotational               0.592              1.987             14.202
 Vibrational              1.583              2.809              1.716
 Vibration     1          0.791              1.404              0.858
 Vibration     2          0.791              1.404              0.858

 Normal termination of Gaussian 16 at Fri Aug 22 21:01:27 2025.
