 Gaussian 16, Revision C.01,
 Gaussian 16:  ES64L-G16RevC.01  3-Jul-2019

 -----------------------------------------
 # sp b3lyp/6-311g** Force nosymm scf=(qc)
 -----------------------------------------

 -------------------
 Title Card Required
 -------------------
 Symbolic Z-matrix:
 Charge =  0 Multiplicity = 2

                          Input orientation:
 ---------------------------------------------------------------------
 Center     Atomic      Atomic             Coordinates (Angstroms)
 Number     Number       Type             X           Y           Z
 ---------------------------------------------------------------------
      1          1           0        0.000000    0.000000    0.000000
      2          1           0       -1.850000    0.000000    0.000000
      3          9           0        2.850000    0.000000    0.000000
 ---------------------------------------------------------------------

 SCF Done:  E(UB3LYP) =  -100.785231347     a.u. after   26 cycles

 Alpha  occ. eigenvalues --  -24.73925  -1.19991  -0.53046  -0.44539  -0.44539
 Alpha  occ. eigenvalues --   -0.34227
 Alpha virt. eigenvalues --   -0.12028   0.25162   0.31141   0.90074   0.92363
 Alpha virt. eigenvalues --    0.92363   1.04653   1.11682   1.23544   1.23544
 Alpha virt. eigenvalues --    1.36031   1.36031   1.57136   2.12923   2.38558

  Beta  occ. eigenvalues --  -24.70918  -1.11380  -0.41531  -0.41531  -0.34202
  Beta virt. eigenvalues --   -0.24815  -0.11501   0.26058   0.31283   0.93814
  Beta virt. eigenvalues --    0.93814   0.98447   1.07957   1.12715   1.23569
  Beta virt. eigenvalues --    1.23569   1.36758   1.36758   1.57751   2.14047

 Mulliken charges and spin densities:
               1          2
     1  H    0.019364  -0.729663
     2  H    0.022092   0.777352
     3  F   -0.041455   0.952310
 Sum of Mulliken charges =   0.00000   1.00000

 Dipole moment (field-independent basis, Debye):
    X=             -0.7998    Y=             -0.0000    Z=              0.0000  Tot=              0.7998
 Quadrupole moment (field-independent basis, Debye-Ang):
   XX=             -7.2934   YY=             -7.7189   ZZ=             -7.7189
   XY=             -0.0000   XZ=              0.0000   YZ=             -0.0000

  Exact polarizability:      62.542      -0.000       2.007       0.000      -0.000       2.007
 Approx polarizability:      65.040      -0.000       1.945       0.000       0.000       1.945

 ******    2 imaginary frequencies (negative Signs) ******

                      1                      2                      3
                      A                      A                      A
 Frequencies --  -1648.6136              -272.9960               701.7616
 Red. masses --      1.0080                 1.1083                 1.0136
 Frc consts  --      1.6142                 0.0487                 0.2941
 IR Inten    --     84.4390                36.2700                 0.0890

                      4
                      A
 Frequencies --    701.7616
 Red. masses --      1.0136
 Frc consts  --      0.2941
 IR Inten    --      0.0890

 - Thermochemistry -
 -------------------
 Temperature   298.150 Kelvin.  Pressure   1.00000 Atm.
 Atom     1 has atomic number  1 and mass   1.00783

 Molecular mass:    21.01405 amu.
 Principal axes and moments of inertia in atomic units:
                           1         2         3
     Eigenvalues --     0.00000  98.89602  98.89602
           X            1.00000  -0.00000   0.00000
           Y            0.00000   1.00000   0.00000
           Z            0.00000   0.00000   1.00000
 This molecule is a prolate symmetric top.
 Rotational symmetry number  1.
 Rotational temperature (Kelvin)      0.87581
 Rotational constant (GHZ):          18.248876
    2 imaginary frequencies ignored.
 Zero-point vibrational energy       8394.9 (Joules/Mol)
                                    2.00644 (Kcal/Mol)
 Vibrational temperatures:   1009.68  1009.68
          (Kelvin)

 Zero-point correction=                           0.003197 (Hartree/Particle)
 Thermal correction to Energy=                    0.005782
 Thermal correction to Enthalpy=                  0.006726
 Thermal correction to Gibbs Free Energy=        -0.017328
 Sum of electronic and zero-point Energies=           -100.782034
 Sum of electronic and thermal Energies=              -100.779450
 Sum of electronic and thermal Enthalpies=            -100.778505
 Sum of electronic and thermal Free Energies=         -100.802560

                     E (Thermal)             CV                S
                      KCal/Mol        Cal/Mol-Kelvin    Cal/Mol-Kelvin
 Total                    3.628              6.620             50.626
 Electronic               0.000              0.000              1.377
 Translational            0.889              2.981             35.068
 Rotational               0.592              1.987             13.573
 Vibrational              2.147              1.652              0.608

 Normal termination of Gaussian 16 at Fri Aug 22 18:53:06 2025.
