 Gaussian 16, Revision C.01,
 Gaussian 16:  ES64L-G16RevC.01  3-Jul-2019

 -----------------------------------------
 # sp b3lyp/6-311g** Force nosymm scf=(qc)
 -----------------------------------------

 -------------------
 Title Card Required
 -------------------
 Symbolic Z-matrix:
 Charge =  0 Multiplicity = 2

                          Input orientation:
 ---------------------------------------------------------------------
 Center     Atomic      Atomic             Coordinates (Angstroms)
 Number     Number       Type             X           Y           Z
 ---------------------------------------------------------------------
      1          1           0        0.000000    0.000000    0.000000
      2          1           0       -1.900000    0.000000    0.000000
      3          9           0        1.100000    0.000000    0.000000
 ---------------------------------------------------------------------

 SCF Done:  E(UB3LYP) =  -100.950269225     a.u. after    6 cycles

 Alpha  occ. eigenvalues --  -24.63700  -1.13470  -0.49773  -0.37626  -0.37626
 Alpha  occ. eigenvalues --   -0.36641
 Alpha virt. eigenvalues --    0.01095   0.23459   0.30664   0.94000   0.94000
 Alpha virt. eigenvalues --    0.99731   1.12125   1.20335   1.20335   1.36195
 Alpha virt. eigenvalues --    1.36195   1.49833   1.78248   2.17771   2.34362

  Beta  occ. eigenvalues --  -24.63557  -1.13113  -0.48956  -0.37498  -0.37498
  Beta virt. eigenvalues --   -0.14182   0.03938   0.29979   0.33863   0.94015
  Beta virt. eigenvalues --    0.94015   1.00236   1.21238   1.34134   1.34134
  Beta virt. eigenvalues --    1.40859   1.40859   1.56747   1.81682   2.31794

 Mulliken charges and spin densities:
               1          2
     1  H    0.320303  -0.001568
     2  H    0.025540   0.960676
     3  F   -0.345843   0.040892
 Sum of Mulliken charges =   0.00000   1.00000

 Dipole moment (field-independent basis, Debye):
    X=             -2.4316    Y=             -0.0000    Z=             -0.0000  Tot=              2.4316
 Quadrupole moment (field-independent basis, Debye-Ang):
   XX=             -7.9628   YY=             -6.9940   ZZ=             -6.9940
   XY=              0.0000   XZ=             -0.0000   YZ=              0.0000

  Exact polarizability:      13.479      -0.000       2.432      -0.000      -0.000       2.432
 Approx polarizability:      15.565       0.000       2.407       0.000      -0.000       2.407

 ******    1 imaginary frequencies (negative Signs) ******

                      1                      2                      3
                      A                      A                      A
 Frequencies --   -243.8899              1129.2973              1129.2973
 Red. masses --      1.0457                 1.0257                 1.0257
 Frc consts  --      0.0366                 0.7707                 0.7707
 IR Inten    --     10.6824               115.3766               115.3766

                      4
                      A
 Frequencies --   1795.5033
 Red. masses --      1.0660
 Frc consts  --      2.0248
 IR Inten    --    209.2091

 - Thermochemistry -
 -------------------
 Temperature   298.150 Kelvin.  Pressure   1.00000 Atm.
 Atom     1 has atomic number  1 and mass   1.00783

 Molecular mass:    21.01405 amu.
 Principal axes and moments of inertia in atomic units:
                           1         2         3
     Eigenvalues --     0.00000  33.84435  33.84435
           X            1.00000  -0.00000   0.00000
           Y            0.00000   1.00000   0.00000
           Z            0.00000   0.00000   1.00000
 This molecule is a prolate symmetric top.
 Rotational symmetry number  1.
 Rotational temperature (Kelvin)      2.55918
 Rotational constant (GHZ):          53.324733
    1 imaginary frequencies ignored.
 Zero-point vibrational energy      24248.9 (Joules/Mol)
                                    5.79562 (Kcal/Mol)
 Vibrational temperatures:   1624.81  1624.81  2583.33
          (Kelvin)

 Zero-point correction=                           0.009236 (Hartree/Particle)
 Thermal correction to Energy=                    0.011642
 Thermal correction to Enthalpy=                  0.012586
 Thermal correction to Gibbs Free Energy=        -0.010221
 Sum of electronic and zero-point Energies=           -100.941033
 Sum of electronic and thermal Energies=              -100.938627
 Sum of electronic and thermal Enthalpies=            -100.937683
 Sum of electronic and thermal Free Energies=         -100.960490

                     E (Thermal)             CV                S
                      KCal/Mol        Cal/Mol-Kelvin    Cal/Mol-Kelvin
 Total                    7.306              5.505             48.001
 Electronic               0.000              0.000              1.377
 Translational            0.889              2.981             35.068
 Rotational               0.592              1.987             11.442
 Vibrational              5.824              0.537              0.114

 Normal termination of Gaussian 16 at Fri Aug 22 16:05:16 2025.
