 Gaussian 16, Revision C.01,
 Gaussian 16:  ES64L-G16RevC.01  3-Jul-2019

 -----------------------------------------
 # sp b3lyp/6-311g** Force nosymm scf=(qc)
 -----------------------------------------

 -------------------
 Title Card Required
 -------------------
 Symbolic Z-matrix:
 Charge =  0 Multiplicity = 2

                          Input orientation:
 ---------------------------------------------------------------------
 Center     Atomic      Atomic             Coordinates (Angstroms)
 Number     Number       Type             X           Y           Z
 ---------------------------------------------------------------------
      1          1           0        0.000000    0.000000    0.000000
      2          1           0       -0.700000    0.000000    0.000000
      3          9           0        3.350000    0.000000    0.000000
 ---------------------------------------------------------------------

 SCF Done:  E(UB3LYP) =  -100.932716752     a.u. after   57 cycles

 Alpha  occ. eigenvalues --  -24.76419  -1.22259  -0.55458  -0.46676  -0.46610
 Alpha  occ. eigenvalues --   -0.44157
 Alpha virt. eigenvalues --    0.06795   0.19522   0.48204   0.85969   0.90844
 Alpha virt. eigenvalues --    0.93367   1.02932   1.08976   1.08980   1.57732
 Alpha virt. eigenvalues --    1.85878   1.85883   1.90694   2.38069   3.56965

  Beta  occ. eigenvalues --  -24.73260  -1.13177  -0.44265  -0.43443  -0.43398
  Beta virt. eigenvalues --   -0.26091   0.06821   0.19538   0.48283   0.92343
  Beta virt. eigenvalues --    0.94976   0.95431   1.06851   1.08976   1.08980
  Beta virt. eigenvalues --    1.57743   1.85878   1.85883   1.90724   2.38071

 Mulliken charges and spin densities:
               1          2
     1  H   -0.003308  -0.000712
     2  H   -0.002343   0.000032
     3  F    0.005651   1.000680
 Sum of Mulliken charges =   0.00000   1.00000

 Dipole moment (field-independent basis, Debye):
    X=              0.0609    Y=              0.0000    Z=              0.0000  Tot=              0.0609
 Quadrupole moment (field-independent basis, Debye-Ang):
   XX=             -6.1345   YY=             -6.1687   ZZ=             -6.7393
   XY=              0.0000   XZ=              0.0000   YZ=              0.3244

  Exact polarizability:       7.757       0.000       2.315       0.000       0.174       2.009
 Approx polarizability:       8.718       0.000       2.492       0.000       0.218       2.108

 ******    3 imaginary frequencies (negative Signs) ******

                      1                      2                      3
                      A                      A                      A
 Frequencies --  -1172.8992             -1171.7337               -10.5759
 Red. masses --      1.0087                 1.0087                 1.1085
 Frc consts  --      0.8176                 0.8160                 0.0001
 IR Inten    --      0.0053                 0.0044                 0.1712

                      4
                      A
 Frequencies --   5087.7833
 Red. masses --      1.0078
 Frc consts  --     15.3707
 IR Inten    --      0.1104

 - Thermochemistry -
 -------------------
 Temperature   298.150 Kelvin.  Pressure   1.00000 Atm.
 Atom     1 has atomic number  1 and mass   1.00783

 Molecular mass:    21.01405 amu.
 Principal axes and moments of inertia in atomic units:
                           1         2         3
     Eigenvalues --     0.00000  89.97066  89.97066
           X            1.00000  -0.00000   0.00000
           Y            0.00000   1.00000   0.00000
           Z            0.00000   0.00000   1.00000
 This molecule is a prolate symmetric top.
 Rotational symmetry number  1.
 Rotational temperature (Kelvin)      0.96269
 Rotational constant (GHZ):          20.059220
    3 imaginary frequencies ignored.
 Zero-point vibrational energy      30431.7 (Joules/Mol)
                                    7.27335 (Kcal/Mol)
 Vibrational temperatures:   7320.19
          (Kelvin)

 Zero-point correction=                           0.011591 (Hartree/Particle)
 Thermal correction to Energy=                    0.013951
 Thermal correction to Enthalpy=                  0.014895
 Thermal correction to Gibbs Free Energy=        -0.008781
 Sum of electronic and zero-point Energies=           -100.921126
 Sum of electronic and thermal Energies=              -100.918765
 Sum of electronic and thermal Enthalpies=            -100.917821
 Sum of electronic and thermal Free Energies=         -100.941497

                     E (Thermal)             CV                S
                      KCal/Mol        Cal/Mol-Kelvin    Cal/Mol-Kelvin
 Total                    8.755              4.968             49.830
 Electronic               0.000              0.000              1.377
 Translational            0.889              2.981             35.068
 Rotational               0.592              1.987             13.385
 Vibrational              7.273              0.000              0.000

 Normal termination of Gaussian 16 at Fri Aug 22 20:52:00 2025.
