 Gaussian 16, Revision C.01,
 Gaussian 16:  ES64L-G16RevC.01  3-Jul-2019

 -----------------------------------------
 # sp b3lyp/6-311g** Force nosymm scf=(qc)
 -----------------------------------------

 -------------------
 Title Card Required
 -------------------
 Symbolic Z-matrix:
 Charge =  0 Multiplicity = 2

                          Input orientation:
 ---------------------------------------------------------------------
 Center     Atomic      Atomic             Coordinates (Angstroms)
 Number     Number       Type             X           Y           Z
 ---------------------------------------------------------------------
      1          1           0        0.000000    0.000000    0.000000
      2          1           0       -2.600000    0.000000    0.000000
      3          9           0        3.500000    0.000000    0.000000
 ---------------------------------------------------------------------

 SCF Done:  E(UB3LYP) =  -100.762029608     a.u. after   33 cycles

 Alpha  occ. eigenvalues --  -24.75437  -1.21395  -0.54559  -0.45809  -0.45809
 Alpha  occ. eigenvalues --   -0.32616
 Alpha virt. eigenvalues --   -0.09214   0.25564   0.34619   0.87608   0.91447
 Alpha virt. eigenvalues --    0.91447   1.01788   1.24999   1.24999   1.26550
 Alpha virt. eigenvalues --    1.41912   1.41912   1.42946   2.15928   2.37499

  Beta  occ. eigenvalues --  -24.72321  -1.12442  -0.42686  -0.42686  -0.32950
  Beta virt. eigenvalues --   -0.25520  -0.08705   0.25362   0.35368   0.92937
  Beta virt. eigenvalues --    0.92937   0.96774   1.05825   1.24603   1.24603
  Beta virt. eigenvalues --    1.26081   1.42704   1.42704   1.43739   2.16397

 Mulliken charges and spin densities:
               1          2
     1  H    0.008993  -0.965420
     2  H    0.001807   0.977489
     3  F   -0.010799   0.987930
 Sum of Mulliken charges =   0.00000   1.00000

 Dipole moment (field-independent basis, Debye):
    X=             -0.2165    Y=             -0.0000    Z=              0.0000  Tot=              0.2165
 Quadrupole moment (field-independent basis, Debye-Ang):
   XX=             -7.1643   YY=             -7.6568   ZZ=             -7.6568
   XY=              0.0000   XZ=              0.0000   YZ=              0.0000

  Exact polarizability:      31.271       0.000       2.026       0.000       0.000       2.026
 Approx polarizability:      23.644       0.000       1.929       0.000      -0.000       1.929

 ******    2 imaginary frequencies (negative Signs) ******

                      1                      2                      3
                      A                      A                      A
 Frequencies --   -584.8617              -138.5838               211.7165
 Red. masses --      1.0082                 1.1080                 1.0147
 Frc consts  --      0.2032                 0.0125                 0.0268
 IR Inten    --      6.1255                 5.8249                 0.0571

                      4
                      A
 Frequencies --    211.7165
 Red. masses --      1.0147
 Frc consts  --      0.0268
 IR Inten    --      0.0571

 - Thermochemistry -
 -------------------
 Temperature   298.150 Kelvin.  Pressure   1.00000 Atm.
 Atom     1 has atomic number  1 and mass   1.00783

 Molecular mass:    21.01405 amu.
 Principal axes and moments of inertia in atomic units:
                           1         2         3
     Eigenvalues --     0.00000 162.09951 162.09951
           X            1.00000  -0.00000   0.00000
           Y            0.00000   1.00000   0.00000
           Z            0.00000   0.00000   1.00000
 This molecule is a prolate symmetric top.
 Rotational symmetry number  1.
 Rotational temperature (Kelvin)      0.53433
 Rotational constant (GHZ):          11.133539
    2 imaginary frequencies ignored.
 Zero-point vibrational energy       2532.7 (Joules/Mol)
                                    0.60533 (Kcal/Mol)
 Warning -- explicit consideration of   2 degrees of freedom as
           vibrations may cause significant error
 Vibrational temperatures:    304.61   304.61
          (Kelvin)

 Zero-point correction=                           0.000965 (Hartree/Particle)
 Thermal correction to Energy=                    0.004410
 Thermal correction to Enthalpy=                  0.005354
 Thermal correction to Gibbs Free Energy=        -0.020805
 Sum of electronic and zero-point Energies=           -100.761065
 Sum of electronic and thermal Energies=              -100.757619
 Sum of electronic and thermal Enthalpies=            -100.756675
 Sum of electronic and thermal Free Energies=         -100.782835

                     E (Thermal)             CV                S
                      KCal/Mol        Cal/Mol-Kelvin    Cal/Mol-Kelvin
 Total                    2.768              8.614             55.058
 Electronic               0.000              0.000              1.377
 Translational            0.889              2.981             35.068
 Rotational               0.592              1.987             14.555
 Vibrational              1.286              3.646              4.058
 Vibration     1          0.643              1.823              2.029
 Vibration     2          0.643              1.823              2.029

 Normal termination of Gaussian 16 at Fri Aug 22 22:09:57 2025.
