 Gaussian 16, Revision C.01,
 Gaussian 16:  ES64L-G16RevC.01  3-Jul-2019

 -----------------------------------------
 # sp b3lyp/6-311g** Force nosymm scf=(qc)
 -----------------------------------------

 -------------------
 Title Card Required
 -------------------
 Symbolic Z-matrix:
 Charge =  0 Multiplicity = 2

                          Input orientation:
 ---------------------------------------------------------------------
 Center     Atomic      Atomic             Coordinates (Angstroms)
 Number     Number       Type             X           Y           Z
 ---------------------------------------------------------------------
      1          1           0        0.000000    0.000000    0.000000
      2          1           0       -0.750000    0.000000    0.000000
      3          9           0        3.500000    0.000000    0.000000
 ---------------------------------------------------------------------

 SCF Done:  E(UB3LYP) =  -100.933969702     a.u. after  209 cycles

 Alpha  occ. eigenvalues --  -24.76349  -1.22206  -0.55407  -0.46605  -0.46560
 Alpha  occ. eigenvalues --   -0.43138
 Alpha virt. eigenvalues --    0.05788   0.19808   0.46463   0.86002   0.90878
 Alpha virt. eigenvalues --    0.92834   1.02017   1.08545   1.08548   1.55202
 Alpha virt. eigenvalues --    1.82399   1.82402   1.97128   2.38099   3.28237

  Beta  occ. eigenvalues --  -24.73191  -1.13127  -0.43531  -0.43394  -0.43044
  Beta virt. eigenvalues --   -0.26045   0.05805   0.19818   0.46522   0.92378
  Beta virt. eigenvalues --    0.94369   0.95466   1.06049   1.08544   1.08548
  Beta virt. eigenvalues --    1.55209   1.82398   1.82402   1.97148   2.38101

 Mulliken charges and spin densities:
               1          2
     1  H   -0.001773  -0.000472
     2  H   -0.002281   0.000003
     3  F    0.004054   1.000469
 Sum of Mulliken charges =   0.00000   1.00000

 Dipole moment (field-independent basis, Debye):
    X=              0.0483    Y=              0.0000    Z=              0.0000  Tot=              0.0483
 Quadrupole moment (field-independent basis, Debye-Ang):
   XX=             -6.1945   YY=             -6.0902   ZZ=             -6.9536
   XY=              0.0000   XZ=             -0.0000   YZ=             -0.0181

  Exact polarizability:       8.298       0.000       2.421      -0.000      -0.010       1.958
 Approx polarizability:       9.552       0.000       2.615      -0.000      -0.012       2.034

 ******    1 imaginary frequencies (negative Signs) ******

                      1                      2                      3
                      A                      A                      A
 Frequencies --    -23.0154               413.9377               416.5135
 Red. masses --      1.1085                 1.0088                 1.0088
 Frc consts  --      0.0003                 0.1018                 0.1031
 IR Inten    --      0.1413                 0.0012                 0.0010

                      4
                      A
 Frequencies --   4337.3168
 Red. masses --      1.0078
 Frc consts  --     11.1706
 IR Inten    --      0.0743

 - Thermochemistry -
 -------------------
 Temperature   298.150 Kelvin.  Pressure   1.00000 Atm.
 Atom     1 has atomic number  1 and mass   1.00783

 Molecular mass:    21.01405 amu.
 Principal axes and moments of inertia in atomic units:
                           1         2         3
     Eigenvalues --     0.00000  98.72774  98.72774
           X            1.00000  -0.00000   0.00000
           Y            0.00000   1.00000   0.00000
           Z            0.00000   0.00000   1.00000
 This molecule is a prolate symmetric top.
 Rotational symmetry number  1.
 Rotational temperature (Kelvin)      0.87730
 Rotational constant (GHZ):          18.279980
    1 imaginary frequencies ignored.
 Zero-point vibrational energy      30910.1 (Joules/Mol)
                                    7.38770 (Kcal/Mol)
 Warning -- explicit consideration of   2 degrees of freedom as
           vibrations may cause significant error
 Vibrational temperatures:    595.56   599.27  6240.43
          (Kelvin)

 Zero-point correction=                           0.011773 (Hartree/Particle)
 Thermal correction to Energy=                    0.014723
 Thermal correction to Enthalpy=                  0.015667
 Thermal correction to Gibbs Free Energy=        -0.008960
 Sum of electronic and zero-point Energies=           -100.922197
 Sum of electronic and thermal Energies=              -100.919247
 Sum of electronic and thermal Enthalpies=            -100.918302
 Sum of electronic and thermal Free Energies=         -100.942929

                     E (Thermal)             CV                S
                      KCal/Mol        Cal/Mol-Kelvin    Cal/Mol-Kelvin
 Total                    9.239              7.842             51.832
 Electronic               0.000              0.000              1.377
 Translational            0.889              2.981             35.068
 Rotational               0.592              1.987             13.570
 Vibrational              7.758              2.874              1.817
 Vibration     1          0.778              1.440              0.913
 Vibration     2          0.780              1.434              0.904

 Normal termination of Gaussian 16 at Fri Aug 22 21:49:02 2025.
