 Gaussian 16, Revision C.01,
 Gaussian 16:  ES64L-G16RevC.01  3-Jul-2019

 -----------------------------------------
 # sp b3lyp/6-311g** Force nosymm scf=(qc)
 -----------------------------------------

 -------------------
 Title Card Required
 -------------------
 Symbolic Z-matrix:
 Charge =  0 Multiplicity = 2

                          Input orientation:
 ---------------------------------------------------------------------
 Center     Atomic      Atomic             Coordinates (Angstroms)
 Number     Number       Type             X           Y           Z
 ---------------------------------------------------------------------
      1          1           0        0.000000    0.000000    0.000000
      2          1           0       -3.800000    0.000000    0.000000
      3          9           0        1.250000    0.000000    0.000000
 ---------------------------------------------------------------------

 SCF Done:  E(UB3LYP) =  -100.913415949     a.u. after    6 cycles

 Alpha  occ. eigenvalues --  -24.64374  -1.11652  -0.46886  -0.37294  -0.37294
 Alpha  occ. eigenvalues --   -0.33628
 Alpha virt. eigenvalues --   -0.07390   0.21748   0.28587   0.93047   0.93047
 Alpha virt. eigenvalues --    1.01432   1.23735   1.23881   1.23881   1.24093
 Alpha virt. eigenvalues --    1.34237   1.34237   1.70951   2.13461   2.26565

  Beta  occ. eigenvalues --  -24.64372  -1.11645  -0.46879  -0.37292  -0.37292
  Beta virt. eigenvalues --   -0.08048  -0.05242   0.25719   0.38717   0.93046
  Beta virt. eigenvalues --    0.93046   1.01439   1.23997   1.34230   1.34230
  Beta virt. eigenvalues --    1.47627   1.47627   1.47981   1.70973   2.25885

 Mulliken charges and spin densities:
               1          2
     1  H    0.356903  -0.000125
     2  H    0.000669   0.999280
     3  F   -0.357573   0.000844
 Sum of Mulliken charges =   0.00000   1.00000

 Dipole moment (field-independent basis, Debye):
    X=             -2.3443    Y=             -0.0000    Z=             -0.0000  Tot=              2.3443
 Quadrupole moment (field-independent basis, Debye-Ang):
   XX=             -9.0750   YY=             -7.1645   ZZ=             -7.1645
   XY=             -0.0000   XZ=             -0.0000   YZ=             -0.0000

  Exact polarizability:      10.060       0.000       2.301      -0.000      -0.000       2.301
 Approx polarizability:      15.050       0.000       2.249      -0.000      -0.000       2.249

 ******    1 imaginary frequencies (negative Signs) ******

                      1                      2                      3
                      A                      A                      A
 Frequencies --    -44.3259               450.0091              1191.8335
 Red. masses --      1.0518                 1.0598                 1.0348
 Frc consts  --      0.0012                 0.1264                 0.8660
 IR Inten    --      0.0923                59.7750               142.8383

                      4
                      A
 Frequencies --   1191.8335
 Red. masses --      1.0348
 Frc consts  --      0.8660
 IR Inten    --    142.8383

 - Thermochemistry -
 -------------------
 Temperature   298.150 Kelvin.  Pressure   1.00000 Atm.
 Atom     1 has atomic number  1 and mass   1.00783

 Molecular mass:    21.01405 amu.
 Principal axes and moments of inertia in atomic units:
                           1         2         3
     Eigenvalues --     0.00000  90.55640  90.55640
           X            1.00000  -0.00000   0.00000
           Y            0.00000   1.00000   0.00000
           Z            0.00000   0.00000   1.00000
 This molecule is a prolate symmetric top.
 Rotational symmetry number  1.
 Rotational temperature (Kelvin)      0.95646
 Rotational constant (GHZ):          19.929472
    1 imaginary frequencies ignored.
 Zero-point vibrational energy      16949.1 (Joules/Mol)
                                    4.05094 (Kcal/Mol)
 Warning -- explicit consideration of   1 degrees of freedom as
           vibrations may cause significant error
 Vibrational temperatures:    647.46  1714.78  1714.78
          (Kelvin)

 Zero-point correction=                           0.006456 (Hartree/Particle)
 Thermal correction to Energy=                    0.009114
 Thermal correction to Enthalpy=                  0.010059
 Thermal correction to Gibbs Free Energy=        -0.014042
 Sum of electronic and zero-point Energies=           -100.906960
 Sum of electronic and thermal Energies=              -100.904301
 Sum of electronic and thermal Enthalpies=            -100.903357
 Sum of electronic and thermal Free Energies=         -100.927458

                     E (Thermal)             CV                S
                      KCal/Mol        Cal/Mol-Kelvin    Cal/Mol-Kelvin
 Total                    5.719              6.749             50.725
 Electronic               0.000              0.000              1.377
 Translational            0.889              2.981             35.068
 Rotational               0.592              1.987             13.398
 Vibrational              4.238              1.781              0.881
 Vibration     1          0.809              1.361              0.796

 Normal termination of Gaussian 16 at Fri Aug 22 16:13:47 2025.
