 Gaussian 16, Revision C.01,
 Gaussian 16:  ES64L-G16RevC.01  3-Jul-2019

 -----------------------------------------
 # sp b3lyp/6-311g** Force nosymm scf=(qc)
 -----------------------------------------

 -------------------
 Title Card Required
 -------------------
 Symbolic Z-matrix:
 Charge =  0 Multiplicity = 2

                          Input orientation:
 ---------------------------------------------------------------------
 Center     Atomic      Atomic             Coordinates (Angstroms)
 Number     Number       Type             X           Y           Z
 ---------------------------------------------------------------------
      1          1           0        0.000000    0.000000    0.000000
      2          1           0       -3.600000    0.000000    0.000000
      3          9           0        1.800000    0.000000    0.000000
 ---------------------------------------------------------------------

 SCF Done:  E(UB3LYP) =  -100.804615425     a.u. after   16 cycles

 Alpha  occ. eigenvalues --  -24.66602  -1.12782  -0.45391  -0.38349  -0.38349
 Alpha  occ. eigenvalues --   -0.33626
 Alpha virt. eigenvalues --   -0.14973   0.21620   0.29998   0.92762   0.94762
 Alpha virt. eigenvalues --    0.94762   1.05770   1.23886   1.23886   1.23926
 Alpha virt. eigenvalues --    1.33695   1.33695   1.69696   2.13640   2.25882

  Beta  occ. eigenvalues --  -24.64700  -1.07544  -0.39361  -0.36493  -0.36493
  Beta virt. eigenvalues --   -0.19270  -0.06887   0.21905   0.37904   0.93368
  Beta virt. eigenvalues --    0.94770   0.94770   1.07884   1.23735   1.23735
  Beta virt. eigenvalues --    1.45624   1.46021   1.46021   1.64748   2.12083

 Mulliken charges and spin densities:
               1          2
     1  H    0.255751  -0.596457
     2  H    0.001518   0.998072
     3  F   -0.257269   0.598385
 Sum of Mulliken charges =   0.00000   1.00000

 Dipole moment (field-independent basis, Debye):
    X=             -2.2873    Y=             -0.0000    Z=              0.0000  Tot=              2.2873
 Quadrupole moment (field-independent basis, Debye-Ang):
   XX=            -10.1864   YY=             -7.4382   ZZ=             -7.4382
   XY=             -0.0000   XZ=              0.0000   YZ=              0.0000

  Exact polarizability:      23.127       0.000       2.097       0.000       0.000       2.097
 Approx polarizability:      36.041      -0.000       1.987       0.000      -0.000       1.987

 ******    2 imaginary frequencies (negative Signs) ******

                      1                      2                      3
                      A                      A                      A
 Frequencies --  -1514.5143              -102.4785               656.7419
 Red. masses --      1.0577                 1.0539                 1.0281
 Frc consts  --      1.4294                 0.0065                 0.2612
 IR Inten    --    132.0359                 0.2084                61.0635

                      4
                      A
 Frequencies --    656.7419
 Red. masses --      1.0281
 Frc consts  --      0.2612
 IR Inten    --     61.0635

 - Thermochemistry -
 -------------------
 Temperature   298.150 Kelvin.  Pressure   1.00000 Atm.
 Atom     1 has atomic number  1 and mass   1.00783

 Molecular mass:    21.01405 amu.
 Principal axes and moments of inertia in atomic units:
                           1         2         3
     Eigenvalues --     0.00000 107.65993 107.65993
           X            1.00000  -0.00000   0.00000
           Y            0.00000   1.00000   0.00000
           Z            0.00000   0.00000   1.00000
 This molecule is a prolate symmetric top.
 Rotational symmetry number  1.
 Rotational temperature (Kelvin)      0.80451
 Rotational constant (GHZ):          16.763350
    2 imaginary frequencies ignored.
 Zero-point vibrational energy       7856.4 (Joules/Mol)
                                    1.87772 (Kcal/Mol)
 Vibrational temperatures:    944.91   944.91
          (Kelvin)

 Zero-point correction=                           0.002992 (Hartree/Particle)
 Thermal correction to Energy=                    0.005615
 Thermal correction to Enthalpy=                  0.006560
 Thermal correction to Gibbs Free Energy=        -0.017630
 Sum of electronic and zero-point Energies=           -100.801623
 Sum of electronic and thermal Energies=              -100.799000
 Sum of electronic and thermal Enthalpies=            -100.798056
 Sum of electronic and thermal Free Energies=         -100.822245

                     E (Thermal)             CV                S
                      KCal/Mol        Cal/Mol-Kelvin    Cal/Mol-Kelvin
 Total                    3.524              6.797             50.911
 Electronic               0.000              0.000              1.377
 Translational            0.889              2.981             35.068
 Rotational               0.592              1.987             13.742
 Vibrational              2.043              1.829              0.723

 Normal termination of Gaussian 16 at Fri Aug 22 16:45:05 2025.
