 Gaussian 16, Revision C.01,
 Gaussian 16:  ES64L-G16RevC.01  3-Jul-2019

 -----------------------------------------
 # sp b3lyp/6-311g** Force nosymm scf=(qc)
 -----------------------------------------

 -------------------
 Title Card Required
 -------------------
 Symbolic Z-matrix:
 Charge =  0 Multiplicity = 2

                          Input orientation:
 ---------------------------------------------------------------------
 Center     Atomic      Atomic             Coordinates (Angstroms)
 Number     Number       Type             X           Y           Z
 ---------------------------------------------------------------------
      1          1           0        0.000000    0.000000    0.000000
      2          1           0       -1.050000    0.000000    0.000000
      3          9           0        1.150000    0.000000    0.000000
 ---------------------------------------------------------------------

 SCF Done:  E(UB3LYP) =  -100.950157780     a.u. after    6 cycles

 Alpha  occ. eigenvalues --  -24.65207  -1.14933  -0.55301  -0.38817  -0.38817
 Alpha  occ. eigenvalues --   -0.37605
 Alpha virt. eigenvalues --    0.08628   0.19088   0.36935   0.90259   0.90259
 Alpha virt. eigenvalues --    0.98655   1.08203   1.08203   1.33551   1.59385
 Alpha virt. eigenvalues --    1.59385   1.60399   2.22662   2.29683   2.61615

  Beta  occ. eigenvalues --  -24.63966  -1.11762  -0.48831  -0.37676  -0.37676
  Beta virt. eigenvalues --   -0.20508   0.11112   0.21515   0.41332   0.91477
  Beta virt. eigenvalues --    0.91477   1.01367   1.13610   1.13610   1.38266
  Beta virt. eigenvalues --    1.63234   1.63234   1.65016   2.27392   2.36296

 Mulliken charges and spin densities:
               1          2
     1  H    0.272711  -0.052293
     2  H    0.037492   0.701966
     3  F   -0.310203   0.350327
 Sum of Mulliken charges =  -0.00000   1.00000

 Dipole moment (field-independent basis, Debye):
    X=             -2.1850    Y=              0.0000    Z=             -0.0000  Tot=              2.1850
 Quadrupole moment (field-independent basis, Debye-Ang):
   XX=             -7.6970   YY=             -6.8110   ZZ=             -6.8110
   XY=              0.0000   XZ=             -0.0000   YZ=             -0.0000

  Exact polarizability:      19.557      -0.000       2.531       0.000       0.000       2.531
 Approx polarizability:      25.458      -0.000       2.537      -0.000       0.000       2.537

 ******    1 imaginary frequencies (negative Signs) ******

                      1                      2                      3
                      A                      A                      A
 Frequencies --  -1913.0677               922.3725               922.3725
 Red. masses --      1.0239                 1.0169                 1.0169
 Frc consts  --      2.2079                 0.5097                 0.5097
 IR Inten    --    133.6172                36.4063                36.4063

                      4
                      A
 Frequencies --   1222.5936
 Red. masses --      1.0897
 Frc consts  --      0.9597
 IR Inten    --     59.7224

 - Thermochemistry -
 -------------------
 Temperature   298.150 Kelvin.  Pressure   1.00000 Atm.
 Atom     1 has atomic number  1 and mass   1.00783

 Molecular mass:    21.01405 amu.
 Principal axes and moments of inertia in atomic units:
                           1         2         3
     Eigenvalues --     0.00000  20.24181  20.24181
           X            1.00000  -0.00000   0.00000
           Y            0.00000   1.00000   0.00000
           Z            0.00000   0.00000   1.00000
 This molecule is a prolate symmetric top.
 Rotational symmetry number  1.
 Rotational temperature (Kelvin)      4.27896
 Rotational constant (GHZ):          89.159087
    1 imaginary frequencies ignored.
 Zero-point vibrational energy      18346.8 (Joules/Mol)
                                    4.38498 (Kcal/Mol)
 Vibrational temperatures:   1327.09  1327.09  1759.04
          (Kelvin)

 Zero-point correction=                           0.006988 (Hartree/Particle)
 Thermal correction to Energy=                    0.009463
 Thermal correction to Enthalpy=                  0.010407
 Thermal correction to Gibbs Free Energy=        -0.012000
 Sum of electronic and zero-point Energies=           -100.943170
 Sum of electronic and thermal Energies=              -100.940695
 Sum of electronic and thermal Enthalpies=            -100.939751
 Sum of electronic and thermal Free Energies=         -100.962158

                     E (Thermal)             CV                S
                      KCal/Mol        Cal/Mol-Kelvin    Cal/Mol-Kelvin
 Total                    5.938              6.099             47.159
 Electronic               0.000              0.000              1.377
 Translational            0.889              2.981             35.068
 Rotational               0.592              1.987             10.421
 Vibrational              4.457              1.131              0.293

 Normal termination of Gaussian 16 at Fri Aug 22 16:07:04 2025.
