 Gaussian 16, Revision C.01,
 Gaussian 16:  ES64L-G16RevC.01  3-Jul-2019

 -----------------------------------------
 # sp b3lyp/6-311g** Force nosymm scf=(qc)
 -----------------------------------------

 -------------------
 Title Card Required
 -------------------
 Symbolic Z-matrix:
 Charge =  0 Multiplicity = 2

                          Input orientation:
 ---------------------------------------------------------------------
 Center     Atomic      Atomic             Coordinates (Angstroms)
 Number     Number       Type             X           Y           Z
 ---------------------------------------------------------------------
      1          1           0        0.000000    0.000000    0.000000
      2          1           0       -1.250000    0.000000    0.000000
      3          9           0        3.100000    0.000000    0.000000
 ---------------------------------------------------------------------

 SCF Done:  E(UB3LYP) =  -100.863156590     a.u. after  153 cycles

 Alpha  occ. eigenvalues --  -24.76620  -1.22453  -0.55645  -0.46880  -0.46796
 Alpha  occ. eigenvalues --   -0.35675
 Alpha virt. eigenvalues --   -0.04973   0.23315   0.33609   0.85799   0.90673
 Alpha virt. eigenvalues --    0.93160   1.03071   1.14212   1.14217   1.18902
 Alpha virt. eigenvalues --    1.51968   1.51973   2.03792   2.30766   2.54608

  Beta  occ. eigenvalues --  -24.73460  -1.13370  -0.43718  -0.43628  -0.35666
  Beta virt. eigenvalues --   -0.26274  -0.04960   0.23334   0.33675   0.92172
  Beta virt. eigenvalues --    0.94787   0.95259   1.07003   1.14211   1.14216
  Beta virt. eigenvalues --    1.18911   1.51967   1.51972   2.03801   2.30770

 Mulliken charges and spin densities:
               1          2
     1  H   -0.000985  -0.000138
     2  H   -0.005625  -0.000717
     3  F    0.006610   1.000855
 Sum of Mulliken charges =   0.00000   1.00000

 Dipole moment (field-independent basis, Debye):
    X=              0.0925    Y=              0.0000    Z=             -0.0000  Tot=              0.0925
 Quadrupole moment (field-independent basis, Debye-Ang):
   XX=             -6.1684   YY=             -7.1165   ZZ=             -7.1213
   XY=             -0.0000   XZ=              0.0000   YZ=             -0.4319

  Exact polarizability:      17.490      -0.000       2.311       0.000      -0.231       2.308
 Approx polarizability:      27.026      -0.000       2.392       0.000      -0.290       2.389

 ******    1 imaginary frequencies (negative Signs) ******

                      1                      2                      3
                      A                      A                      A
 Frequencies --   -788.6179                30.5961              1432.9248
 Red. masses --      1.0078                 1.1085                 1.0106
 Frc consts  --      0.3693                 0.0006                 1.2226
 IR Inten    --      0.7393                 0.4640                 0.0020

                      4
                      A
 Frequencies --   1433.0773
 Red. masses --      1.0106
 Frc consts  --      1.2228
 IR Inten    --      0.0022

 - Thermochemistry -
 -------------------
 Temperature   298.150 Kelvin.  Pressure   1.00000 Atm.
 Atom     1 has atomic number  1 and mass   1.00783

 Molecular mass:    21.01405 amu.
 Principal axes and moments of inertia in atomic units:
                           1         2         3
     Eigenvalues --     0.00000  93.10860  93.10860
           X            1.00000  -0.00000   0.00000
           Y            0.00000   1.00000   0.00000
           Z            0.00000   0.00000   1.00000
 This molecule is a prolate symmetric top.
 Rotational symmetry number  1.
 Rotational temperature (Kelvin)      0.93025
 Rotational constant (GHZ):          19.383186
    1 imaginary frequencies ignored.
 Zero-point vibrational energy      17325.5 (Joules/Mol)
                                    4.14090 (Kcal/Mol)
 Warning -- explicit consideration of   1 degrees of freedom as
           vibrations may cause significant error
 Vibrational temperatures:     44.02  2061.66  2061.88
          (Kelvin)

 Zero-point correction=                           0.006599 (Hartree/Particle)
 Thermal correction to Energy=                    0.009849
 Thermal correction to Enthalpy=                  0.010793
 Thermal correction to Gibbs Free Energy=        -0.015682
 Sum of electronic and zero-point Energies=           -100.856558
 Sum of electronic and thermal Energies=              -100.853308
 Sum of electronic and thermal Enthalpies=            -100.852364
 Sum of electronic and thermal Free Energies=         -100.878838

                     E (Thermal)             CV                S
                      KCal/Mol        Cal/Mol-Kelvin    Cal/Mol-Kelvin
 Total                    6.180              7.141             55.720
 Electronic               0.000              0.000              1.377
 Translational            0.889              2.981             35.068
 Rotational               0.592              1.987             13.453
 Vibrational              4.699              2.173              5.822
 Vibration     1          0.594              1.984              5.790

 Normal termination of Gaussian 16 at Fri Aug 22 19:51:26 2025.
