 Gaussian 16, Revision C.01,
 Gaussian 16:  ES64L-G16RevC.01  3-Jul-2019

 -----------------------------------------
 # sp b3lyp/6-311g** Force nosymm scf=(qc)
 -----------------------------------------

 -------------------
 Title Card Required
 -------------------
 Symbolic Z-matrix:
 Charge =  0 Multiplicity = 2

                          Input orientation:
 ---------------------------------------------------------------------
 Center     Atomic      Atomic             Coordinates (Angstroms)
 Number     Number       Type             X           Y           Z
 ---------------------------------------------------------------------
      1          1           0        0.000000    0.000000    0.000000
      2          1           0       -3.350000    0.000000    0.000000
      3          9           0        3.750000    0.000000    0.000000
 ---------------------------------------------------------------------

 SCF Done:  E(UB3LYP) =  -100.758962011     a.u. after   33 cycles

 Alpha  occ. eigenvalues --  -24.75711  -1.21650  -0.54835  -0.46040  -0.46040
 Alpha  occ. eigenvalues --   -0.32308
 Alpha virt. eigenvalues --   -0.07037   0.24512   0.37195   0.86955   0.91277
 Alpha virt. eigenvalues --    0.91277   1.01328   1.25202   1.25202   1.25454
 Alpha virt. eigenvalues --    1.45072   1.45303   1.45303   2.15286   2.40738

  Beta  occ. eigenvalues --  -24.72577  -1.12639  -0.42898  -0.42898  -0.32599
  Beta virt. eigenvalues --   -0.25649  -0.06714   0.24318   0.37712   0.92773
  Beta virt. eigenvalues --    0.92773   0.96236   1.05414   1.24876   1.24876
  Beta virt. eigenvalues --    1.25109   1.45583   1.45813   1.45813   2.15366

 Mulliken charges and spin densities:
               1          2
     1  H    0.005347  -0.990793
     2  H    0.000161   0.996894
     3  F   -0.005508   0.993899
 Sum of Mulliken charges =  -0.00000   1.00000

 Dipole moment (field-independent basis, Debye):
    X=             -0.1091    Y=             -0.0000    Z=              0.0000  Tot=              0.1091
 Quadrupole moment (field-independent basis, Debye-Ang):
   XX=             -7.0743   YY=             -7.6260   ZZ=             -7.6260
   XY=              0.0000   XZ=              0.0000   YZ=              0.0000

  Exact polarizability:      17.278       0.000       2.030       0.000       0.000       2.030
 Approx polarizability:      12.816       0.000       1.935       0.000       0.000       1.935

 ******    2 imaginary frequencies (negative Signs) ******

                      1                      2                      3
                      A                      A                      A
 Frequencies --   -238.5293               -92.7862                80.7639
 Red. masses --      1.0126                 1.1028                 1.0166
 Frc consts  --      0.0339                 0.0056                 0.0039
 IR Inten    --      2.9484                 1.2875                 0.0271

                      4
                      A
 Frequencies --     80.7639
 Red. masses --      1.0166
 Frc consts  --      0.0039
 IR Inten    --      0.0271

 - Thermochemistry -
 -------------------
 Temperature   298.150 Kelvin.  Pressure   1.00000 Atm.
 Atom     1 has atomic number  1 and mass   1.00783

 Molecular mass:    21.01405 amu.
 Principal axes and moments of inertia in atomic units:
                           1         2         3
     Eigenvalues --     0.00000 211.71736 211.71736
           X            1.00000  -0.00000   0.00000
           Y            0.00000   1.00000   0.00000
           Z            0.00000   0.00000   1.00000
 This molecule is a prolate symmetric top.
 Rotational symmetry number  1.
 Rotational temperature (Kelvin)      0.40910
 Rotational constant (GHZ):           8.524295
    2 imaginary frequencies ignored.
 Zero-point vibrational energy        966.2 (Joules/Mol)
                                    0.23092 (Kcal/Mol)
 Warning -- explicit consideration of   2 degrees of freedom as
           vibrations may cause significant error
 Vibrational temperatures:    116.20   116.20
          (Kelvin)

 Zero-point correction=                           0.000368 (Hartree/Particle)
 Thermal correction to Energy=                    0.004273
 Thermal correction to Enthalpy=                  0.005217
 Thermal correction to Gibbs Free Energy=        -0.022947
 Sum of electronic and zero-point Energies=           -100.758594
 Sum of electronic and thermal Energies=              -100.754689
 Sum of electronic and thermal Enthalpies=            -100.753745
 Sum of electronic and thermal Free Energies=         -100.781909

                     E (Thermal)             CV                S
                      KCal/Mol        Cal/Mol-Kelvin    Cal/Mol-Kelvin
 Total                    2.681              8.892             59.276
 Electronic               0.000              0.000              1.377
 Translational            0.889              2.981             35.068
 Rotational               0.592              1.987             15.086
 Vibrational              1.200              3.924              7.744
 Vibration     1          0.600              1.962              3.872
 Vibration     2          0.600              1.962              3.872

 Normal termination of Gaussian 16 at Sat Aug 23 00:27:28 2025.
