 Gaussian 16, Revision C.01,
 Gaussian 16:  ES64L-G16RevC.01  3-Jul-2019

 -----------------------------------------
 # sp b3lyp/6-311g** Force nosymm scf=(qc)
 -----------------------------------------

 -------------------
 Title Card Required
 -------------------
 Symbolic Z-matrix:
 Charge =  0 Multiplicity = 2

                          Input orientation:
 ---------------------------------------------------------------------
 Center     Atomic      Atomic             Coordinates (Angstroms)
 Number     Number       Type             X           Y           Z
 ---------------------------------------------------------------------
      1          1           0        0.000000    0.000000    0.000000
      2          1           0       -0.500000    0.000000    0.000000
      3          9           0        0.500000    0.000000    0.000000
 ---------------------------------------------------------------------

 SCF Done:  E(UB3LYP) =  -99.9086370801     a.u. after    6 cycles

 Alpha  occ. eigenvalues --  -24.75981  -1.66973  -0.80638  -0.56324  -0.56324
 Alpha  occ. eigenvalues --   -0.20566
 Alpha virt. eigenvalues --    0.15752   0.22114   0.79018   0.79458   0.79458
 Alpha virt. eigenvalues --    0.99505   1.13749   1.13749   1.43169   1.47531
 Alpha virt. eigenvalues --    2.17249   2.17249   2.37772   3.65082   3.65082

  Beta  occ. eigenvalues --  -24.75186  -1.64027  -0.78899  -0.55661  -0.55661
  Beta virt. eigenvalues --   -0.04255   0.16647   0.28819   0.79888   0.80665
  Beta virt. eigenvalues --    0.80665   1.05964   1.18922   1.18922   1.45367
  Beta virt. eigenvalues --    1.50685   2.22623   2.22623   2.45903   3.65465

 Mulliken charges and spin densities:
               1          2
     1  H    0.093058  -0.209846
     2  H   -0.329682   1.213626
     3  F    0.236624  -0.003779
 Sum of Mulliken charges =   0.00000   1.00000

 Dipole moment (field-independent basis, Debye):
    X=              0.7218    Y=              0.0000    Z=              0.0000  Tot=              0.7218
 Quadrupole moment (field-independent basis, Debye-Ang):
   XX=             -7.9668   YY=             -6.6731   ZZ=             -6.6731
   XY=              0.0000   XZ=              0.0000   YZ=             -0.0000

  Exact polarizability:       8.415      -0.000       2.359       0.000       0.000       2.359
 Approx polarizability:       7.825      -0.000       2.493      -0.000       0.000       2.493

 ******    2 imaginary frequencies (negative Signs) ******

                      1                      2                      3
                      A                      A                      A
 Frequencies -- -10306.5639            -10306.5639              7070.1218
 Red. masses --      1.0179                 1.0179                 1.0666
 Frc consts  --     63.7092                63.7092                31.4121
 IR Inten    --    293.2322               293.2322              1088.4340

                      4
                      A
 Frequencies --  20362.6681
 Red. masses --      1.0452
 Frc consts  --    255.3364
 IR Inten    --     17.2500

 - Thermochemistry -
 -------------------
 Temperature   298.150 Kelvin.  Pressure   1.00000 Atm.
 Atom     1 has atomic number  1 and mass   1.00783

 Molecular mass:    21.01405 amu.
 Principal axes and moments of inertia in atomic units:
                           1         2         3
     Eigenvalues --     0.00000   4.11040   4.11040
           X            1.00000  -0.00000   0.00000
           Y            0.00000   1.00000   0.00000
           Z            0.00000   0.00000   1.00000
 This molecule is a prolate symmetric top.
 Rotational symmetry number  1.
 Rotational temperature (Kelvin)     21.07192
 Rotational constant (GHZ):         439.067572
    2 imaginary frequencies ignored.
 Zero-point vibrational energy     164084.5 (Joules/Mol)
                                   39.21714 (Kcal/Mol)
 Vibrational temperatures:  10172.33 29297.34
          (Kelvin)

 Zero-point correction=                           0.062496 (Hartree/Particle)
 Thermal correction to Energy=                    0.064857
 Thermal correction to Enthalpy=                  0.065801
 Thermal correction to Gibbs Free Energy=         0.045039
 Sum of electronic and zero-point Energies=            -99.846141
 Sum of electronic and thermal Energies=               -99.843780
 Sum of electronic and thermal Enthalpies=             -99.842836
 Sum of electronic and thermal Free Energies=          -99.863598

                     E (Thermal)             CV                S
                      KCal/Mol        Cal/Mol-Kelvin    Cal/Mol-Kelvin
 Total                   40.698              4.968             43.698
 Electronic               0.000              0.000              1.377
 Translational            0.889              2.981             35.068
 Rotational               0.592              1.987              7.253
 Vibrational             39.217              0.000              0.000

 Normal termination of Gaussian 16 at Fri Aug 22 15:35:51 2025.
