 Gaussian 16, Revision C.01,
 Gaussian 16:  ES64L-G16RevC.01  3-Jul-2019

 -----------------------------------------
 # sp b3lyp/6-311g** Force nosymm scf=(qc)
 -----------------------------------------

 -------------------
 Title Card Required
 -------------------
 Symbolic Z-matrix:
 Charge =  0 Multiplicity = 2

                          Input orientation:
 ---------------------------------------------------------------------
 Center     Atomic      Atomic             Coordinates (Angstroms)
 Number     Number       Type             X           Y           Z
 ---------------------------------------------------------------------
      1          1           0        0.000000    0.000000    0.000000
      2          1           0       -3.000000    0.000000    0.000000
      3          9           0        2.650000    0.000000    0.000000
 ---------------------------------------------------------------------

 SCF Done:  E(UB3LYP) =  -100.765586786     a.u. after   20 cycles

 Alpha  occ. eigenvalues --  -24.72575  -1.18738  -0.51685  -0.43409  -0.43409
 Alpha  occ. eigenvalues --   -0.33031
 Alpha virt. eigenvalues --   -0.10229   0.24301   0.34696   0.90091   0.93160
 Alpha virt. eigenvalues --    0.93160   1.05954   1.24510   1.24510   1.25411
 Alpha virt. eigenvalues --    1.41030   1.41030   1.42930   2.15204   2.36475

  Beta  occ. eigenvalues --  -24.69662  -1.10423  -0.40500  -0.40500  -0.34792
  Beta virt. eigenvalues --   -0.23880  -0.07791   0.24753   0.36682   0.94573
  Beta virt. eigenvalues --    0.94573   0.97761   1.09021   1.22595   1.22595
  Beta virt. eigenvalues --    1.26527   1.44557   1.44557   1.44564   2.14665

 Mulliken charges and spin densities:
               1          2
     1  H    0.067438  -0.914238
     2  H    0.002650   0.992599
     3  F   -0.070089   0.921639
 Sum of Mulliken charges =  -0.00000   1.00000

 Dipole moment (field-independent basis, Debye):
    X=             -0.9873    Y=             -0.0000    Z=             -0.0000  Tot=              0.9873
 Quadrupole moment (field-independent basis, Debye-Ang):
   XX=             -8.8832   YY=             -7.5988   ZZ=             -7.5988
   XY=             -0.0000   XZ=             -0.0000   YZ=             -0.0000

  Exact polarizability:      35.231      -0.000       2.020      -0.000      -0.000       2.020
 Approx polarizability:      40.069      -0.000       1.920      -0.000       0.000       1.920

 ******    2 imaginary frequencies (negative Signs) ******

                      1                      2                      3
                      A                      A                      A
 Frequencies --   -572.9005              -208.7273               219.1310
 Red. masses --      1.0398                 1.0723                 1.0195
 Frc consts  --      0.2011                 0.0275                 0.0288
 IR Inten    --     63.0605                 3.8585                 4.1341

                      4
                      A
 Frequencies --    219.1310
 Red. masses --      1.0195
 Frc consts  --      0.0288
 IR Inten    --      4.1341

 - Thermochemistry -
 -------------------
 Temperature   298.150 Kelvin.  Pressure   1.00000 Atm.
 Atom     1 has atomic number  1 and mass   1.00783

 Molecular mass:    21.01405 amu.
 Principal axes and moments of inertia in atomic units:
                           1         2         3
     Eigenvalues --     0.00000 128.27250 128.27250
           X            1.00000  -0.00000   0.00000
           Y            0.00000   1.00000   0.00000
           Z            0.00000   0.00000   1.00000
 This molecule is a prolate symmetric top.
 Rotational symmetry number  1.
 Rotational temperature (Kelvin)      0.67523
 Rotational constant (GHZ):          14.069588
    2 imaginary frequencies ignored.
 Zero-point vibrational energy       2621.4 (Joules/Mol)
                                    0.62653 (Kcal/Mol)
 Warning -- explicit consideration of   2 degrees of freedom as
           vibrations may cause significant error
 Vibrational temperatures:    315.28   315.28
          (Kelvin)

 Zero-point correction=                           0.000998 (Hartree/Particle)
 Thermal correction to Energy=                    0.004422
 Thermal correction to Enthalpy=                  0.005366
 Thermal correction to Gibbs Free Energy=        -0.020514
 Sum of electronic and zero-point Energies=           -100.764588
 Sum of electronic and thermal Energies=              -100.761165
 Sum of electronic and thermal Enthalpies=            -100.760221
 Sum of electronic and thermal Free Energies=         -100.786100

                     E (Thermal)             CV                S
                      KCal/Mol        Cal/Mol-Kelvin    Cal/Mol-Kelvin
 Total                    2.775              8.592             54.468
 Electronic               0.000              0.000              1.377
 Translational            0.889              2.981             35.068
 Rotational               0.592              1.987             14.090
 Vibrational              1.293              3.624              3.933
 Vibration     1          0.647              1.812              1.966
 Vibration     2          0.647              1.812              1.966

 Normal termination of Gaussian 16 at Fri Aug 22 18:15:21 2025.
