 Gaussian 16, Revision C.01,
 Gaussian 16:  ES64L-G16RevC.01  3-Jul-2019

 -----------------------------------------
 # sp b3lyp/6-311g** Force nosymm scf=(qc)
 -----------------------------------------

 -------------------
 Title Card Required
 -------------------
 Symbolic Z-matrix:
 Charge =  0 Multiplicity = 2

                          Input orientation:
 ---------------------------------------------------------------------
 Center     Atomic      Atomic             Coordinates (Angstroms)
 Number     Number       Type             X           Y           Z
 ---------------------------------------------------------------------
      1          1           0        0.000000    0.000000    0.000000
      2          1           0       -1.650000    0.000000    0.000000
      3          9           0        0.750000    0.000000    0.000000
 ---------------------------------------------------------------------

 SCF Done:  E(UB3LYP) =  -100.919625571     a.u. after    6 cycles

 Alpha  occ. eigenvalues --  -24.63275  -1.25436  -0.57838  -0.41065  -0.41065
 Alpha  occ. eigenvalues --   -0.36058
 Alpha virt. eigenvalues --    0.11802   0.22424   0.47477   0.93923   0.93923
 Alpha virt. eigenvalues --    0.96683   1.19427   1.19427   1.24929   1.43793
 Alpha virt. eigenvalues --    1.43793   1.56024   2.03900   2.15635   2.82936

  Beta  occ. eigenvalues --  -24.63178  -1.25171  -0.57272  -0.40989  -0.40989
  Beta virt. eigenvalues --   -0.12286   0.13311   0.31013   0.50489   0.93987
  Beta virt. eigenvalues --    0.93987   0.96896   1.32905   1.34035   1.34035
  Beta virt. eigenvalues --    1.47720   1.47720   1.62948   2.06898   2.34792

 Mulliken charges and spin densities:
               1          2
     1  H    0.249604   0.012689
     2  H    0.015458   0.969331
     3  F   -0.265062   0.017980
 Sum of Mulliken charges =   0.00000   1.00000

 Dipole moment (field-independent basis, Debye):
    X=             -1.7700    Y=              0.0000    Z=             -0.0000  Tot=              1.7700
 Quadrupole moment (field-independent basis, Debye-Ang):
   XX=             -7.1459   YY=             -6.6422   ZZ=             -6.6422
   XY=              0.0000   XZ=             -0.0000   YZ=             -0.0000

  Exact polarizability:       7.713       0.000       2.528      -0.000      -0.000       2.528
 Approx polarizability:       7.622      -0.000       2.531      -0.000      -0.000       2.531

 ******    2 imaginary frequencies (negative Signs) ******

                      1                      2                      3
                      A                      A                      A
 Frequencies --  -2650.0949             -2650.0949               595.2446
 Red. masses --      1.0296                 1.0296                 1.0533
 Frc consts  --      4.2603                 4.2603                 0.2199
 IR Inten    --    151.1040               151.1040                 0.2800

                      4
                      A
 Frequencies --   7563.6729
 Red. masses --      1.0582
 Frc consts  --     35.6693
 IR Inten    --    165.1274

 - Thermochemistry -
 -------------------
 Temperature   298.150 Kelvin.  Pressure   1.00000 Atm.
 Atom     1 has atomic number  1 and mass   1.00783

 Molecular mass:    21.01405 amu.
 Principal axes and moments of inertia in atomic units:
                           1         2         3
     Eigenvalues --     0.00000  21.04204  21.04204
           X            1.00000  -0.00000   0.00000
           Y            0.00000   1.00000   0.00000
           Z            0.00000   0.00000   1.00000
 This molecule is a prolate symmetric top.
 Rotational symmetry number  1.
 Rotational temperature (Kelvin)      4.11623
 Rotational constant (GHZ):          85.768360
    2 imaginary frequencies ignored.
 Zero-point vibrational energy      48801.2 (Joules/Mol)
                                   11.66376 (Kcal/Mol)
 Warning -- explicit consideration of   1 degrees of freedom as
           vibrations may cause significant error
 Vibrational temperatures:    856.42 10882.44
          (Kelvin)

 Zero-point correction=                           0.018587 (Hartree/Particle)
 Thermal correction to Energy=                    0.021110
 Thermal correction to Enthalpy=                  0.022055
 Thermal correction to Gibbs Free Energy=        -0.000467
 Sum of electronic and zero-point Energies=           -100.901038
 Sum of electronic and thermal Energies=              -100.898515
 Sum of electronic and thermal Enthalpies=            -100.897571
 Sum of electronic and thermal Free Energies=         -100.920093

                     E (Thermal)             CV                S
                      KCal/Mol        Cal/Mol-Kelvin    Cal/Mol-Kelvin
 Total                   13.247              6.010             47.401
 Electronic               0.000              0.000              1.377
 Translational            0.889              2.981             35.068
 Rotational               0.592              1.987             10.498
 Vibrational             11.766              1.042              0.458
 Vibration     1          0.953              1.042              0.458

 Normal termination of Gaussian 16 at Fri Aug 22 15:48:31 2025.
