 Gaussian 16, Revision C.01,
 Gaussian 16:  ES64L-G16RevC.01  3-Jul-2019

 -----------------------------------------
 # sp b3lyp/6-311g** Force nosymm scf=(qc)
 -----------------------------------------

 -------------------
 Title Card Required
 -------------------
 Symbolic Z-matrix:
 Charge =  0 Multiplicity = 2

                          Input orientation:
 ---------------------------------------------------------------------
 Center     Atomic      Atomic             Coordinates (Angstroms)
 Number     Number       Type             X           Y           Z
 ---------------------------------------------------------------------
      1          1           0        0.000000    0.000000    0.000000
      2          1           0       -0.600000    0.000000    0.000000
      3          9           0        2.200000    0.000000    0.000000
 ---------------------------------------------------------------------

 SCF Done:  E(UB3LYP) =  -100.913885303     a.u. after   40 cycles

 Alpha  occ. eigenvalues --  -24.77021  -1.22843  -0.55992  -0.48704  -0.47140
 Alpha  occ. eigenvalues --   -0.44552
 Alpha virt. eigenvalues --    0.10512   0.20357   0.52109   0.85274   0.90090
 Alpha virt. eigenvalues --    0.94228   1.10963   1.11039   1.15258   1.63432
 Alpha virt. eigenvalues --    1.82863   1.93506   1.93557   2.42187   3.64332

  Beta  occ. eigenvalues --  -24.73857  -1.13752  -0.47269  -0.43966  -0.42809
  Beta virt. eigenvalues --   -0.26606   0.10651   0.20469   0.52194   0.91567
  Beta virt. eigenvalues --    0.94606   0.96025   1.11052   1.11065   1.18766
  Beta virt. eigenvalues --    1.63529   1.82885   1.93517   1.93555   2.42231

 Mulliken charges and spin densities:
               1          2
     1  H   -0.008436  -0.002283
     2  H   -0.010472  -0.000659
     3  F    0.018908   1.002942
 Sum of Mulliken charges =   0.00000   1.00000

 Dipole moment (field-independent basis, Debye):
    X=              0.1961    Y=             -0.0000    Z=              0.0000  Tot=              0.1961
 Quadrupole moment (field-independent basis, Debye-Ang):
   XX=             -6.0184   YY=             -6.7285   ZZ=             -5.9047
   XY=             -0.0000   XZ=              0.0000   YZ=              0.1288

  Exact polarizability:       7.080       0.000       1.965      -0.000       0.060       2.349
 Approx polarizability:       7.552       0.000       2.055      -0.000       0.079       2.562

 ******    2 imaginary frequencies (negative Signs) ******

                      1                      2                      3
                      A                      A                      A
 Frequencies --  -2738.6378             -2717.6696               379.6809
 Red. masses --      1.0093                 1.0093                 1.1085
 Frc consts  --      4.4599                 4.3919                 0.0942
 IR Inten    --      0.1005                 0.0384                 1.1250

                      4
                      A
 Frequencies --   7044.6324
 Red. masses --      1.0078
 Frc consts  --     29.4681
 IR Inten    --      9.9364

 - Thermochemistry -
 -------------------
 Temperature   298.150 Kelvin.  Pressure   1.00000 Atm.
 Atom     1 has atomic number  1 and mass   1.00783

 Molecular mass:    21.01405 amu.
 Principal axes and moments of inertia in atomic units:
                           1         2         3
     Eigenvalues --     0.00000  41.32026  41.32026
           X            1.00000  -0.00000   0.00000
           Y            0.00000   1.00000   0.00000
           Z            0.00000   0.00000   1.00000
 This molecule is a prolate symmetric top.
 Rotational symmetry number  1.
 Rotational temperature (Kelvin)      2.09616
 Rotational constant (GHZ):          43.676913
    2 imaginary frequencies ignored.
 Zero-point vibrational energy      44407.3 (Joules/Mol)
                                   10.61359 (Kcal/Mol)
 Warning -- explicit consideration of   1 degrees of freedom as
           vibrations may cause significant error
 Vibrational temperatures:    546.28 10135.65
          (Kelvin)

 Zero-point correction=                           0.016914 (Hartree/Particle)
 Thermal correction to Energy=                    0.019604
 Thermal correction to Enthalpy=                  0.020548
 Thermal correction to Gibbs Free Energy=        -0.002888
 Sum of electronic and zero-point Energies=           -100.896971
 Sum of electronic and thermal Energies=              -100.894281
 Sum of electronic and thermal Enthalpies=            -100.893337
 Sum of electronic and thermal Free Energies=         -100.916773

                     E (Thermal)             CV                S
                      KCal/Mol        Cal/Mol-Kelvin    Cal/Mol-Kelvin
 Total                   12.302              6.481             49.325
 Electronic               0.000              0.000              1.377
 Translational            0.889              2.981             35.068
 Rotational               0.592              1.987             11.839
 Vibrational             10.820              1.513              1.040
 Vibration     1          0.750              1.513              1.040

 Normal termination of Gaussian 16 at Fri Aug 22 17:10:07 2025.
