 Gaussian 16, Revision C.01,
 Gaussian 16:  ES64L-G16RevC.01  3-Jul-2019

 -----------------------------------------
 # sp b3lyp/6-311g** Force nosymm scf=(qc)
 -----------------------------------------

 -------------------
 Title Card Required
 -------------------
 Symbolic Z-matrix:
 Charge =  0 Multiplicity = 2

                          Input orientation:
 ---------------------------------------------------------------------
 Center     Atomic      Atomic             Coordinates (Angstroms)
 Number     Number       Type             X           Y           Z
 ---------------------------------------------------------------------
      1          1           0        0.000000    0.000000    0.000000
      2          1           0       -3.300000    0.000000    0.000000
      3          9           0        1.250000    0.000000    0.000000
 ---------------------------------------------------------------------

 SCF Done:  E(UB3LYP) =  -100.913505528     a.u. after    6 cycles

 Alpha  occ. eigenvalues --  -24.64345  -1.11630  -0.46870  -0.37269  -0.37269
 Alpha  occ. eigenvalues --   -0.34078
 Alpha virt. eigenvalues --   -0.07295   0.22132   0.28838   0.93072   0.93072
 Alpha virt. eigenvalues --    1.01445   1.23259   1.23442   1.23442   1.24644
 Alpha virt. eigenvalues --    1.34272   1.34272   1.71345   2.13927   2.26689

  Beta  occ. eigenvalues --  -24.64337  -1.11610  -0.46845  -0.37262  -0.37262
  Beta virt. eigenvalues --   -0.09056  -0.05098   0.26116   0.38249   0.93071
  Beta virt. eigenvalues --    0.93071   1.01468   1.24397   1.34252   1.34252
  Beta virt. eigenvalues --    1.46053   1.46526   1.46526   1.71400   2.26542

 Mulliken charges and spin densities:
               1          2
     1  H    0.355725  -0.000251
     2  H    0.002116   0.997630
     3  F   -0.357841   0.002621
 Sum of Mulliken charges =   0.00000   1.00000

 Dipole moment (field-independent basis, Debye):
    X=             -2.3679    Y=             -0.0000    Z=             -0.0000  Tot=              2.3679
 Quadrupole moment (field-independent basis, Debye-Ang):
   XX=             -8.9849   YY=             -7.1648   ZZ=             -7.1648
   XY=             -0.0000   XZ=             -0.0000   YZ=             -0.0000

  Exact polarizability:      10.846       0.000       2.304      -0.000      -0.000       2.304
 Approx polarizability:      15.738       0.000       2.254      -0.000       0.000       2.254

 ******    1 imaginary frequencies (negative Signs) ******

                      1                      2                      3
                      A                      A                      A
 Frequencies --    -82.3490               434.5087              1183.6586
 Red. masses --      1.0478                 1.0639                 1.0326
 Frc consts  --      0.0042                 0.1183                 0.8523
 IR Inten    --      0.8680                67.5515               139.3093

                      4
                      A
 Frequencies --   1183.6586
 Red. masses --      1.0326
 Frc consts  --      0.8523
 IR Inten    --    139.3093

 - Thermochemistry -
 -------------------
 Temperature   298.150 Kelvin.  Pressure   1.00000 Atm.
 Atom     1 has atomic number  1 and mass   1.00783

 Molecular mass:    21.01405 amu.
 Principal axes and moments of inertia in atomic units:
                           1         2         3
     Eigenvalues --     0.00000  74.32543  74.32543
           X            1.00000  -0.00000   0.00000
           Y            0.00000   1.00000   0.00000
           Z            0.00000   0.00000   1.00000
 This molecule is a prolate symmetric top.
 Rotational symmetry number  1.
 Rotational temperature (Kelvin)      1.16533
 Rotational constant (GHZ):          24.281612
    1 imaginary frequencies ignored.
 Zero-point vibrational energy      16758.6 (Joules/Mol)
                                    4.00541 (Kcal/Mol)
 Warning -- explicit consideration of   1 degrees of freedom as
           vibrations may cause significant error
 Vibrational temperatures:    625.16  1703.02  1703.02
          (Kelvin)

 Zero-point correction=                           0.006383 (Hartree/Particle)
 Thermal correction to Energy=                    0.009057
 Thermal correction to Enthalpy=                  0.010001
 Thermal correction to Gibbs Free Energy=        -0.013938
 Sum of electronic and zero-point Energies=           -100.907122
 Sum of electronic and thermal Energies=              -100.904449
 Sum of electronic and thermal Enthalpies=            -100.903505
 Sum of electronic and thermal Free Energies=         -100.927444

                     E (Thermal)             CV                S
                      KCal/Mol        Cal/Mol-Kelvin    Cal/Mol-Kelvin
 Total                    5.683              6.795             50.383
 Electronic               0.000              0.000              1.377
 Translational            0.889              2.981             35.068
 Rotational               0.592              1.987             13.005
 Vibrational              4.202              1.827              0.933
 Vibration     1          0.795              1.395              0.844

 Normal termination of Gaussian 16 at Fri Aug 22 16:13:28 2025.
