 Gaussian 16, Revision C.01,
 Gaussian 16:  ES64L-G16RevC.01  3-Jul-2019

 -----------------------------------------
 # sp b3lyp/6-311g** Force nosymm scf=(qc)
 -----------------------------------------

 -------------------
 Title Card Required
 -------------------
 Symbolic Z-matrix:
 Charge =  0 Multiplicity = 2

                          Input orientation:
 ---------------------------------------------------------------------
 Center     Atomic      Atomic             Coordinates (Angstroms)
 Number     Number       Type             X           Y           Z
 ---------------------------------------------------------------------
      1          1           0        0.000000    0.000000    0.000000
      2          1           0       -2.800000    0.000000    0.000000
      3          9           0        3.800000    0.000000    0.000000
 ---------------------------------------------------------------------

 SCF Done:  E(UB3LYP) =  -100.760386547     a.u. after   30 cycles

 Alpha  occ. eigenvalues --  -24.75774  -1.21709  -0.54899  -0.46095  -0.46095
 Alpha  occ. eigenvalues --   -0.32427
 Alpha virt. eigenvalues --   -0.08315   0.25365   0.35703   0.86852   0.91236
 Alpha virt. eigenvalues --    0.91236   1.01250   1.25138   1.25138   1.26258
 Alpha virt. eigenvalues --    1.43412   1.43412   1.43744   2.16008   2.38693

  Beta  occ. eigenvalues --  -24.72636  -1.12687  -0.42949  -0.42949  -0.32648
  Beta virt. eigenvalues --   -0.25686  -0.08023   0.25181   0.36118   0.92732
  Beta virt. eigenvalues --    0.92732   0.96168   1.05353   1.24891   1.24891
  Beta virt. eigenvalues --    1.25984   1.43854   1.43854   1.44185   2.16139

 Mulliken charges and spin densities:
               1          2
     1  H    0.003872  -0.981959
     2  H    0.000603   0.986978
     3  F   -0.004475   0.994982
 Sum of Mulliken charges =   0.00000   1.00000

 Dipole moment (field-independent basis, Debye):
    X=             -0.0957    Y=              0.0000    Z=             -0.0000  Tot=              0.0957
 Quadrupole moment (field-independent basis, Debye-Ang):
   XX=             -6.9201   YY=             -7.6455   ZZ=             -7.6455
   XY=              0.0000   XZ=             -0.0000   YZ=              0.0000

  Exact polarizability:      19.610      -0.000       2.025      -0.000      -0.000       2.025
 Approx polarizability:      14.491       0.000       1.932      -0.000      -0.000       1.932

 ******    2 imaginary frequencies (negative Signs) ******

                      1                      2                      3
                      A                      A                      A
 Frequencies --   -438.9897               -95.1535               157.4267
 Red. masses --      1.0081                 1.1082                 1.0147
 Frc consts  --      0.1145                 0.0059                 0.0148
 IR Inten    --      1.6938                 1.6222                 0.0124

                      4
                      A
 Frequencies --    157.4267
 Red. masses --      1.0147
 Frc consts  --      0.0148
 IR Inten    --      0.0124

 - Thermochemistry -
 -------------------
 Temperature   298.150 Kelvin.  Pressure   1.00000 Atm.
 Atom     1 has atomic number  1 and mass   1.00783

 Molecular mass:    21.01405 amu.
 Principal axes and moments of inertia in atomic units:
                           1         2         3
     Eigenvalues --     0.00000 190.07333 190.07333
           X            1.00000  -0.00000   0.00000
           Y            0.00000   1.00000   0.00000
           Z            0.00000   0.00000   1.00000
 This molecule is a prolate symmetric top.
 Rotational symmetry number  1.
 Rotational temperature (Kelvin)      0.45569
 Rotational constant (GHZ):           9.494973
    2 imaginary frequencies ignored.
 Zero-point vibrational energy       1883.2 (Joules/Mol)
                                    0.45011 (Kcal/Mol)
 Warning -- explicit consideration of   2 degrees of freedom as
           vibrations may cause significant error
 Vibrational temperatures:    226.50   226.50
          (Kelvin)

 Zero-point correction=                           0.000717 (Hartree/Particle)
 Thermal correction to Energy=                    0.004339
 Thermal correction to Enthalpy=                  0.005283
 Thermal correction to Gibbs Free Energy=        -0.021551
 Sum of electronic and zero-point Energies=           -100.759669
 Sum of electronic and thermal Energies=              -100.756048
 Sum of electronic and thermal Enthalpies=            -100.755104
 Sum of electronic and thermal Free Energies=         -100.781938

                     E (Thermal)             CV                S
                      KCal/Mol        Cal/Mol-Kelvin    Cal/Mol-Kelvin
 Total                    2.723              8.757             56.478
 Electronic               0.000              0.000              1.377
 Translational            0.889              2.981             35.068
 Rotational               0.592              1.987             14.871
 Vibrational              1.241              3.789              5.161
 Vibration     1          0.621              1.894              2.580
 Vibration     2          0.621              1.894              2.580

 Normal termination of Gaussian 16 at Sat Aug 23 00:51:02 2025.
