 Gaussian 16, Revision C.01,
 Gaussian 16:  ES64L-G16RevC.01  3-Jul-2019

 -----------------------------------------
 # sp b3lyp/6-311g** Force nosymm scf=(qc)
 -----------------------------------------

 -------------------
 Title Card Required
 -------------------
 Symbolic Z-matrix:
 Charge =  0 Multiplicity = 2

                          Input orientation:
 ---------------------------------------------------------------------
 Center     Atomic      Atomic             Coordinates (Angstroms)
 Number     Number       Type             X           Y           Z
 ---------------------------------------------------------------------
      1          1           0        0.000000    0.000000    0.000000
      2          1           0       -1.650000    0.000000    0.000000
      3          9           0        3.700000    0.000000    0.000000
 ---------------------------------------------------------------------

 SCF Done:  E(UB3LYP) =  -100.800106159     a.u. after   94 cycles

 Alpha  occ. eigenvalues --  -24.76261  -1.22154  -0.55357  -0.46536  -0.46513
 Alpha  occ. eigenvalues --   -0.33155
 Alpha virt. eigenvalues --   -0.10417   0.25595   0.30742   0.86017   0.90894
 Alpha virt. eigenvalues --    0.91594   1.01020   1.06960   1.23207   1.23208
 Alpha virt. eigenvalues --    1.38802   1.38805   1.71071   2.18117   2.42727

  Beta  occ. eigenvalues --  -24.73107  -1.13082  -0.43378  -0.43350  -0.33146
  Beta virt. eigenvalues --   -0.26006  -0.10448   0.25573   0.30798   0.92396
  Beta virt. eigenvalues --    0.93052   0.95485   1.05137   1.06957   1.23201
  Beta virt. eigenvalues --    1.23204   1.38793   1.38795   1.71097   2.18282

 Mulliken charges and spin densities:
               1          2
     1  H    0.000753  -0.540713
     2  H   -0.002226   0.540682
     3  F    0.001473   1.000031
 Sum of Mulliken charges =   0.00000   1.00000

 Dipole moment (field-independent basis, Debye):
    X=              0.0334    Y=             -0.0000    Z=              0.0000  Tot=              0.0334
 Quadrupole moment (field-independent basis, Debye-Ang):
   XX=             -6.5112   YY=             -7.3398   ZZ=             -7.3374
   XY=             -0.0000   XZ=              0.0000   YZ=             -0.4323

  Exact polarizability:      23.775      -0.000       2.255       0.000      -0.233       2.256
 Approx polarizability:      39.649      -0.000       2.282       0.000      -0.291       2.283

 ******    2 imaginary frequencies (negative Signs) ******

                      1                      2                      3
                      A                      A                      A
 Frequencies --  -1987.6547               -47.8538               980.7156
 Red. masses --      1.0078                 1.1085                 1.0111
 Frc consts  --      2.3459                 0.0015                 0.5730
 IR Inten    --      0.0215                 0.0851                 0.0019

                      4
                      A
 Frequencies --    980.7590
 Red. masses --      1.0111
 Frc consts  --      0.5730
 IR Inten    --      0.0017

 - Thermochemistry -
 -------------------
 Temperature   298.150 Kelvin.  Pressure   1.00000 Atm.
 Atom     1 has atomic number  1 and mass   1.00783

 Molecular mass:    21.01405 amu.
 Principal axes and moments of inertia in atomic units:
                           1         2         3
     Eigenvalues --     0.00000 138.14611 138.14611
           X            1.00000  -0.00000   0.00000
           Y            0.00000   1.00000   0.00000
           Z            0.00000   0.00000   1.00000
 This molecule is a prolate symmetric top.
 Rotational symmetry number  1.
 Rotational temperature (Kelvin)      0.62697
 Rotational constant (GHZ):          13.064003
    2 imaginary frequencies ignored.
 Zero-point vibrational energy      11732.2 (Joules/Mol)
                                    2.80407 (Kcal/Mol)
 Vibrational temperatures:   1411.03  1411.09
          (Kelvin)

 Zero-point correction=                           0.004469 (Hartree/Particle)
 Thermal correction to Energy=                    0.006908
 Thermal correction to Enthalpy=                  0.007853
 Thermal correction to Gibbs Free Energy=        -0.016324
 Sum of electronic and zero-point Energies=           -100.795638
 Sum of electronic and thermal Energies=              -100.793198
 Sum of electronic and thermal Enthalpies=            -100.792254
 Sum of electronic and thermal Free Energies=         -100.816431

                     E (Thermal)             CV                S
                      KCal/Mol        Cal/Mol-Kelvin    Cal/Mol-Kelvin
 Total                    4.335              5.766             50.885
 Electronic               0.000              0.000              1.377
 Translational            0.889              2.981             35.068
 Rotational               0.592              1.987             14.237
 Vibrational              2.854              0.798              0.202

 Normal termination of Gaussian 16 at Fri Aug 22 23:58:17 2025.
