 Gaussian 16, Revision C.01,
 Gaussian 16:  ES64L-G16RevC.01  3-Jul-2019

 -----------------------------------------
 # sp b3lyp/6-311g** Force nosymm scf=(qc)
 -----------------------------------------

 -------------------
 Title Card Required
 -------------------
 Symbolic Z-matrix:
 Charge =  0 Multiplicity = 2

                          Input orientation:
 ---------------------------------------------------------------------
 Center     Atomic      Atomic             Coordinates (Angstroms)
 Number     Number       Type             X           Y           Z
 ---------------------------------------------------------------------
      1          1           0        0.000000    0.000000    0.000000
      2          1           0       -2.100000    0.000000    0.000000
      3          9           0        2.450000    0.000000    0.000000
 ---------------------------------------------------------------------

 SCF Done:  E(UB3LYP) =  -100.779594602     a.u. after   18 cycles

 Alpha  occ. eigenvalues --  -24.71501  -1.17718  -0.50601  -0.42494  -0.42494
 Alpha  occ. eigenvalues --   -0.34733
 Alpha virt. eigenvalues --   -0.12805   0.24828   0.32246   0.89859   0.93766
 Alpha virt. eigenvalues --    0.93766   1.06172   1.23166   1.23166   1.24111
 Alpha virt. eigenvalues --    1.35438   1.35438   1.46458   2.11588   2.33439

  Beta  occ. eigenvalues --  -24.68682  -1.09699  -0.39685  -0.39685  -0.35373
  Beta virt. eigenvalues --   -0.23325  -0.11321   0.26510   0.32591   0.95112
  Beta virt. eigenvalues --    0.95112   0.96436   1.09081   1.22667   1.22667
  Beta virt. eigenvalues --    1.27806   1.37857   1.37857   1.46683   2.12092

 Mulliken charges and spin densities:
               1          2
     1  H    0.067722  -0.794795
     2  H    0.026281   0.904277
     3  F   -0.094003   0.890518
 Sum of Mulliken charges =  -0.00000   1.00000

 Dipole moment (field-independent basis, Debye):
    X=             -1.4348    Y=             -0.0000    Z=              0.0000  Tot=              1.4348
 Quadrupole moment (field-independent basis, Debye-Ang):
   XX=             -8.3967   YY=             -7.6420   ZZ=             -7.6420
   XY=             -0.0000   XZ=              0.0000   YZ=              0.0000

  Exact polarizability:      55.690      -0.000       2.011       0.000       0.000       2.011
 Approx polarizability:      58.991       0.000       1.925      -0.000      -0.000       1.925

 ******    2 imaginary frequencies (negative Signs) ******

                      1                      2                      3
                      A                      A                      A
 Frequencies --  -1244.7714              -406.5652               498.1866
 Red. masses --      1.0105                 1.1053                 1.0162
 Frc consts  --      0.9225                 0.1076                 0.1486
 IR Inten    --     60.2033                48.5782                 2.8523

                      4
                      A
 Frequencies --    498.1866
 Red. masses --      1.0162
 Frc consts  --      0.1486
 IR Inten    --      2.8523

 - Thermochemistry -
 -------------------
 Temperature   298.150 Kelvin.  Pressure   1.00000 Atm.
 Atom     1 has atomic number  1 and mass   1.00783

 Molecular mass:    21.01405 amu.
 Principal axes and moments of inertia in atomic units:
                           1         2         3
     Eigenvalues --     0.00000  87.65378  87.65378
           X            1.00000  -0.00000   0.00000
           Y            0.00000   1.00000   0.00000
           Z            0.00000   0.00000   1.00000
 This molecule is a prolate symmetric top.
 Rotational symmetry number  1.
 Rotational temperature (Kelvin)      0.98814
 Rotational constant (GHZ):          20.589427
    2 imaginary frequencies ignored.
 Zero-point vibrational energy       5959.6 (Joules/Mol)
                                    1.42439 (Kcal/Mol)
 Warning -- explicit consideration of   2 degrees of freedom as
           vibrations may cause significant error
 Vibrational temperatures:    716.78   716.78
          (Kelvin)

 Zero-point correction=                           0.002270 (Hartree/Particle)
 Thermal correction to Energy=                    0.005081
 Thermal correction to Enthalpy=                  0.006025
 Thermal correction to Gibbs Free Energy=        -0.018256
 Sum of electronic and zero-point Energies=           -100.777325
 Sum of electronic and thermal Energies=              -100.774513
 Sum of electronic and thermal Enthalpies=            -100.773569
 Sum of electronic and thermal Free Energies=         -100.797850

                     E (Thermal)             CV                S
                      KCal/Mol        Cal/Mol-Kelvin    Cal/Mol-Kelvin
 Total                    3.189              7.476             51.104
 Electronic               0.000              0.000              1.377
 Translational            0.889              2.981             35.068
 Rotational               0.592              1.987             13.333
 Vibrational              1.707              2.508              1.325
 Vibration     1          0.854              1.254              0.663
 Vibration     2          0.854              1.254              0.663

 Normal termination of Gaussian 16 at Fri Aug 22 17:38:25 2025.
