 Gaussian 16, Revision C.01,
 Gaussian 16:  ES64L-G16RevC.01  3-Jul-2019

 -----------------------------------------
 # sp b3lyp/6-311g** Force nosymm scf=(qc)
 -----------------------------------------

 -------------------
 Title Card Required
 -------------------
 Symbolic Z-matrix:
 Charge =  0 Multiplicity = 2

                          Input orientation:
 ---------------------------------------------------------------------
 Center     Atomic      Atomic             Coordinates (Angstroms)
 Number     Number       Type             X           Y           Z
 ---------------------------------------------------------------------
      1          1           0        0.000000    0.000000    0.000000
      2          1           0       -2.050000    0.000000    0.000000
      3          9           0        3.450000    0.000000    0.000000
 ---------------------------------------------------------------------

 SCF Done:  E(UB3LYP) =  -100.772661498     a.u. after   35 cycles

 Alpha  occ. eigenvalues --  -24.75488  -1.21443  -0.54611  -0.45855  -0.45855
 Alpha  occ. eigenvalues --   -0.33094
 Alpha virt. eigenvalues --   -0.10968   0.25858   0.32454   0.87771   0.91406
 Alpha virt. eigenvalues --    0.91406   1.01866   1.18920   1.24864   1.24864
 Alpha virt. eigenvalues --    1.38073   1.38073   1.49249   2.13152   2.36148

  Beta  occ. eigenvalues --  -24.72372  -1.12490  -0.42733  -0.42733  -0.33199
  Beta virt. eigenvalues --   -0.25581  -0.10664   0.25769   0.32955   0.92895
  Beta virt. eigenvalues --    0.92895   0.96915   1.05905   1.18863   1.24724
  Beta virt. eigenvalues --    1.24724   1.38509   1.38509   1.49577   2.13798

 Mulliken charges and spin densities:
               1          2
     1  H    0.004372  -0.867039
     2  H    0.006150   0.879174
     3  F   -0.010522   0.987865
 Sum of Mulliken charges =   0.00000   1.00000

 Dipole moment (field-independent basis, Debye):
    X=             -0.2459    Y=              0.0000    Z=             -0.0000  Tot=              0.2459
 Quadrupole moment (field-independent basis, Debye-Ang):
   XX=             -6.7290   YY=             -7.7181   ZZ=             -7.7181
   XY=              0.0000   XZ=             -0.0000   YZ=              0.0000

  Exact polarizability:      44.538       0.000       2.049      -0.000       0.000       2.049
 Approx polarizability:      37.518       0.000       1.934      -0.000      -0.000       1.934

 ******    2 imaginary frequencies (negative Signs) ******

                      1                      2                      3
                      A                      A                      A
 Frequencies --  -1267.4109              -142.7424               507.0914
 Red. masses --      1.0079                 1.1085                 1.0129
 Frc consts  --      0.9539                 0.0133                 0.1535
 IR Inten    --     10.7265                 8.1835                 0.0011

                      4
                      A
 Frequencies --    507.0914
 Red. masses --      1.0129
 Frc consts  --      0.1535
 IR Inten    --      0.0011

 - Thermochemistry -
 -------------------
 Temperature   298.150 Kelvin.  Pressure   1.00000 Atm.
 Atom     1 has atomic number  1 and mass   1.00783

 Molecular mass:    21.01405 amu.
 Principal axes and moments of inertia in atomic units:
                           1         2         3
     Eigenvalues --     0.00000 137.88096 137.88096
           X            1.00000  -0.00000   0.00000
           Y            0.00000   1.00000   0.00000
           Z            0.00000   0.00000   1.00000
 This molecule is a prolate symmetric top.
 Rotational symmetry number  1.
 Rotational temperature (Kelvin)      0.62818
 Rotational constant (GHZ):          13.089125
    2 imaginary frequencies ignored.
 Zero-point vibrational energy       6066.2 (Joules/Mol)
                                    1.44985 (Kcal/Mol)
 Warning -- explicit consideration of   2 degrees of freedom as
           vibrations may cause significant error
 Vibrational temperatures:    729.59   729.59
          (Kelvin)

 Zero-point correction=                           0.002310 (Hartree/Particle)
 Thermal correction to Energy=                    0.005109
 Thermal correction to Enthalpy=                  0.006053
 Thermal correction to Gibbs Free Energy=        -0.018635
 Sum of electronic and zero-point Energies=           -100.770351
 Sum of electronic and thermal Energies=              -100.767553
 Sum of electronic and thermal Enthalpies=            -100.766609
 Sum of electronic and thermal Free Energies=         -100.791296

                     E (Thermal)             CV                S
                      KCal/Mol        Cal/Mol-Kelvin    Cal/Mol-Kelvin
 Total                    3.206              7.437             51.960
 Electronic               0.000              0.000              1.377
 Translational            0.889              2.981             35.068
 Rotational               0.592              1.987             14.233
 Vibrational              1.725              2.469              1.281
 Vibration     1          0.862              1.234              0.641
 Vibration     2          0.862              1.234              0.641

 Normal termination of Gaussian 16 at Fri Aug 22 21:41:07 2025.
