 Gaussian 16, Revision C.01,
 Gaussian 16:  ES64L-G16RevC.01  3-Jul-2019

 -----------------------------------------
 # sp b3lyp/6-311g** Force nosymm scf=(qc)
 -----------------------------------------

 -------------------
 Title Card Required
 -------------------
 Symbolic Z-matrix:
 Charge =  0 Multiplicity = 2

                          Input orientation:
 ---------------------------------------------------------------------
 Center     Atomic      Atomic             Coordinates (Angstroms)
 Number     Number       Type             X           Y           Z
 ---------------------------------------------------------------------
      1          1           0        0.000000    0.000000    0.000000
      2          1           0       -0.500000    0.000000    0.000000
      3          9           0        2.650000    0.000000    0.000000
 ---------------------------------------------------------------------

 SCF Done:  E(UB3LYP) =  -100.862262401     a.u. after  184 cycles

 Alpha  occ. eigenvalues --  -24.76711  -1.22489  -0.55674  -0.49292  -0.46822
 Alpha  occ. eigenvalues --   -0.46619
 Alpha virt. eigenvalues --    0.10964   0.18939   0.57168   0.85803   0.90671
 Alpha virt. eigenvalues --    0.93813   1.11936   1.12316   1.12332   1.61918
 Alpha virt. eigenvalues --    1.85669   1.99851   1.99870   2.37996   3.64599

  Beta  occ. eigenvalues --  -24.73547  -1.13396  -0.49145  -0.43650  -0.43590
  Beta virt. eigenvalues --   -0.26288   0.11061   0.19009   0.57284   0.92167
  Beta virt. eigenvalues --    0.95251   0.95732   1.12319   1.12331   1.15449
  Beta virt. eigenvalues --    1.61937   1.85681   1.99851   1.99869   2.38010

 Mulliken charges and spin densities:
               1          2
     1  H   -0.012807  -0.002745
     2  H   -0.001416   0.000579
     3  F    0.014224   1.002165
 Sum of Mulliken charges =   0.00000   1.00000

 Dipole moment (field-independent basis, Debye):
    X=              0.1191    Y=             -0.0000    Z=             -0.0000  Tot=              0.1191
 Quadrupole moment (field-independent basis, Debye-Ang):
   XX=             -5.9381   YY=             -5.7353   ZZ=             -6.5985
   XY=              0.0000   XZ=              0.0000   YZ=              0.0046

  Exact polarizability:       5.954       0.000       2.275       0.000       0.002       1.826
 Approx polarizability:       6.194       0.000       2.473       0.000       0.003       1.909

 ******    2 imaginary frequencies (negative Signs) ******

                      1                      2                      3
                      A                      A                      A
 Frequencies --  -4819.1423             -4817.8388               164.6267
 Red. masses --      1.0086                 1.0086                 1.1085
 Frc consts  --     13.8006                13.7931                 0.0177
 IR Inten    --      0.1433                 0.1566                 0.2071

                      4
                      A
 Frequencies --   9960.5780
 Red. masses --      1.0078
 Frc consts  --     58.9121
 IR Inten    --      0.9567

 - Thermochemistry -
 -------------------
 Temperature   298.150 Kelvin.  Pressure   1.00000 Atm.
 Atom     1 has atomic number  1 and mass   1.00783

 Molecular mass:    21.01405 amu.
 Principal axes and moments of inertia in atomic units:
                           1         2         3
     Eigenvalues --     0.00000  55.17870  55.17870
           X            1.00000  -0.00000   0.00000
           Y            0.00000   1.00000   0.00000
           Z            0.00000   0.00000   1.00000
 This molecule is a prolate symmetric top.
 Rotational symmetry number  1.
 Rotational temperature (Kelvin)      1.56970
 Rotational constant (GHZ):          32.707206
    2 imaginary frequencies ignored.
 Zero-point vibrational energy      60562.2 (Joules/Mol)
                                   14.47471 (Kcal/Mol)
 Warning -- explicit consideration of   1 degrees of freedom as
           vibrations may cause significant error
 Vibrational temperatures:    236.86 14331.05
          (Kelvin)

 Zero-point correction=                           0.023067 (Hartree/Particle)
 Thermal correction to Energy=                    0.026046
 Thermal correction to Enthalpy=                  0.026990
 Thermal correction to Gibbs Free Energy=         0.002589
 Sum of electronic and zero-point Energies=           -100.839195
 Sum of electronic and thermal Energies=              -100.836217
 Sum of electronic and thermal Enthalpies=            -100.835273
 Sum of electronic and thermal Free Energies=         -100.859673

                     E (Thermal)             CV                S
                      KCal/Mol        Cal/Mol-Kelvin    Cal/Mol-Kelvin
 Total                   16.344              6.854             51.355
 Electronic               0.000              0.000              1.377
 Translational            0.889              2.981             35.068
 Rotational               0.592              1.987             12.413
 Vibrational             14.863              1.886              2.496
 Vibration     1          0.623              1.886              2.496

 Normal termination of Gaussian 16 at Fri Aug 22 18:06:17 2025.
