 Gaussian 16, Revision C.01,
 Gaussian 16:  ES64L-G16RevC.01  3-Jul-2019

 -----------------------------------------
 # sp b3lyp/6-311g** Force nosymm scf=(qc)
 -----------------------------------------

 -------------------
 Title Card Required
 -------------------
 Symbolic Z-matrix:
 Charge =  0 Multiplicity = 2

                          Input orientation:
 ---------------------------------------------------------------------
 Center     Atomic      Atomic             Coordinates (Angstroms)
 Number     Number       Type             X           Y           Z
 ---------------------------------------------------------------------
      1          1           0        0.000000    0.000000    0.000000
      2          1           0       -2.950000    0.000000    0.000000
      3          9           0        1.650000    0.000000    0.000000
 ---------------------------------------------------------------------

 SCF Done:  E(UB3LYP) =  -100.825875689     a.u. after   12 cycles

 Alpha  occ. eigenvalues --  -24.65245  -1.11120  -0.43857  -0.37136  -0.37136
 Alpha  occ. eigenvalues --   -0.34658
 Alpha virt. eigenvalues --   -0.15069   0.21897   0.28566   0.94445   0.94445
 Alpha virt. eigenvalues --    0.98542   1.06808   1.22881   1.22881   1.23609
 Alpha virt. eigenvalues --    1.32763   1.32763   1.74301   2.13643   2.22788

  Beta  occ. eigenvalues --  -24.64017  -1.07795  -0.40672  -0.35951  -0.35951
  Beta virt. eigenvalues --   -0.17911  -0.08219   0.22935   0.36662   0.94131
  Beta virt. eigenvalues --    0.94131   0.99457   1.07697   1.26458   1.26458
  Beta virt. eigenvalues --    1.43837   1.44088   1.44088   1.71503   2.13745

 Mulliken charges and spin densities:
               1          2
     1  H    0.304380  -0.378032
     2  H    0.007952   0.990445
     3  F   -0.312332   0.387587
 Sum of Mulliken charges =   0.00000   1.00000

 Dipole moment (field-independent basis, Debye):
    X=             -2.6244    Y=              0.0000    Z=              0.0000  Tot=              2.6244
 Quadrupole moment (field-independent basis, Debye-Ang):
   XX=             -9.9014   YY=             -7.3970   ZZ=             -7.3970
   XY=              0.0000   XZ=              0.0000   YZ=             -0.0000

  Exact polarizability:      24.425       0.000       2.136       0.000       0.000       2.136
 Approx polarizability:      37.707       0.000       2.043       0.000      -0.000       2.043

 ******    2 imaginary frequencies (negative Signs) ******

                      1                      2                      3
                      A                      A                      A
 Frequencies --  -1832.4799              -203.4119               830.1180
 Red. masses --      1.0560                 1.0556                 1.0263
 Frc consts  --      2.0892                 0.0257                 0.4167
 IR Inten    --     75.2418                 2.6078                83.4429

                      4
                      A
 Frequencies --    830.1180
 Red. masses --      1.0263
 Frc consts  --      0.4167
 IR Inten    --     83.4429

 - Thermochemistry -
 -------------------
 Temperature   298.150 Kelvin.  Pressure   1.00000 Atm.
 Atom     1 has atomic number  1 and mass   1.00783

 Molecular mass:    21.01405 amu.
 Principal axes and moments of inertia in atomic units:
                           1         2         3
     Eigenvalues --     0.00000  79.21086  79.21086
           X            1.00000  -0.00000   0.00000
           Y            0.00000   1.00000   0.00000
           Z            0.00000   0.00000   1.00000
 This molecule is a prolate symmetric top.
 Rotational symmetry number  1.
 Rotational temperature (Kelvin)      1.09346
 Rotational constant (GHZ):          22.784011
    2 imaginary frequencies ignored.
 Zero-point vibrational energy       9930.4 (Joules/Mol)
                                    2.37343 (Kcal/Mol)
 Vibrational temperatures:   1194.35  1194.35
          (Kelvin)

 Zero-point correction=                           0.003782 (Hartree/Particle)
 Thermal correction to Energy=                    0.006283
 Thermal correction to Enthalpy=                  0.007227
 Thermal correction to Gibbs Free Energy=        -0.016504
 Sum of electronic and zero-point Energies=           -100.822093
 Sum of electronic and thermal Energies=              -100.819593
 Sum of electronic and thermal Enthalpies=            -100.818648
 Sum of electronic and thermal Free Energies=         -100.842379

                     E (Thermal)             CV                S
                      KCal/Mol        Cal/Mol-Kelvin    Cal/Mol-Kelvin
 Total                    3.943              6.173             49.946
 Electronic               0.000              0.000              1.377
 Translational            0.889              2.981             35.068
 Rotational               0.592              1.987             13.132
 Vibrational              2.461              1.205              0.368

 Normal termination of Gaussian 16 at Fri Aug 22 16:35:12 2025.
