 Gaussian 16, Revision C.01,
 Gaussian 16:  ES64L-G16RevC.01  3-Jul-2019

 -----------------------------------------
 # sp b3lyp/6-311g** Force nosymm scf=(qc)
 -----------------------------------------

 -------------------
 Title Card Required
 -------------------
 Symbolic Z-matrix:
 Charge =  0 Multiplicity = 2

                          Input orientation:
 ---------------------------------------------------------------------
 Center     Atomic      Atomic             Coordinates (Angstroms)
 Number     Number       Type             X           Y           Z
 ---------------------------------------------------------------------
      1          1           0        0.000000    0.000000    0.000000
      2          1           0       -1.600000    0.000000    0.000000
      3          9           0        2.600000    0.000000    0.000000
 ---------------------------------------------------------------------

 SCF Done:  E(UB3LYP) =  -100.809822647     a.u. after   19 cycles

 Alpha  occ. eigenvalues --  -24.73418  -1.19526  -0.52569  -0.44125  -0.44125
 Alpha  occ. eigenvalues --   -0.35331
 Alpha virt. eigenvalues --   -0.11490   0.24176   0.30761   0.89636   0.92614
 Alpha virt. eigenvalues --    0.92614   1.03424   1.11277   1.20303   1.20303
 Alpha virt. eigenvalues --    1.37643   1.37643   1.72663   2.17361   2.43696

  Beta  occ. eigenvalues --  -24.70461  -1.11075  -0.41170  -0.41170  -0.34958
  Beta virt. eigenvalues --   -0.24765  -0.10911   0.25436   0.30638   0.94035
  Beta virt. eigenvalues --    0.94035   0.96656   1.05731   1.14769   1.20809
  Beta virt. eigenvalues --    1.20809   1.38118   1.38118   1.73284   2.18374

 Mulliken charges and spin densities:
               1          2
     1  H    0.019960  -0.460738
     2  H    0.034647   0.525455
     3  F   -0.054607   0.935283
 Sum of Mulliken charges =   0.00000   1.00000

 Dipole moment (field-independent basis, Debye):
    X=             -0.9866    Y=             -0.0000    Z=             -0.0000  Tot=              0.9866
 Quadrupole moment (field-independent basis, Debye-Ang):
   XX=             -7.0437   YY=             -7.6996   ZZ=             -7.6996
   XY=             -0.0000   XZ=             -0.0000   YZ=             -0.0000

  Exact polarizability:      61.439      -0.000       2.032      -0.000       0.000       2.032
 Approx polarizability:      79.953       0.000       1.997       0.000       0.000       1.997

 ******    2 imaginary frequencies (negative Signs) ******

                      1                      2                      3
                      A                      A                      A
 Frequencies --  -2049.0642              -307.9937              1013.1260
 Red. masses --      1.0082                 1.1081                 1.0131
 Frc consts  --      2.4941                 0.0619                 0.6127
 IR Inten    --    356.2107                38.3094                 0.0194

                      4
                      A
 Frequencies --   1013.1260
 Red. masses --      1.0131
 Frc consts  --      0.6127
 IR Inten    --      0.0194

 - Thermochemistry -
 -------------------
 Temperature   298.150 Kelvin.  Pressure   1.00000 Atm.
 Atom     1 has atomic number  1 and mass   1.00783

 Molecular mass:    21.01405 amu.
 Principal axes and moments of inertia in atomic units:
                           1         2         3
     Eigenvalues --     0.00000  79.83446  79.83446
           X            1.00000  -0.00000   0.00000
           Y            0.00000   1.00000   0.00000
           Z            0.00000   0.00000   1.00000
 This molecule is a prolate symmetric top.
 Rotational symmetry number  1.
 Rotational temperature (Kelvin)      1.08492
 Rotational constant (GHZ):          22.606041
    2 imaginary frequencies ignored.
 Zero-point vibrational energy      12119.7 (Joules/Mol)
                                    2.89667 (Kcal/Mol)
 Vibrational temperatures:   1457.66  1457.66
          (Kelvin)

 Zero-point correction=                           0.004616 (Hartree/Particle)
 Thermal correction to Energy=                    0.007047
 Thermal correction to Enthalpy=                  0.007991
 Thermal correction to Gibbs Free Energy=        -0.015657
 Sum of electronic and zero-point Energies=           -100.805207
 Sum of electronic and thermal Energies=              -100.802776
 Sum of electronic and thermal Enthalpies=            -100.801832
 Sum of electronic and thermal Free Energies=         -100.825479

                     E (Thermal)             CV                S
                      KCal/Mol        Cal/Mol-Kelvin    Cal/Mol-Kelvin
 Total                    4.422              5.694             49.770
 Electronic               0.000              0.000              1.377
 Translational            0.889              2.981             35.068
 Rotational               0.592              1.987             13.148
 Vibrational              2.941              0.726              0.177

 Normal termination of Gaussian 16 at Fri Aug 22 18:03:16 2025.
