 Gaussian 16, Revision C.01,
 Gaussian 16:  ES64L-G16RevC.01  3-Jul-2019

 -----------------------------------------
 # sp b3lyp/6-311g** Force nosymm scf=(qc)
 -----------------------------------------

 -------------------
 Title Card Required
 -------------------
 Symbolic Z-matrix:
 Charge =  0 Multiplicity = 2

                          Input orientation:
 ---------------------------------------------------------------------
 Center     Atomic      Atomic             Coordinates (Angstroms)
 Number     Number       Type             X           Y           Z
 ---------------------------------------------------------------------
      1          1           0        0.000000    0.000000    0.000000
      2          1           0       -3.400000    0.000000    0.000000
      3          9           0        1.150000    0.000000    0.000000
 ---------------------------------------------------------------------

 SCF Done:  E(UB3LYP) =  -100.937381648     a.u. after    6 cycles

 Alpha  occ. eigenvalues --  -24.64319  -1.12997  -0.48649  -0.37791  -0.37791
 Alpha  occ. eigenvalues --   -0.33905
 Alpha virt. eigenvalues --   -0.04066   0.22870   0.30201   0.93360   0.93360
 Alpha virt. eigenvalues --    1.00192   1.23555   1.23613   1.23613   1.27962
 Alpha virt. eigenvalues --    1.34941   1.34941   1.75709   2.13995   2.30314

  Beta  occ. eigenvalues --  -24.64315  -1.12986  -0.48637  -0.37787  -0.37787
  Beta virt. eigenvalues --   -0.07308  -0.02875   0.28180   0.38717   0.93360
  Beta virt. eigenvalues --    0.93360   1.00203   1.27863   1.34933   1.34933
  Beta virt. eigenvalues --    1.47944   1.47944   1.48354   1.75747   2.30096

 Mulliken charges and spin densities:
               1          2
     1  H    0.347316   0.000307
     2  H    0.001474   0.998320
     3  F   -0.348790   0.001373
 Sum of Mulliken charges =   0.00000   1.00000

 Dipole moment (field-independent basis, Debye):
    X=             -2.2404    Y=              0.0000    Z=             -0.0000  Tot=              2.2404
 Quadrupole moment (field-independent basis, Debye-Ang):
   XX=             -8.6827   YY=             -7.0891   ZZ=             -7.0891
   XY=              0.0000   XZ=             -0.0000   YZ=              0.0000

  Exact polarizability:       8.941       0.000       2.346       0.000      -0.000       2.346
 Approx polarizability:      12.058       0.000       2.306       0.000       0.000       2.306

 ******    1 imaginary frequencies (negative Signs) ******

                      1                      2                      3
                      A                      A                      A
 Frequencies --    -63.7169              1205.1724              1205.1724
 Red. masses --      1.0529                 1.0344                 1.0344
 Frc consts  --      0.0025                 0.8852                 0.8852
 IR Inten    --      0.1316               150.7840               150.7840

                      4
                      A
 Frequencies --   1465.1247
 Red. masses --      1.0586
 Frc consts  --      1.3389
 IR Inten    --     74.9787

 - Thermochemistry -
 -------------------
 Temperature   298.150 Kelvin.  Pressure   1.00000 Atm.
 Atom     1 has atomic number  1 and mass   1.00783

 Molecular mass:    21.01405 amu.
 Principal axes and moments of inertia in atomic units:
                           1         2         3
     Eigenvalues --     0.00000  73.66016  73.66016
           X            1.00000  -0.00000   0.00000
           Y            0.00000   1.00000   0.00000
           Z            0.00000   0.00000   1.00000
 This molecule is a prolate symmetric top.
 Rotational symmetry number  1.
 Rotational temperature (Kelvin)      1.17586
 Rotational constant (GHZ):          24.500912
    1 imaginary frequencies ignored.
 Zero-point vibrational energy      23180.5 (Joules/Mol)
                                    5.54026 (Kcal/Mol)
 Vibrational temperatures:   1733.97  1733.97  2107.99
          (Kelvin)

 Zero-point correction=                           0.008829 (Hartree/Particle)
 Thermal correction to Energy=                    0.011228
 Thermal correction to Enthalpy=                  0.012172
 Thermal correction to Gibbs Free Energy=        -0.011360
 Sum of electronic and zero-point Energies=           -100.928553
 Sum of electronic and thermal Energies=              -100.926154
 Sum of electronic and thermal Enthalpies=            -100.925210
 Sum of electronic and thermal Free Energies=         -100.948742

                     E (Thermal)             CV                S
                      KCal/Mol        Cal/Mol-Kelvin    Cal/Mol-Kelvin
 Total                    7.046              5.456             49.528
 Electronic               0.000              0.000              1.377
 Translational            0.889              2.981             35.068
 Rotational               0.592              1.987             12.988
 Vibrational              5.564              0.488              0.095

 Normal termination of Gaussian 16 at Fri Aug 22 16:08:40 2025.
