 Gaussian 16, Revision C.01,
 Gaussian 16:  ES64L-G16RevC.01  3-Jul-2019

 -----------------------------------------
 # sp b3lyp/6-311g** Force nosymm scf=(qc)
 -----------------------------------------

 -------------------
 Title Card Required
 -------------------
 Symbolic Z-matrix:
 Charge =  0 Multiplicity = 2

                          Input orientation:
 ---------------------------------------------------------------------
 Center     Atomic      Atomic             Coordinates (Angstroms)
 Number     Number       Type             X           Y           Z
 ---------------------------------------------------------------------
      1          1           0        0.000000    0.000000    0.000000
      2          1           0       -3.150000    0.000000    0.000000
      3          9           0        3.700000    0.000000    0.000000
 ---------------------------------------------------------------------

 SCF Done:  E(UB3LYP) =  -100.759338627     a.u. after   31 cycles

 Alpha  occ. eigenvalues --  -24.75667  -1.21609  -0.54790  -0.46003  -0.46003
 Alpha  occ. eigenvalues --   -0.32353
 Alpha virt. eigenvalues --   -0.07489   0.24776   0.36676   0.87065   0.91305
 Alpha virt. eigenvalues --    0.91305   1.01400   1.25170   1.25170   1.25638
 Alpha virt. eigenvalues --    1.44529   1.44693   1.44693   2.15569   2.40071

  Beta  occ. eigenvalues --  -24.72535  -1.12606  -0.42863  -0.42863  -0.32659
  Beta virt. eigenvalues --   -0.25628  -0.07126   0.24575   0.37240   0.92800
  Beta virt. eigenvalues --    0.92800   0.96326   1.05476   1.24824   1.24824
  Beta virt. eigenvalues --    1.25269   1.45096   1.45261   1.45261   2.15703

 Mulliken charges and spin densities:
               1          2
     1  H    0.006059  -0.987794
     2  H    0.000301   0.994848
     3  F   -0.006360   0.992946
 Sum of Mulliken charges =   0.00000   1.00000

 Dipole moment (field-independent basis, Debye):
    X=             -0.1258    Y=             -0.0000    Z=             -0.0000  Tot=              0.1258
 Quadrupole moment (field-independent basis, Debye-Ang):
   XX=             -7.0960   YY=             -7.6307   ZZ=             -7.6307
   XY=             -0.0000   XZ=              0.0000   YZ=              0.0000

  Exact polarizability:      19.570      -0.000       2.026       0.000      -0.000       2.026
 Approx polarizability:      14.577      -0.000       1.934       0.000      -0.000       1.934

 ******    2 imaginary frequencies (negative Signs) ******

                      1                      2                      3
                      A                      A                      A
 Frequencies --   -293.4284              -103.0233               102.3744
 Red. masses --      1.0103                 1.1055                 1.0161
 Frc consts  --      0.0513                 0.0069                 0.0063
 IR Inten    --      3.3389                 1.9322                 0.0348

                      4
                      A
 Frequencies --    102.3744
 Red. masses --      1.0161
 Frc consts  --      0.0063
 IR Inten    --      0.0348

 - Thermochemistry -
 -------------------
 Temperature   298.150 Kelvin.  Pressure   1.00000 Atm.
 Atom     1 has atomic number  1 and mass   1.00783

 Molecular mass:    21.01405 amu.
 Principal axes and moments of inertia in atomic units:
                           1         2         3
     Eigenvalues --     0.00000 198.93332 198.93332
           X            1.00000  -0.00000   0.00000
           Y            0.00000   1.00000   0.00000
           Z            0.00000   0.00000   1.00000
 This molecule is a prolate symmetric top.
 Rotational symmetry number  1.
 Rotational temperature (Kelvin)      0.43539
 Rotational constant (GHZ):           9.072091
    2 imaginary frequencies ignored.
 Zero-point vibrational energy       1224.7 (Joules/Mol)
                                    0.29270 (Kcal/Mol)
 Warning -- explicit consideration of   2 degrees of freedom as
           vibrations may cause significant error
 Vibrational temperatures:    147.29   147.29
          (Kelvin)

 Zero-point correction=                           0.000466 (Hartree/Particle)
 Thermal correction to Energy=                    0.004287
 Thermal correction to Enthalpy=                  0.005231
 Thermal correction to Gibbs Free Energy=        -0.022433
 Sum of electronic and zero-point Energies=           -100.758872
 Sum of electronic and thermal Energies=              -100.755052
 Sum of electronic and thermal Enthalpies=            -100.754107
 Sum of electronic and thermal Free Energies=         -100.781772

                     E (Thermal)             CV                S
                      KCal/Mol        Cal/Mol-Kelvin    Cal/Mol-Kelvin
 Total                    2.690              8.863             58.225
 Electronic               0.000              0.000              1.377
 Translational            0.889              2.981             35.068
 Rotational               0.592              1.987             14.962
 Vibrational              1.209              3.895              6.817
 Vibration     1          0.604              1.947              3.409
 Vibration     2          0.604              1.947              3.409

 Normal termination of Gaussian 16 at Sat Aug 23 00:04:22 2025.
