 Gaussian 16, Revision C.01,
 Gaussian 16:  ES64L-G16RevC.01  3-Jul-2019

 -----------------------------------------
 # sp b3lyp/6-311g** Force nosymm scf=(qc)
 -----------------------------------------

 -------------------
 Title Card Required
 -------------------
 Symbolic Z-matrix:
 Charge =  0 Multiplicity = 2

                          Input orientation:
 ---------------------------------------------------------------------
 Center     Atomic      Atomic             Coordinates (Angstroms)
 Number     Number       Type             X           Y           Z
 ---------------------------------------------------------------------
      1          1           0        0.000000    0.000000    0.000000
      2          1           0       -1.950000    0.000000    0.000000
      3          9           0        0.800000    0.000000    0.000000
 ---------------------------------------------------------------------

 SCF Done:  E(UB3LYP) =  -100.950205941     a.u. after    6 cycles

 Alpha  occ. eigenvalues --  -24.63466  -1.22886  -0.56270  -0.40471  -0.40471
 Alpha  occ. eigenvalues --   -0.35689
 Alpha virt. eigenvalues --    0.09038   0.24050   0.44012   0.94353   0.94353
 Alpha virt. eigenvalues --    0.97173   1.15980   1.21575   1.21575   1.40217
 Alpha virt. eigenvalues --    1.40217   1.53228   1.99640   2.19109   2.55224

  Beta  occ. eigenvalues --  -24.63415  -1.22753  -0.56001  -0.40431  -0.40431
  Beta virt. eigenvalues --   -0.11320   0.10774   0.34476   0.44657   0.94362
  Beta virt. eigenvalues --    0.94362   0.97459   1.25439   1.38388   1.38388
  Beta virt. eigenvalues --    1.43144   1.43144   1.61523   2.04542   2.37611

 Mulliken charges and spin densities:
               1          2
     1  H    0.260540   0.009007
     2  H    0.012472   0.979514
     3  F   -0.273012   0.011479
 Sum of Mulliken charges =   0.00000   1.00000

 Dipole moment (field-independent basis, Debye):
    X=             -1.8576    Y=             -0.0000    Z=             -0.0000  Tot=              1.8576
 Quadrupole moment (field-independent basis, Debye-Ang):
   XX=             -7.2738   YY=             -6.7284   ZZ=             -6.7284
   XY=             -0.0000   XZ=             -0.0000   YZ=              0.0000

  Exact polarizability:       7.688      -0.000       2.503      -0.000       0.000       2.503
 Approx polarizability:       7.795       0.000       2.495       0.000       0.000       2.495

 ******    2 imaginary frequencies (negative Signs) ******

                      1                      2                      3
                      A                      A                      A
 Frequencies --  -1947.0222             -1947.0222               317.5877
 Red. masses --      1.0313                 1.0313                 1.0532
 Frc consts  --      2.3034                 2.3034                 0.0626
 IR Inten    --    159.9718               159.9718                 0.4305

                      4
                      A
 Frequencies --   6335.3617
 Red. masses --      1.0584
 Frc consts  --     25.0278
 IR Inten    --    162.8901

 - Thermochemistry -
 -------------------
 Temperature   298.150 Kelvin.  Pressure   1.00000 Atm.
 Atom     1 has atomic number  1 and mass   1.00783

 Molecular mass:    21.01405 amu.
 Principal axes and moments of inertia in atomic units:
                           1         2         3
     Eigenvalues --     0.00000  27.34559  27.34559
           X            1.00000  -0.00000   0.00000
           Y            0.00000   1.00000   0.00000
           Z            0.00000   0.00000   1.00000
 This molecule is a prolate symmetric top.
 Rotational symmetry number  1.
 Rotational temperature (Kelvin)      3.16738
 Rotational constant (GHZ):          65.997526
    2 imaginary frequencies ignored.
 Zero-point vibrational energy      39793.5 (Joules/Mol)
                                    9.51087 (Kcal/Mol)
 Warning -- explicit consideration of   1 degrees of freedom as
           vibrations may cause significant error
 Vibrational temperatures:    456.94  9115.17
          (Kelvin)

 Zero-point correction=                           0.015157 (Hartree/Particle)
 Thermal correction to Energy=                    0.017916
 Thermal correction to Enthalpy=                  0.018860
 Thermal correction to Gibbs Free Energy=        -0.004320
 Sum of electronic and zero-point Energies=           -100.935049
 Sum of electronic and thermal Energies=              -100.932290
 Sum of electronic and thermal Enthalpies=            -100.931346
 Sum of electronic and thermal Free Energies=         -100.954526

                     E (Thermal)             CV                S
                      KCal/Mol        Cal/Mol-Kelvin    Cal/Mol-Kelvin
 Total                   11.242              6.608             48.786
 Electronic               0.000              0.000              1.377
 Translational            0.889              2.981             35.068
 Rotational               0.592              1.987             11.018
 Vibrational              9.761              1.640              1.322
 Vibration     1          0.704              1.640              1.322

 Normal termination of Gaussian 16 at Fri Aug 22 15:51:04 2025.
