 Gaussian 16, Revision C.01,
 Gaussian 16:  ES64L-G16RevC.01  3-Jul-2019

 -----------------------------------------
 # sp b3lyp/6-311g** Force nosymm scf=(qc)
 -----------------------------------------

 -------------------
 Title Card Required
 -------------------
 Symbolic Z-matrix:
 Charge =  0 Multiplicity = 2

                          Input orientation:
 ---------------------------------------------------------------------
 Center     Atomic      Atomic             Coordinates (Angstroms)
 Number     Number       Type             X           Y           Z
 ---------------------------------------------------------------------
      1          1           0        0.000000    0.000000    0.000000
      2          1           0       -1.150000    0.000000    0.000000
      3          9           0        2.800000    0.000000    0.000000
 ---------------------------------------------------------------------

 SCF Done:  E(UB3LYP) =  -100.881436959     a.u. after  138 cycles

 Alpha  occ. eigenvalues --  -24.76850  -1.22648  -0.55830  -0.47131  -0.46978
 Alpha  occ. eigenvalues --   -0.36652
 Alpha virt. eigenvalues --   -0.02586   0.22807   0.35970   0.85653   0.90523
 Alpha virt. eigenvalues --    0.93415   1.06041   1.11993   1.12002   1.26096
 Alpha virt. eigenvalues --    1.57293   1.57303   2.13341   2.33848   2.56090

  Beta  occ. eigenvalues --  -24.73687  -1.13559  -0.43983  -0.43807  -0.36624
  Beta virt. eigenvalues --   -0.26447  -0.02556   0.22835   0.36065   0.92021
  Beta virt. eigenvalues --    0.95106   0.95214   1.09771   1.11993   1.12001
  Beta virt. eigenvalues --    1.26099   1.57291   1.57301   2.13348   2.33851

 Mulliken charges and spin densities:
               1          2
     1  H   -0.002140  -0.000409
     2  H   -0.008527  -0.001080
     3  F    0.010667   1.001490
 Sum of Mulliken charges =  -0.00000   1.00000

 Dipole moment (field-independent basis, Debye):
    X=              0.1382    Y=             -0.0000    Z=             -0.0000  Tot=              0.1382
 Quadrupole moment (field-independent basis, Debye-Ang):
   XX=             -6.1133   YY=             -6.7633   ZZ=             -7.2781
   XY=              0.0000   XZ=              0.0000   YZ=              0.3465

  Exact polarizability:      15.712      -0.000       2.451       0.000       0.184       2.178
 Approx polarizability:      22.365       0.000       2.582       0.000       0.231       2.238

                      1                      2                      3
                      A                      A                      A
 Frequencies --     67.7481               582.9018              1496.1982
 Red. masses --      1.1085                 1.0078                 1.0107
 Frc consts  --      0.0030                 0.2018                 1.3330
 IR Inten    --      0.8847                 2.1268                 0.0055

                      4
                      A
 Frequencies --   1501.1759
 Red. masses --      1.0107
 Frc consts  --      1.3419
 IR Inten    --      0.0033

 - Thermochemistry -
 -------------------
 Temperature   298.150 Kelvin.  Pressure   1.00000 Atm.
 Atom     1 has atomic number  1 and mass   1.00783

 Molecular mass:    21.01405 amu.
 Principal axes and moments of inertia in atomic units:
                           1         2         3
     Eigenvalues --     0.00000  76.50536  76.50536
           X            1.00000  -0.00000   0.00000
           Y            0.00000   1.00000   0.00000
           Z            0.00000   0.00000   1.00000
 This molecule is a prolate symmetric top.
 Rotational symmetry number  1.
 Rotational temperature (Kelvin)      1.13213
 Rotational constant (GHZ):          23.589737
 Zero-point vibrational energy      21820.0 (Joules/Mol)
                                    5.21511 (Kcal/Mol)
 Warning -- explicit consideration of   2 degrees of freedom as
           vibrations may cause significant error
 Vibrational temperatures:     97.47   838.67  2152.70  2159.86
          (Kelvin)

 Zero-point correction=                           0.008311 (Hartree/Particle)
 Thermal correction to Energy=                    0.011649
 Thermal correction to Enthalpy=                  0.012593
 Thermal correction to Gibbs Free Energy=        -0.013173
 Sum of electronic and zero-point Energies=           -100.873126
 Sum of electronic and thermal Energies=              -100.869788
 Sum of electronic and thermal Enthalpies=            -100.868844
 Sum of electronic and thermal Free Energies=         -100.894610

                     E (Thermal)             CV                S
                      KCal/Mol        Cal/Mol-Kelvin    Cal/Mol-Kelvin
 Total                    7.310              8.156             54.230
 Electronic               0.000              0.000              1.377
 Translational            0.889              2.981             35.068
 Rotational               0.592              1.987             13.063
 Vibrational              5.829              3.188              4.721
 Vibration     1          0.598              1.970              4.218
 Vibration     2          0.940              1.068              0.480

 Normal termination of Gaussian 16 at Fri Aug 22 18:40:13 2025.
