 Gaussian 16, Revision C.01,
 Gaussian 16:  ES64L-G16RevC.01  3-Jul-2019

 -----------------------------------------
 # sp b3lyp/6-311g** Force nosymm scf=(qc)
 -----------------------------------------

 -------------------
 Title Card Required
 -------------------
 Symbolic Z-matrix:
 Charge =  0 Multiplicity = 2

                          Input orientation:
 ---------------------------------------------------------------------
 Center     Atomic      Atomic             Coordinates (Angstroms)
 Number     Number       Type             X           Y           Z
 ---------------------------------------------------------------------
      1          1           0        0.000000    0.000000    0.000000
      2          1           0       -3.900000    0.000000    0.000000
      3          9           0        2.950000    0.000000    0.000000
 ---------------------------------------------------------------------

 SCF Done:  E(UB3LYP) =  -100.761208859     a.u. after   21 cycles

 Alpha  occ. eigenvalues --  -24.73890  -1.19965  -0.53009  -0.44511  -0.44511
 Alpha  occ. eigenvalues --   -0.32488
 Alpha virt. eigenvalues --   -0.07962   0.23850   0.36180   0.89492   0.92392
 Alpha virt. eigenvalues --    0.92392   1.04154   1.25010   1.25010   1.25038
 Alpha virt. eigenvalues --    1.44034   1.44034   1.44860   2.14377   2.40593

  Beta  occ. eigenvalues --  -24.70876  -1.11332  -0.41496  -0.41496  -0.33851
  Beta virt. eigenvalues --   -0.24661  -0.06014   0.23769   0.38126   0.93849
  Beta virt. eigenvalues --    0.93849   0.98086   1.07802   1.23465   1.23465
  Beta virt. eigenvalues --    1.24021   1.46519   1.46667   1.46667   2.14328

 Mulliken charges and spin densities:
               1          2
     1  H    0.041002  -0.954070
     2  H    0.000171   0.999228
     3  F   -0.041173   0.954841
 Sum of Mulliken charges =  -0.00000   1.00000

 Dipole moment (field-independent basis, Debye):
    X=             -0.6266    Y=             -0.0000    Z=             -0.0000  Tot=              0.6266
 Quadrupole moment (field-independent basis, Debye-Ang):
   XX=             -8.4472   YY=             -7.6029   ZZ=             -7.6029
   XY=             -0.0000   XZ=             -0.0000   YZ=             -0.0000

  Exact polarizability:      31.149      -0.000       2.027      -0.000      -0.000       2.027
 Approx polarizability:      32.892      -0.000       1.926      -0.000       0.000       1.926

 ******    2 imaginary frequencies (negative Signs) ******

                      1                      2                      3
                      A                      A                      A
 Frequencies --   -383.7574               -76.8127               135.1244
 Red. masses --      1.0540                 1.0576                 1.0217
 Frc consts  --      0.0915                 0.0037                 0.0110
 IR Inten    --     43.1978                 0.0961                 1.6198

                      4
                      A
 Frequencies --    135.1244
 Red. masses --      1.0217
 Frc consts  --      0.0110
 IR Inten    --      1.6198

 - Thermochemistry -
 -------------------
 Temperature   298.150 Kelvin.  Pressure   1.00000 Atm.
 Atom     1 has atomic number  1 and mass   1.00783

 Molecular mass:    21.01405 amu.
 Principal axes and moments of inertia in atomic units:
                           1         2         3
     Eigenvalues --     0.00000 183.61768 183.61768
           X            1.00000  -0.00000   0.00000
           Y            0.00000   1.00000   0.00000
           Z            0.00000   0.00000   1.00000
 This molecule is a prolate symmetric top.
 Rotational symmetry number  1.
 Rotational temperature (Kelvin)      0.47171
 Rotational constant (GHZ):           9.828799
    2 imaginary frequencies ignored.
 Zero-point vibrational energy       1616.4 (Joules/Mol)
                                    0.38634 (Kcal/Mol)
 Warning -- explicit consideration of   2 degrees of freedom as
           vibrations may cause significant error
 Vibrational temperatures:    194.41   194.41
          (Kelvin)

 Zero-point correction=                           0.000616 (Hartree/Particle)
 Thermal correction to Energy=                    0.004315
 Thermal correction to Enthalpy=                  0.005259
 Thermal correction to Gibbs Free Energy=        -0.021819
 Sum of electronic and zero-point Energies=           -100.760593
 Sum of electronic and thermal Energies=              -100.756894
 Sum of electronic and thermal Enthalpies=            -100.755949
 Sum of electronic and thermal Free Energies=         -100.783028

                     E (Thermal)             CV                S
                      KCal/Mol        Cal/Mol-Kelvin    Cal/Mol-Kelvin
 Total                    2.708              8.805             56.992
 Electronic               0.000              0.000              1.377
 Translational            0.889              2.981             35.068
 Rotational               0.592              1.987             14.803
 Vibrational              1.227              3.837              5.744
 Vibration     1          0.613              1.918              2.872
 Vibration     2          0.613              1.918              2.872

 Normal termination of Gaussian 16 at Fri Aug 22 19:19:23 2025.
