 Gaussian 16, Revision C.01,
 Gaussian 16:  ES64L-G16RevC.01  3-Jul-2019

 -----------------------------------------
 # sp b3lyp/6-311g** Force nosymm scf=(qc)
 -----------------------------------------

 -------------------
 Title Card Required
 -------------------
 Symbolic Z-matrix:
 Charge =  0 Multiplicity = 2

                          Input orientation:
 ---------------------------------------------------------------------
 Center     Atomic      Atomic             Coordinates (Angstroms)
 Number     Number       Type             X           Y           Z
 ---------------------------------------------------------------------
      1          1           0        0.000000    0.000000    0.000000
      2          1           0       -3.450000    0.000000    0.000000
      3          9           0        1.500000    0.000000    0.000000
 ---------------------------------------------------------------------

 SCF Done:  E(UB3LYP) =  -100.854709856     a.u. after    7 cycles

 Alpha  occ. eigenvalues --  -24.64344  -1.09691  -0.43241  -0.36423  -0.36423
 Alpha  occ. eigenvalues --   -0.34044
 Alpha virt. eigenvalues --   -0.14454   0.20380   0.27738   0.93518   0.93518
 Alpha virt. eigenvalues --    1.03510   1.09505   1.23469   1.23469   1.23530
 Alpha virt. eigenvalues --    1.31189   1.31189   1.73127   2.13420   2.18746

  Beta  occ. eigenvalues --  -24.64307  -1.09591  -0.43151  -0.36387  -0.36387
  Beta virt. eigenvalues --   -0.14780  -0.06707   0.23335   0.38133   0.93503
  Beta virt. eigenvalues --    0.93503   1.03606   1.09522   1.31010   1.31010
  Beta virt. eigenvalues --    1.45656   1.46123   1.46123   1.73081   2.18092

 Mulliken charges and spin densities:
               1          2
     1  H    0.348489  -0.009702
     2  H    0.002156   0.997713
     3  F   -0.350645   0.011989
 Sum of Mulliken charges =  -0.00000   1.00000

 Dipole moment (field-independent basis, Debye):
    X=             -2.6204    Y=              0.0000    Z=             -0.0000  Tot=              2.6204
 Quadrupole moment (field-independent basis, Debye-Ang):
   XX=             -9.8708   YY=             -7.3219   ZZ=             -7.3219
   XY=              0.0000   XZ=             -0.0000   YZ=              0.0000

  Exact polarizability:      15.701      -0.000       2.187       0.000       0.000       2.187
 Approx polarizability:      29.179      -0.000       2.113      -0.000      -0.000       2.113

 ******    2 imaginary frequencies (negative Signs) ******

                      1                      2                      3
                      A                      A                      A
 Frequencies --  -1154.7059               -86.5105              1014.9187
 Red. masses --      1.0573                 1.0542                 1.0303
 Frc consts  --      0.8306                 0.0046                 0.6253
 IR Inten    --     46.1856                 0.2456               116.8532

                      4
                      A
 Frequencies --   1014.9187
 Red. masses --      1.0303
 Frc consts  --      0.6253
 IR Inten    --    116.8532

 - Thermochemistry -
 -------------------
 Temperature   298.150 Kelvin.  Pressure   1.00000 Atm.
 Atom     1 has atomic number  1 and mass   1.00783

 Molecular mass:    21.01405 amu.
 Principal axes and moments of inertia in atomic units:
                           1         2         3
     Eigenvalues --     0.00000  89.10160  89.10160
           X            1.00000  -0.00000   0.00000
           Y            0.00000   1.00000   0.00000
           Z            0.00000   0.00000   1.00000
 This molecule is a prolate symmetric top.
 Rotational symmetry number  1.
 Rotational temperature (Kelvin)      0.97208
 Rotational constant (GHZ):          20.254869
    2 imaginary frequencies ignored.
 Zero-point vibrational energy      12141.1 (Joules/Mol)
                                    2.90180 (Kcal/Mol)
 Vibrational temperatures:   1460.24  1460.24
          (Kelvin)

 Zero-point correction=                           0.004624 (Hartree/Particle)
 Thermal correction to Energy=                    0.007054
 Thermal correction to Enthalpy=                  0.007999
 Thermal correction to Gibbs Free Energy=        -0.015752
 Sum of electronic and zero-point Energies=           -100.850086
 Sum of electronic and thermal Energies=              -100.847656
 Sum of electronic and thermal Enthalpies=            -100.846711
 Sum of electronic and thermal Free Energies=         -100.870462

                     E (Thermal)             CV                S
                      KCal/Mol        Cal/Mol-Kelvin    Cal/Mol-Kelvin
 Total                    4.427              5.690             49.987
 Electronic               0.000              0.000              1.377
 Translational            0.889              2.981             35.068
 Rotational               0.592              1.987             13.366
 Vibrational              2.945              0.722              0.176

 Normal termination of Gaussian 16 at Fri Aug 22 16:26:35 2025.
