 Gaussian 16, Revision C.01,
 Gaussian 16:  ES64L-G16RevC.01  3-Jul-2019

 -----------------------------------------
 # sp b3lyp/6-311g** Force nosymm scf=(qc)
 -----------------------------------------

 -------------------
 Title Card Required
 -------------------
 Symbolic Z-matrix:
 Charge =  0 Multiplicity = 2

                          Input orientation:
 ---------------------------------------------------------------------
 Center     Atomic      Atomic             Coordinates (Angstroms)
 Number     Number       Type             X           Y           Z
 ---------------------------------------------------------------------
      1          1           0        0.000000    0.000000    0.000000
      2          1           0       -3.800000    0.000000    0.000000
      3          9           0        3.250000    0.000000    0.000000
 ---------------------------------------------------------------------

 SCF Done:  E(UB3LYP) =  -100.759613500     a.u. after   27 cycles

 Alpha  occ. eigenvalues --  -24.74847  -1.20850  -0.53968  -0.45313  -0.45313
 Alpha  occ. eigenvalues --   -0.32378
 Alpha virt. eigenvalues --   -0.07071   0.24030   0.36687   0.88454   0.91814
 Alpha virt. eigenvalues --    0.91814   1.02647   1.25120   1.25120   1.25166
 Alpha virt. eigenvalues --    1.45299   1.45299   1.45625   2.14591   2.41552

  Beta  occ. eigenvalues --  -24.71768  -1.12012  -0.42229  -0.42229  -0.33190
  Beta virt. eigenvalues --   -0.25197  -0.06078   0.23796   0.38129   0.93292
  Beta virt. eigenvalues --    0.93292   0.97402   1.06536   1.24185   1.24185
  Beta virt. eigenvalues --    1.24258   1.46405   1.46575   1.46575   2.14840

 Mulliken charges and spin densities:
               1          2
     1  H    0.021695  -0.975103
     2  H    0.000134   0.999000
     3  F   -0.021830   0.976102
 Sum of Mulliken charges =  -0.00000   1.00000

 Dipole moment (field-independent basis, Debye):
    X=             -0.3670    Y=              0.0000    Z=              0.0000  Tot=              0.3670
 Quadrupole moment (field-independent basis, Debye-Ang):
   XX=             -7.8435   YY=             -7.6142   ZZ=             -7.6142
   XY=              0.0000   XZ=              0.0000   YZ=             -0.0000

  Exact polarizability:      28.415       0.000       2.031       0.000      -0.000       2.031
 Approx polarizability:      25.484       0.000       1.931       0.000       0.000       1.931

 ******    2 imaginary frequencies (negative Signs) ******

                      1                      2                      3
                      A                      A                      A
 Frequencies --   -284.9857               -84.2701                91.5191
 Red. masses --      1.0479                 1.0637                 1.0199
 Frc consts  --      0.0501                 0.0045                 0.0050
 IR Inten    --     23.5371                 0.2684                 0.4404

                      4
                      A
 Frequencies --     91.5191
 Red. masses --      1.0199
 Frc consts  --      0.0050
 IR Inten    --      0.4404

 - Thermochemistry -
 -------------------
 Temperature   298.150 Kelvin.  Pressure   1.00000 Atm.
 Atom     1 has atomic number  1 and mass   1.00783

 Molecular mass:    21.01405 amu.
 Principal axes and moments of inertia in atomic units:
                           1         2         3
     Eigenvalues --     0.00000 198.58238 198.58238
           X            1.00000  -0.00000   0.00000
           Y            0.00000   1.00000   0.00000
           Z            0.00000   0.00000   1.00000
 This molecule is a prolate symmetric top.
 Rotational symmetry number  1.
 Rotational temperature (Kelvin)      0.43616
 Rotational constant (GHZ):           9.088123
    2 imaginary frequencies ignored.
 Zero-point vibrational energy       1094.8 (Joules/Mol)
                                    0.26167 (Kcal/Mol)
 Warning -- explicit consideration of   2 degrees of freedom as
           vibrations may cause significant error
 Vibrational temperatures:    131.68   131.68
          (Kelvin)

 Zero-point correction=                           0.000417 (Hartree/Particle)
 Thermal correction to Energy=                    0.004279
 Thermal correction to Enthalpy=                  0.005224
 Thermal correction to Gibbs Free Energy=        -0.022647
 Sum of electronic and zero-point Energies=           -100.759197
 Sum of electronic and thermal Energies=              -100.755334
 Sum of electronic and thermal Enthalpies=            -100.754390
 Sum of electronic and thermal Free Energies=         -100.782260

                     E (Thermal)             CV                S
                      KCal/Mol        Cal/Mol-Kelvin    Cal/Mol-Kelvin
 Total                    2.685              8.878             58.658
 Electronic               0.000              0.000              1.377
 Translational            0.889              2.981             35.068
 Rotational               0.592              1.987             14.958
 Vibrational              1.204              3.910              7.255
 Vibration     1          0.602              1.955              3.627
 Vibration     2          0.602              1.955              3.627

 Normal termination of Gaussian 16 at Fri Aug 22 20:36:34 2025.
