 Gaussian 16, Revision C.01,
 Gaussian 16:  ES64L-G16RevC.01  3-Jul-2019

 -----------------------------------------
 # sp b3lyp/6-311g** Force nosymm scf=(qc)
 -----------------------------------------

 -------------------
 Title Card Required
 -------------------
 Symbolic Z-matrix:
 Charge =  0 Multiplicity = 2

                          Input orientation:
 ---------------------------------------------------------------------
 Center     Atomic      Atomic             Coordinates (Angstroms)
 Number     Number       Type             X           Y           Z
 ---------------------------------------------------------------------
      1          1           0        0.000000    0.000000    0.000000
      2          1           0       -0.550000    0.000000    0.000000
      3          9           0        1.450000    0.000000    0.000000
 ---------------------------------------------------------------------

 SCF Done:  E(UB3LYP) =  -100.889067832     a.u. after    6 cycles

 Alpha  occ. eigenvalues --  -24.71952  -1.19260  -0.59723  -0.44261  -0.43518
 Alpha  occ. eigenvalues --   -0.43518
 Alpha virt. eigenvalues --    0.12154   0.19477   0.53558   0.88146   0.88146
 Alpha virt. eigenvalues --    0.96395   1.12018   1.12018   1.39211   1.65152
 Alpha virt. eigenvalues --    1.84254   1.94766   1.94766   2.47205   3.73671

  Beta  occ. eigenvalues --  -24.69163  -1.11649  -0.52352  -0.40817  -0.40817
  Beta virt. eigenvalues --   -0.22744   0.12978   0.20162   0.55923   0.89384
  Beta virt. eigenvalues --    0.89384   1.02728   1.13967   1.13967   1.43060
  Beta virt. eigenvalues --    1.67906   1.85187   1.95880   1.95880   2.50138

 Mulliken charges and spin densities:
               1          2
     1  H    0.137064  -0.023150
     2  H   -0.011931   0.189769
     3  F   -0.125133   0.833380
 Sum of Mulliken charges =   0.00000   1.00000

 Dipole moment (field-independent basis, Debye):
    X=             -0.8695    Y=             -0.0000    Z=             -0.0000  Tot=              0.8695
 Quadrupole moment (field-independent basis, Debye-Ang):
   XX=             -6.6209   YY=             -6.5311   ZZ=             -6.5311
   XY=             -0.0000   XZ=             -0.0000   YZ=             -0.0000

  Exact polarizability:      14.030      -0.000       2.244       0.000       0.000       2.244
 Approx polarizability:      16.458      -0.000       2.304       0.000       0.000       2.304

 ******    2 imaginary frequencies (negative Signs) ******

                      1                      2                      3
                      A                      A                      A
 Frequencies --  -3833.3811             -3833.3811               654.0576
 Red. masses --      1.0103                 1.0103                 1.1085
 Frc consts  --      8.7474                 8.7474                 0.2794
 IR Inten    --      0.1172                 0.1172                53.1129

                      4
                      A
 Frequencies --   8182.4354
 Red. masses --      1.0078
 Frc consts  --     39.7564
 IR Inten    --    453.1941

 - Thermochemistry -
 -------------------
 Temperature   298.150 Kelvin.  Pressure   1.00000 Atm.
 Atom     1 has atomic number  1 and mass   1.00783

 Molecular mass:    21.01405 amu.
 Principal axes and moments of inertia in atomic units:
                           1         2         3
     Eigenvalues --     0.00000  19.90850  19.90850
           X            1.00000  -0.00000   0.00000
           Y            0.00000   1.00000   0.00000
           Z            0.00000   0.00000   1.00000
 This molecule is a prolate symmetric top.
 Rotational symmetry number  1.
 Rotational temperature (Kelvin)      4.35060
 Rotational constant (GHZ):          90.651811
    2 imaginary frequencies ignored.
 Zero-point vibrational energy      52854.0 (Joules/Mol)
                                   12.63240 (Kcal/Mol)
 Vibrational temperatures:    941.04 11772.70
          (Kelvin)

 Zero-point correction=                           0.020131 (Hartree/Particle)
 Thermal correction to Energy=                    0.022624
 Thermal correction to Enthalpy=                  0.023568
 Thermal correction to Gibbs Free Energy=         0.001143
 Sum of electronic and zero-point Energies=           -100.868937
 Sum of electronic and thermal Energies=              -100.866444
 Sum of electronic and thermal Enthalpies=            -100.865500
 Sum of electronic and thermal Free Energies=         -100.887925

                     E (Thermal)             CV                S
                      KCal/Mol        Cal/Mol-Kelvin    Cal/Mol-Kelvin
 Total                   14.197              5.888             47.199
 Electronic               0.000              0.000              1.377
 Translational            0.889              2.981             35.068
 Rotational               0.592              1.987             10.388
 Vibrational             12.716              0.920              0.365

 Normal termination of Gaussian 16 at Fri Aug 22 16:21:35 2025.
