 Gaussian 16, Revision C.01,
 Gaussian 16:  ES64L-G16RevC.01  3-Jul-2019

 -----------------------------------------
 # sp b3lyp/6-311g** Force nosymm scf=(qc)
 -----------------------------------------

 -------------------
 Title Card Required
 -------------------
 Symbolic Z-matrix:
 Charge =  0 Multiplicity = 2

                          Input orientation:
 ---------------------------------------------------------------------
 Center     Atomic      Atomic             Coordinates (Angstroms)
 Number     Number       Type             X           Y           Z
 ---------------------------------------------------------------------
      1          1           0        0.000000    0.000000    0.000000
      2          1           0       -1.000000    0.000000    0.000000
      3          9           0        3.150000    0.000000    0.000000
 ---------------------------------------------------------------------

 SCF Done:  E(UB3LYP) =  -100.906679300     a.u. after    8 cycles

 Alpha  occ. eigenvalues --  -24.76179  -1.22078  -0.55304  -0.46444  -0.46444
 Alpha  occ. eigenvalues --   -0.39219
 Alpha virt. eigenvalues --    0.00079   0.21188   0.38326   0.89099   0.90946
 Alpha virt. eigenvalues --    0.90946   1.03387   1.08879   1.08879   1.37336
 Alpha virt. eigenvalues --    1.65524   1.65524   2.22729   2.36296   2.58696

  Beta  occ. eigenvalues --  -24.73035  -1.13036  -0.43292  -0.43292  -0.39199
  Beta virt. eigenvalues --   -0.26127   0.00196   0.21284   0.38644   0.92439
  Beta virt. eigenvalues --    0.92439   0.98006   1.07598   1.08909   1.08909
  Beta virt. eigenvalues --    1.37384   1.65548   1.65548   2.22813   2.36344

 Mulliken charges and spin densities:
               1          2
     1  H   -0.008199  -0.003054
     2  H    0.007950   0.006660
     3  F    0.000249   0.996394
 Sum of Mulliken charges =   0.00000   1.00000

 Dipole moment (field-independent basis, Debye):
    X=             -0.0412    Y=             -0.0000    Z=              0.0000  Tot=              0.0412
 Quadrupole moment (field-independent basis, Debye-Ang):
   XX=             -5.5142   YY=             -7.2712   ZZ=             -7.2712
   XY=             -0.0000   XZ=              0.0000   YZ=              0.0000

  Exact polarizability:      14.667      -0.000       2.059       0.000      -0.000       2.059
 Approx polarizability:      18.222      -0.000       2.111       0.000      -0.000       2.111

 ******    1 imaginary frequencies (negative Signs) ******

                      1                      2                      3
                      A                      A                      A
 Frequencies --    -56.8301              1535.4255              1535.4255
 Red. masses --      1.1085                 1.0097                 1.0097
 Frc consts  --      0.0021                 1.4025                 1.4025
 IR Inten    --      0.3198                 0.0685                 0.0685

                      4
                      A
 Frequencies --   1785.9624
 Red. masses --      1.0078
 Frc consts  --      1.8940
 IR Inten    --      4.1634

 - Thermochemistry -
 -------------------
 Temperature   298.150 Kelvin.  Pressure   1.00000 Atm.
 Atom     1 has atomic number  1 and mass   1.00783

 Molecular mass:    21.01405 amu.
 Principal axes and moments of inertia in atomic units:
                           1         2         3
     Eigenvalues --     0.00000  88.49686  88.49686
           X            1.00000  -0.00000   0.00000
           Y            0.00000   1.00000   0.00000
           Z            0.00000   0.00000   1.00000
 This molecule is a prolate symmetric top.
 Rotational symmetry number  1.
 Rotational temperature (Kelvin)      0.97872
 Rotational constant (GHZ):          20.393279
    1 imaginary frequencies ignored.
 Zero-point vibrational energy      29050.2 (Joules/Mol)
                                    6.94316 (Kcal/Mol)
 Vibrational temperatures:   2209.13  2209.13  2569.60
          (Kelvin)

 Zero-point correction=                           0.011065 (Hartree/Particle)
 Thermal correction to Energy=                    0.013435
 Thermal correction to Enthalpy=                  0.014379
 Thermal correction to Gibbs Free Energy=        -0.009293
 Sum of electronic and zero-point Energies=           -100.895615
 Sum of electronic and thermal Energies=              -100.893244
 Sum of electronic and thermal Enthalpies=            -100.892300
 Sum of electronic and thermal Free Energies=         -100.915972

                     E (Thermal)             CV                S
                      KCal/Mol        Cal/Mol-Kelvin    Cal/Mol-Kelvin
 Total                    8.431              5.127             49.821
 Electronic               0.000              0.000              1.377
 Translational            0.889              2.981             35.068
 Rotational               0.592              1.987             13.352
 Vibrational              6.949              0.159              0.024

 Normal termination of Gaussian 16 at Fri Aug 22 20:01:56 2025.
