 Gaussian 16, Revision C.01,
 Gaussian 16:  ES64L-G16RevC.01  3-Jul-2019

 -----------------------------------------
 # sp b3lyp/6-311g** Force nosymm scf=(qc)
 -----------------------------------------

 -------------------
 Title Card Required
 -------------------
 Symbolic Z-matrix:
 Charge =  0 Multiplicity = 2

                          Input orientation:
 ---------------------------------------------------------------------
 Center     Atomic      Atomic             Coordinates (Angstroms)
 Number     Number       Type             X           Y           Z
 ---------------------------------------------------------------------
      1          1           0        0.000000    0.000000    0.000000
      2          1           0       -1.950000    0.000000    0.000000
      3          9           0        2.400000    0.000000    0.000000
 ---------------------------------------------------------------------

 SCF Done:  E(UB3LYP) =  -100.786405320     a.u. after   18 cycles

 Alpha  occ. eigenvalues --  -24.71297  -1.17525  -0.50405  -0.42322  -0.42322
 Alpha  occ. eigenvalues --   -0.35239
 Alpha virt. eigenvalues --   -0.12927   0.24591   0.31815   0.89247   0.93858
 Alpha virt. eigenvalues --    0.93858   1.05232   1.21315   1.22673   1.22673
 Alpha virt. eigenvalues --    1.34716   1.34716   1.51766   2.11167   2.34928

  Beta  occ. eigenvalues --  -24.68500  -1.09577  -0.39537  -0.39537  -0.35512
  Beta virt. eigenvalues --   -0.23303  -0.11783   0.26614   0.31613   0.95181
  Beta virt. eigenvalues --    0.95181   0.95213   1.08206   1.22711   1.22711
  Beta virt. eigenvalues --    1.25384   1.36451   1.36451   1.52039   2.11840

 Mulliken charges and spin densities:
               1          2
     1  H    0.064858  -0.732352
     2  H    0.034332   0.849269
     3  F   -0.099190   0.883084
 Sum of Mulliken charges =  -0.00000   1.00000

 Dipole moment (field-independent basis, Debye):
    X=             -1.5290    Y=              0.0000    Z=             -0.0000  Tot=              1.5290
 Quadrupole moment (field-independent basis, Debye-Ang):
   XX=             -8.2075   YY=             -7.6491   ZZ=             -7.6491
   XY=              0.0000   XZ=             -0.0000   YZ=              0.0000

  Exact polarizability:      59.007       0.000       2.015      -0.000       0.000       2.015
 Approx polarizability:      66.095      -0.000       1.936       0.000      -0.000       1.936

 ******    2 imaginary frequencies (negative Signs) ******

                      1                      2                      3
                      A                      A                      A
 Frequencies --  -1493.6823              -426.4612               612.0363
 Red. masses --      1.0096                 1.1064                 1.0156
 Frc consts  --      1.3272                 0.1186                 0.2241
 IR Inten    --     99.5560                52.3229                 2.1653

                      4
                      A
 Frequencies --    612.0363
 Red. masses --      1.0156
 Frc consts  --      0.2241
 IR Inten    --      2.1653

 - Thermochemistry -
 -------------------
 Temperature   298.150 Kelvin.  Pressure   1.00000 Atm.
 Atom     1 has atomic number  1 and mass   1.00783

 Molecular mass:    21.01405 amu.
 Principal axes and moments of inertia in atomic units:
                           1         2         3
     Eigenvalues --     0.00000  80.96813  80.96813
           X            1.00000  -0.00000   0.00000
           Y            0.00000   1.00000   0.00000
           Z            0.00000   0.00000   1.00000
 This molecule is a prolate symmetric top.
 Rotational symmetry number  1.
 Rotational temperature (Kelvin)      1.06973
 Rotational constant (GHZ):          22.289527
    2 imaginary frequencies ignored.
 Zero-point vibrational energy       7321.6 (Joules/Mol)
                                    1.74990 (Kcal/Mol)
 Warning -- explicit consideration of   2 degrees of freedom as
           vibrations may cause significant error
 Vibrational temperatures:    880.58   880.58
          (Kelvin)

 Zero-point correction=                           0.002789 (Hartree/Particle)
 Thermal correction to Energy=                    0.005456
 Thermal correction to Enthalpy=                  0.006400
 Thermal correction to Gibbs Free Energy=        -0.017584
 Sum of electronic and zero-point Energies=           -100.783617
 Sum of electronic and thermal Energies=              -100.780949
 Sum of electronic and thermal Enthalpies=            -100.780005
 Sum of electronic and thermal Free Energies=         -100.803990

                     E (Thermal)             CV                S
                      KCal/Mol        Cal/Mol-Kelvin    Cal/Mol-Kelvin
 Total                    3.424              6.981             50.480
 Electronic               0.000              0.000              1.377
 Translational            0.889              2.981             35.068
 Rotational               0.592              1.987             13.176
 Vibrational              1.942              2.013              0.859
 Vibration     1          0.971              1.006              0.429
 Vibration     2          0.971              1.006              0.429

 Normal termination of Gaussian 16 at Fri Aug 22 17:32:06 2025.
