 Gaussian 16, Revision C.01,
 Gaussian 16:  ES64L-G16RevC.01  3-Jul-2019

 -----------------------------------------
 # sp b3lyp/6-311g** Force nosymm scf=(qc)
 -----------------------------------------

 -------------------
 Title Card Required
 -------------------
 Symbolic Z-matrix:
 Charge =  0 Multiplicity = 2

                          Input orientation:
 ---------------------------------------------------------------------
 Center     Atomic      Atomic             Coordinates (Angstroms)
 Number     Number       Type             X           Y           Z
 ---------------------------------------------------------------------
      1          1           0        0.000000    0.000000    0.000000
      2          1           0       -2.500000    0.000000    0.000000
      3          9           0        2.250000    0.000000    0.000000
 ---------------------------------------------------------------------

 SCF Done:  E(UB3LYP) =  -100.778194054     a.u. after   13 cycles

 Alpha  occ. eigenvalues --  -24.70079  -1.16367  -0.49145  -0.41307  -0.41307
 Alpha  occ. eigenvalues --   -0.34288
 Alpha virt. eigenvalues --   -0.12860   0.24422   0.32424   0.89151   0.94418
 Alpha virt. eigenvalues --    0.94418   1.06551   1.23364   1.23364   1.26477
 Alpha virt. eigenvalues --    1.36591   1.36591   1.49065   2.14229   2.31063

  Beta  occ. eigenvalues --  -24.67410  -1.08821  -0.38658  -0.38658  -0.36381
  Beta virt. eigenvalues --   -0.22270  -0.09781   0.25550   0.34643   0.93573
  Beta virt. eigenvalues --    0.95583   0.95583   1.08945   1.21856   1.21856
  Beta virt. eigenvalues --    1.39566   1.41383   1.41383   1.43400   2.13336

 Mulliken charges and spin densities:
               1          2
     1  H    0.118144  -0.811582
     2  H    0.014302   0.970318
     3  F   -0.132446   0.841263
 Sum of Mulliken charges =   0.00000   1.00000

 Dipole moment (field-independent basis, Debye):
    X=             -1.6696    Y=              0.0000    Z=             -0.0000  Tot=              1.6696
 Quadrupole moment (field-independent basis, Debye-Ang):
   XX=             -9.1768   YY=             -7.5742   ZZ=             -7.5742
   XY=             -0.0000   XZ=              0.0000   YZ=              0.0000

  Exact polarizability:      41.065       0.000       2.029       0.000      -0.000       2.029
 Approx polarizability:      47.135       0.000       1.925      -0.000      -0.000       1.925

 ******    2 imaginary frequencies (negative Signs) ******

                      1                      2                      3
                      A                      A                      A
 Frequencies --   -953.1793              -378.4580               392.4865
 Red. masses --      1.0317                 1.0810                 1.0193
 Frc consts  --      0.5523                 0.0912                 0.0925
 IR Inten    --     74.7357                20.6274                11.5065

                      4
                      A
 Frequencies --    392.4865
 Red. masses --      1.0193
 Frc consts  --      0.0925
 IR Inten    --     11.5065

 - Thermochemistry -
 -------------------
 Temperature   298.150 Kelvin.  Pressure   1.00000 Atm.
 Atom     1 has atomic number  1 and mass   1.00783

 Molecular mass:    21.01405 amu.
 Principal axes and moments of inertia in atomic units:
                           1         2         3
     Eigenvalues --     0.00000  90.96487  90.96487
           X            1.00000  -0.00000   0.00000
           Y            0.00000   1.00000   0.00000
           Z            0.00000   0.00000   1.00000
 This molecule is a prolate symmetric top.
 Rotational symmetry number  1.
 Rotational temperature (Kelvin)      0.95217
 Rotational constant (GHZ):          19.839980
    2 imaginary frequencies ignored.
 Zero-point vibrational energy       4695.2 (Joules/Mol)
                                    1.12218 (Kcal/Mol)
 Warning -- explicit consideration of   2 degrees of freedom as
           vibrations may cause significant error
 Vibrational temperatures:    564.70   564.70
          (Kelvin)

 Zero-point correction=                           0.001788 (Hartree/Particle)
 Thermal correction to Energy=                    0.004782
 Thermal correction to Enthalpy=                  0.005726
 Thermal correction to Gibbs Free Energy=        -0.018901
 Sum of electronic and zero-point Energies=           -100.776406
 Sum of electronic and thermal Energies=              -100.773412
 Sum of electronic and thermal Enthalpies=            -100.772468
 Sum of electronic and thermal Free Energies=         -100.797095

                     E (Thermal)             CV                S
                      KCal/Mol        Cal/Mol-Kelvin    Cal/Mol-Kelvin
 Total                    3.001              7.940             51.834
 Electronic               0.000              0.000              1.377
 Translational            0.889              2.981             35.068
 Rotational               0.592              1.987             13.407
 Vibrational              1.520              2.972              1.981
 Vibration     1          0.760              1.486              0.991
 Vibration     2          0.760              1.486              0.991

 Normal termination of Gaussian 16 at Fri Aug 22 17:16:53 2025.
