 Gaussian 16, Revision C.01,
 Gaussian 16:  ES64L-G16RevC.01  3-Jul-2019

 -----------------------------------------
 # sp b3lyp/6-311g** Force nosymm scf=(qc)
 -----------------------------------------

 -------------------
 Title Card Required
 -------------------
 Symbolic Z-matrix:
 Charge =  0 Multiplicity = 2

                          Input orientation:
 ---------------------------------------------------------------------
 Center     Atomic      Atomic             Coordinates (Angstroms)
 Number     Number       Type             X           Y           Z
 ---------------------------------------------------------------------
      1          1           0        0.000000    0.000000    0.000000
      2          1           0       -1.950000    0.000000    0.000000
      3          9           0        3.800000    0.000000    0.000000
 ---------------------------------------------------------------------

 SCF Done:  E(UB3LYP) =  -100.776657496     a.u. after  249 cycles

 Alpha  occ. eigenvalues --  -24.76161  -1.22063  -0.55268  -0.46438  -0.46424
 Alpha  occ. eigenvalues --   -0.32752
 Alpha virt. eigenvalues --   -0.10540   0.26120   0.32540   0.86095   0.90973
 Alpha virt. eigenvalues --    0.91461   1.00982   1.15624   1.25231   1.25232
 Alpha virt. eigenvalues --    1.38208   1.38211   1.53782   2.13662   2.37272

  Beta  occ. eigenvalues --  -24.73007  -1.12991  -0.43280  -0.43262  -0.32726
  Beta virt. eigenvalues --   -0.25919  -0.10601   0.26105   0.32573   0.92475
  Beta virt. eigenvalues --    0.92918   0.95564   1.05112   1.15602   1.25243
  Beta virt. eigenvalues --    1.25246   1.38171   1.38172   1.53783   2.13921

 Mulliken charges and spin densities:
               1          2
     1  H    0.000375  -0.829170
     2  H   -0.001341   0.829216
     3  F    0.000966   0.999954
 Sum of Mulliken charges =   0.00000   1.00000

 Dipole moment (field-independent basis, Debye):
    X=              0.0237    Y=              0.0000    Z=             -0.0000  Tot=              0.0237
 Quadrupole moment (field-independent basis, Debye-Ang):
   XX=             -6.9393   YY=             -6.8741   ZZ=             -7.7387
   XY=              0.0000   XZ=              0.0000   YZ=             -0.0002

  Exact polarizability:      22.132       0.000       2.476      -0.000      -0.000       2.011
 Approx polarizability:      26.676       0.000       2.527      -0.000      -0.000       1.944

 ******    2 imaginary frequencies (negative Signs) ******

                      1                      2                      3
                      A                      A                      A
 Frequencies --  -1442.6708               -41.5386               604.1747
 Red. masses --      1.0078                 1.1085                 1.0119
 Frc consts  --      1.2359                 0.0011                 0.2176
 IR Inten    --      0.0029                 0.0459                 0.0008

                      4
                      A
 Frequencies --    604.5769
 Red. masses --      1.0119
 Frc consts  --      0.2179
 IR Inten    --      0.0005

 - Thermochemistry -
 -------------------
 Temperature   298.150 Kelvin.  Pressure   1.00000 Atm.
 Atom     1 has atomic number  1 and mass   1.00783

 Molecular mass:    21.01405 amu.
 Principal axes and moments of inertia in atomic units:
                           1         2         3
     Eigenvalues --     0.00000 155.21972 155.21972
           X            1.00000  -0.00000   0.00000
           Y            0.00000   1.00000   0.00000
           Z            0.00000   0.00000   1.00000
 This molecule is a prolate symmetric top.
 Rotational symmetry number  1.
 Rotational temperature (Kelvin)      0.55801
 Rotational constant (GHZ):          11.627010
    2 imaginary frequencies ignored.
 Zero-point vibrational energy       7229.9 (Joules/Mol)
                                    1.72800 (Kcal/Mol)
 Warning -- explicit consideration of   2 degrees of freedom as
           vibrations may cause significant error
 Vibrational temperatures:    869.27   869.85
          (Kelvin)

 Zero-point correction=                           0.002754 (Hartree/Particle)
 Thermal correction to Energy=                    0.005429
 Thermal correction to Enthalpy=                  0.006374
 Thermal correction to Gibbs Free Energy=        -0.018238
 Sum of electronic and zero-point Energies=           -100.773904
 Sum of electronic and thermal Energies=              -100.771228
 Sum of electronic and thermal Enthalpies=            -100.770284
 Sum of electronic and thermal Free Energies=         -100.794895

                     E (Thermal)             CV                S
                      KCal/Mol        Cal/Mol-Kelvin    Cal/Mol-Kelvin
 Total                    3.407              7.013             51.799
 Electronic               0.000              0.000              1.377
 Translational            0.889              2.981             35.068
 Rotational               0.592              1.987             14.469
 Vibrational              1.926              2.045              0.884
 Vibration     1          0.963              1.023              0.443
 Vibration     2          0.963              1.022              0.442

 Normal termination of Gaussian 16 at Sat Aug 23 00:47:28 2025.
