 Gaussian 16, Revision C.01,
 Gaussian 16:  ES64L-G16RevC.01  3-Jul-2019

 -----------------------------------------
 # sp b3lyp/6-311g** Force nosymm scf=(qc)
 -----------------------------------------

 -------------------
 Title Card Required
 -------------------
 Symbolic Z-matrix:
 Charge =  0 Multiplicity = 2

                          Input orientation:
 ---------------------------------------------------------------------
 Center     Atomic      Atomic             Coordinates (Angstroms)
 Number     Number       Type             X           Y           Z
 ---------------------------------------------------------------------
      1          1           0        0.000000    0.000000    0.000000
      2          1           0       -4.000000    0.000000    0.000000
      3          9           0        2.400000    0.000000    0.000000
 ---------------------------------------------------------------------

 SCF Done:  E(UB3LYP) =  -100.769443909     a.u. after   19 cycles

 Alpha  occ. eigenvalues --  -24.68319  -1.09457  -0.39409  -0.39409  -0.35788
 Alpha  occ. eigenvalues --   -0.32766
 Alpha virt. eigenvalues --   -0.22912   0.21215   0.27290   0.94350   0.95244
 Alpha virt. eigenvalues --    0.95244   1.08323   1.21812   1.21812   1.24703
 Alpha virt. eigenvalues --    1.24712   1.24712   1.33054   2.10247   2.16134

  Beta  occ. eigenvalues --  -24.71099  -1.17352  -0.50191  -0.42177  -0.42177
  Beta virt. eigenvalues --   -0.11086  -0.04300   0.32413   0.40172   0.89163
  Beta virt. eigenvalues --    0.93940   0.93940   1.06195   1.39561   1.39561
  Beta virt. eigenvalues --    1.46130   1.48358   1.48358   1.48429   2.34826

 Mulliken charges and spin densities:
               1          2
     1  H    0.106549   0.877958
     2  H    0.000239   0.999765
     3  F   -0.106789  -0.877722
 Sum of Mulliken charges =  -0.00000   1.00000

 Dipole moment (field-independent basis, Debye):
    X=             -1.3023    Y=             -0.0000    Z=              0.0000  Tot=              1.3023
 Quadrupole moment (field-independent basis, Debye-Ang):
   XX=             -9.5659   YY=             -7.5490   ZZ=             -7.5490
   XY=             -0.0000   XZ=              0.0000   YZ=             -0.0000

  Exact polarizability:      29.103      -0.000       2.030       0.000       0.000       2.030
 Approx polarizability:      38.718      -0.000       1.922       0.000      -0.000       1.922

 ******    1 imaginary frequencies (negative Signs) ******

                      1                      2                      3
                      A                      A                      A
 Frequencies --   -674.6367                45.6283               272.8742
 Red. masses --      1.0589                 1.0526                 1.0251
 Frc consts  --      0.2840                 0.0013                 0.0450
 IR Inten    --     87.7923                 0.0090                11.1231

                      4
                      A
 Frequencies --    272.8742
 Red. masses --      1.0251
 Frc consts  --      0.0450
 IR Inten    --     11.1231

 - Thermochemistry -
 -------------------
 Temperature   298.150 Kelvin.  Pressure   1.00000 Atm.
 Atom     1 has atomic number  1 and mass   1.00783

 Molecular mass:    21.01405 amu.
 Principal axes and moments of inertia in atomic units:
                           1         2         3
     Eigenvalues --     0.00000 154.77900 154.77900
           X            1.00000  -0.00000   0.00000
           Y            0.00000   1.00000   0.00000
           Z            0.00000   0.00000   1.00000
 This molecule is a prolate symmetric top.
 Rotational symmetry number  1.
 Rotational temperature (Kelvin)      0.55960
 Rotational constant (GHZ):          11.660117
    1 imaginary frequencies ignored.
 Zero-point vibrational energy       3537.2 (Joules/Mol)
                                    0.84542 (Kcal/Mol)
 Warning -- explicit consideration of   3 degrees of freedom as
           vibrations may cause significant error
 Vibrational temperatures:     65.65   392.61   392.61
          (Kelvin)

 Zero-point correction=                           0.001347 (Hartree/Particle)
 Thermal correction to Energy=                    0.005462
 Thermal correction to Enthalpy=                  0.006406
 Thermal correction to Gibbs Free Energy=        -0.021656
 Sum of electronic and zero-point Energies=           -100.768097
 Sum of electronic and thermal Energies=              -100.763982
 Sum of electronic and thermal Enthalpies=            -100.763038
 Sum of electronic and thermal Free Energies=         -100.791100

                     E (Thermal)             CV                S
                      KCal/Mol        Cal/Mol-Kelvin    Cal/Mol-Kelvin
 Total                    3.428             10.394             59.063
 Electronic               0.000              0.000              1.377
 Translational            0.889              2.981             35.068
 Rotational               0.592              1.987             14.463
 Vibrational              1.946              5.426              8.154
 Vibration     1          0.595              1.979              4.998
 Vibration     2          0.676              1.723              1.578
 Vibration     3          0.676              1.723              1.578

 Normal termination of Gaussian 16 at Fri Aug 22 17:34:00 2025.
