 Gaussian 16, Revision C.01,
 Gaussian 16:  ES64L-G16RevC.01  3-Jul-2019

 -----------------------------------------
 # sp b3lyp/6-311g** Force nosymm scf=(qc)
 -----------------------------------------

 -------------------
 Title Card Required
 -------------------
 Symbolic Z-matrix:
 Charge =  0 Multiplicity = 2

                          Input orientation:
 ---------------------------------------------------------------------
 Center     Atomic      Atomic             Coordinates (Angstroms)
 Number     Number       Type             X           Y           Z
 ---------------------------------------------------------------------
      1          1           0        0.000000    0.000000    0.000000
      2          1           0       -0.850000    0.000000    0.000000
      3          9           0        2.400000    0.000000    0.000000
 ---------------------------------------------------------------------

 SCF Done:  E(UB3LYP) =  -100.928107621     a.u. after    6 cycles

 Alpha  occ. eigenvalues --  -24.75769  -1.21705  -0.55040  -0.46101  -0.46101
 Alpha  occ. eigenvalues --   -0.42169
 Alpha virt. eigenvalues --    0.03972   0.20554   0.43827   0.89629   0.91056
 Alpha virt. eigenvalues --    0.91056   1.07316   1.07316   1.12037   1.49061
 Alpha virt. eigenvalues --    1.74649   1.74649   2.11957   2.38359   2.86583

  Beta  occ. eigenvalues --  -24.72665  -1.12801  -0.42994  -0.42994  -0.42118
  Beta virt. eigenvalues --   -0.26100   0.04511   0.20888   0.44133   0.92517
  Beta virt. eigenvalues --    0.92517   0.97994   1.07548   1.07548   1.16229
  Beta virt. eigenvalues --    1.49494   1.74797   1.74797   2.12189   2.38604

 Mulliken charges and spin densities:
               1          2
     1  H   -0.011396  -0.013728
     2  H    0.021076   0.033422
     3  F   -0.009680   0.980306
 Sum of Mulliken charges =   0.00000   1.00000

 Dipole moment (field-independent basis, Debye):
    X=             -0.2049    Y=              0.0000    Z=              0.0000  Tot=              0.2049
 Quadrupole moment (field-independent basis, Debye-Ang):
   XX=             -5.7315   YY=             -7.0736   ZZ=             -7.0736
   XY=              0.0000   XZ=              0.0000   YZ=             -0.0000

  Exact polarizability:      17.008       0.000       2.040       0.000       0.000       2.040
 Approx polarizability:      18.738       0.000       2.110       0.000       0.000       2.110

 ******    1 imaginary frequencies (negative Signs) ******

                      1                      2                      3
                      A                      A                      A
 Frequencies --   -165.9006              1301.4693              1301.4693
 Red. masses --      1.1085                 1.0101                 1.0101
 Frc consts  --      0.0180                 1.0080                 1.0080
 IR Inten    --      8.1228                 0.3764                 0.3764

                      4
                      A
 Frequencies --   3095.8627
 Red. masses --      1.0078
 Frc consts  --      5.6912
 IR Inten    --     80.7555

 - Thermochemistry -
 -------------------
 Temperature   298.150 Kelvin.  Pressure   1.00000 Atm.
 Atom     1 has atomic number  1 and mass   1.00783

 Molecular mass:    21.01405 amu.
 Principal axes and moments of inertia in atomic units:
                           1         2         3
     Eigenvalues --     0.00000  53.23477  53.23477
           X            1.00000  -0.00000   0.00000
           Y            0.00000   1.00000   0.00000
           Z            0.00000   0.00000   1.00000
 This molecule is a prolate symmetric top.
 Rotational symmetry number  1.
 Rotational temperature (Kelvin)      1.62702
 Rotational constant (GHZ):          33.901548
    1 imaginary frequencies ignored.
 Zero-point vibrational energy      34086.4 (Joules/Mol)
                                    8.14685 (Kcal/Mol)
 Vibrational temperatures:   1872.52  1872.52  4454.26
          (Kelvin)

 Zero-point correction=                           0.012983 (Hartree/Particle)
 Thermal correction to Energy=                    0.015366
 Thermal correction to Enthalpy=                  0.016310
 Thermal correction to Gibbs Free Energy=        -0.006897
 Sum of electronic and zero-point Energies=           -100.915125
 Sum of electronic and thermal Energies=              -100.912742
 Sum of electronic and thermal Enthalpies=            -100.911798
 Sum of electronic and thermal Free Energies=         -100.935004

                     E (Thermal)             CV                S
                      KCal/Mol        Cal/Mol-Kelvin    Cal/Mol-Kelvin
 Total                    9.642              5.263             48.842
 Electronic               0.000              0.000              1.377
 Translational            0.889              2.981             35.068
 Rotational               0.592              1.987             12.342
 Vibrational              8.161              0.295              0.054

 Normal termination of Gaussian 16 at Fri Aug 22 17:30:29 2025.
