 Gaussian 16, Revision C.01,
 Gaussian 16:  ES64L-G16RevC.01  3-Jul-2019

 -----------------------------------------
 # sp b3lyp/6-311g** Force nosymm scf=(qc)
 -----------------------------------------

 -------------------
 Title Card Required
 -------------------
 Symbolic Z-matrix:
 Charge =  0 Multiplicity = 2

                          Input orientation:
 ---------------------------------------------------------------------
 Center     Atomic      Atomic             Coordinates (Angstroms)
 Number     Number       Type             X           Y           Z
 ---------------------------------------------------------------------
      1          1           0        0.000000    0.000000    0.000000
      2          1           0       -2.850000    0.000000    0.000000
      3          9           0        2.250000    0.000000    0.000000
 ---------------------------------------------------------------------

 SCF Done:  E(UB3LYP) =  -100.775942093     a.u. after   15 cycles

 Alpha  occ. eigenvalues --  -24.70112  -1.16404  -0.49179  -0.41344  -0.41344
 Alpha  occ. eigenvalues --   -0.33711
 Alpha virt. eigenvalues --   -0.12328   0.23885   0.33127   0.88927   0.94383
 Alpha virt. eigenvalues --    0.94383   1.06430   1.23853   1.23853   1.25185
 Alpha virt. eigenvalues --    1.37685   1.37685   1.49723   2.14755   2.32237

  Beta  occ. eigenvalues --  -24.67442  -1.08856  -0.38693  -0.38693  -0.36470
  Beta virt. eigenvalues --   -0.22243  -0.08483   0.24645   0.36164   0.92940
  Beta virt. eigenvalues --    0.95542   0.95542   1.08631   1.21649   1.21649
  Beta virt. eigenvalues --    1.38985   1.43687   1.43687   1.44630   2.13115

 Mulliken charges and spin densities:
               1          2
     1  H    0.126911  -0.830028
     2  H    0.006186   0.988462
     3  F   -0.133096   0.841566
 Sum of Mulliken charges =  -0.00000   1.00000

 Dipole moment (field-independent basis, Debye):
    X=             -1.5897    Y=             -0.0000    Z=              0.0000  Tot=              1.5897
 Quadrupole moment (field-independent basis, Debye-Ang):
   XX=             -9.4649   YY=             -7.5542   ZZ=             -7.5542
   XY=             -0.0000   XZ=              0.0000   YZ=              0.0000

  Exact polarizability:      34.060      -0.000       2.032       0.000      -0.000       2.032
 Approx polarizability:      42.320      -0.000       1.925       0.000      -0.000       1.925

 ******    2 imaginary frequencies (negative Signs) ******

                      1                      2                      3
                      A                      A                      A
 Frequencies --   -855.9368              -261.0407               352.3444
 Red. masses --      1.0467                 1.0650                 1.0210
 Frc consts  --      0.4518                 0.0428                 0.0747
 IR Inten    --     92.6961                 4.9091                14.3778

                      4
                      A
 Frequencies --    352.3444
 Red. masses --      1.0210
 Frc consts  --      0.0747
 IR Inten    --     14.3778

 - Thermochemistry -
 -------------------
 Temperature   298.150 Kelvin.  Pressure   1.00000 Atm.
 Atom     1 has atomic number  1 and mass   1.00783

 Molecular mass:    21.01405 amu.
 Principal axes and moments of inertia in atomic units:
                           1         2         3
     Eigenvalues --     0.00000 102.50554 102.50554
           X            1.00000  -0.00000   0.00000
           Y            0.00000   1.00000   0.00000
           Z            0.00000   0.00000   1.00000
 This molecule is a prolate symmetric top.
 Rotational symmetry number  1.
 Rotational temperature (Kelvin)      0.84497
 Rotational constant (GHZ):          17.606280
    2 imaginary frequencies ignored.
 Zero-point vibrational energy       4215.0 (Joules/Mol)
                                    1.00740 (Kcal/Mol)
 Warning -- explicit consideration of   2 degrees of freedom as
           vibrations may cause significant error
 Vibrational temperatures:    506.95   506.95
          (Kelvin)

 Zero-point correction=                           0.001605 (Hartree/Particle)
 Thermal correction to Energy=                    0.004683
 Thermal correction to Enthalpy=                  0.005627
 Thermal correction to Gibbs Free Energy=        -0.019270
 Sum of electronic and zero-point Energies=           -100.774337
 Sum of electronic and thermal Energies=              -100.771259
 Sum of electronic and thermal Enthalpies=            -100.770315
 Sum of electronic and thermal Free Energies=         -100.795212

                     E (Thermal)             CV                S
                      KCal/Mol        Cal/Mol-Kelvin    Cal/Mol-Kelvin
 Total                    2.939              8.109             52.401
 Electronic               0.000              0.000              1.377
 Translational            0.889              2.981             35.068
 Rotational               0.592              1.987             13.644
 Vibrational              1.458              3.141              2.311
 Vibration     1          0.729              1.570              1.156
 Vibration     2          0.729              1.570              1.156

 Normal termination of Gaussian 16 at Fri Aug 22 17:17:11 2025.
