 Gaussian 16, Revision C.01,
 Gaussian 16:  ES64L-G16RevC.01  3-Jul-2019

 -----------------------------------------
 # sp b3lyp/6-311g** Force nosymm scf=(qc)
 -----------------------------------------

 -------------------
 Title Card Required
 -------------------
 Symbolic Z-matrix:
 Charge =  0 Multiplicity = 2

                          Input orientation:
 ---------------------------------------------------------------------
 Center     Atomic      Atomic             Coordinates (Angstroms)
 Number     Number       Type             X           Y           Z
 ---------------------------------------------------------------------
      1          1           0        0.000000    0.000000    0.000000
      2          1           0       -3.050000    0.000000    0.000000
      3          9           0        3.750000    0.000000    0.000000
 ---------------------------------------------------------------------

 SCF Done:  E(UB3LYP) =  -100.759522385     a.u. after   28 cycles

 Alpha  occ. eigenvalues --  -24.75720  -1.21658  -0.54844  -0.46048  -0.46048
 Alpha  occ. eigenvalues --   -0.32365
 Alpha virt. eigenvalues --   -0.07682   0.24945   0.36462   0.86955   0.91271
 Alpha virt. eigenvalues --    0.91271   1.01323   1.25166   1.25166   1.25785
 Alpha virt. eigenvalues --    1.44332   1.44417   1.44417   2.15717   2.39729

  Beta  occ. eigenvalues --  -24.72585  -1.12646  -0.42905  -0.42905  -0.32634
  Beta virt. eigenvalues --   -0.25656  -0.07355   0.24753   0.36952   0.92767
  Beta virt. eigenvalues --    0.92767   0.96242   1.05413   1.24864   1.24864
  Beta virt. eigenvalues --    1.25459   1.44839   1.44924   1.44924   2.15836

 Mulliken charges and spin densities:
               1          2
     1  H    0.005050  -0.987304
     2  H    0.000352   0.993315
     3  F   -0.005402   0.993989
 Sum of Mulliken charges =  -0.00000   1.00000

 Dipole moment (field-independent basis, Debye):
    X=             -0.1096    Y=              0.0000    Z=             -0.0000  Tot=              0.1096
 Quadrupole moment (field-independent basis, Debye-Ang):
   XX=             -7.0273   YY=             -7.6341   ZZ=             -7.6341
   XY=              0.0000   XZ=             -0.0000   YZ=             -0.0000

  Exact polarizability:      18.804      -0.000       2.027       0.000       0.000       2.027
 Approx polarizability:      13.921       0.000       1.934      -0.000      -0.000       1.934

 ******    2 imaginary frequencies (negative Signs) ******

                      1                      2                      3
                      A                      A                      A
 Frequencies --   -324.3582               -99.0119               113.6391
 Red. masses --      1.0090                 1.1071                 1.0156
 Frc consts  --      0.0625                 0.0064                 0.0077
 IR Inten    --      2.4474                 1.7676                 0.0231

                      4
                      A
 Frequencies --    113.6391
 Red. masses --      1.0156
 Frc consts  --      0.0077
 IR Inten    --      0.0231

 - Thermochemistry -
 -------------------
 Temperature   298.150 Kelvin.  Pressure   1.00000 Atm.
 Atom     1 has atomic number  1 and mass   1.00783

 Molecular mass:    21.01405 amu.
 Principal axes and moments of inertia in atomic units:
                           1         2         3
     Eigenvalues --     0.00000 197.81763 197.81763
           X            1.00000  -0.00000   0.00000
           Y            0.00000   1.00000   0.00000
           Z            0.00000   0.00000   1.00000
 This molecule is a prolate symmetric top.
 Rotational symmetry number  1.
 Rotational temperature (Kelvin)      0.43785
 Rotational constant (GHZ):           9.123258
    2 imaginary frequencies ignored.
 Zero-point vibrational energy       1359.4 (Joules/Mol)
                                    0.32491 (Kcal/Mol)
 Warning -- explicit consideration of   2 degrees of freedom as
           vibrations may cause significant error
 Vibrational temperatures:    163.50   163.50
          (Kelvin)

 Zero-point correction=                           0.000518 (Hartree/Particle)
 Thermal correction to Energy=                    0.004296
 Thermal correction to Enthalpy=                  0.005240
 Thermal correction to Gibbs Free Energy=        -0.022226
 Sum of electronic and zero-point Energies=           -100.759005
 Sum of electronic and thermal Energies=              -100.755226
 Sum of electronic and thermal Enthalpies=            -100.754282
 Sum of electronic and thermal Free Energies=         -100.781749

                     E (Thermal)             CV                S
                      KCal/Mol        Cal/Mol-Kelvin    Cal/Mol-Kelvin
 Total                    2.696              8.844             57.808
 Electronic               0.000              0.000              1.377
 Translational            0.889              2.981             35.068
 Rotational               0.592              1.987             14.951
 Vibrational              1.215              3.876              6.412
 Vibration     1          0.607              1.938              3.206
 Vibration     2          0.607              1.938              3.206

 Normal termination of Gaussian 16 at Sat Aug 23 00:27:00 2025.
