 Gaussian 16, Revision C.01,
 Gaussian 16:  ES64L-G16RevC.01  3-Jul-2019

 -----------------------------------------
 # sp b3lyp/6-311g** Force nosymm scf=(qc)
 -----------------------------------------

 -------------------
 Title Card Required
 -------------------
 Symbolic Z-matrix:
 Charge =  0 Multiplicity = 2

                          Input orientation:
 ---------------------------------------------------------------------
 Center     Atomic      Atomic             Coordinates (Angstroms)
 Number     Number       Type             X           Y           Z
 ---------------------------------------------------------------------
      1          1           0        0.000000    0.000000    0.000000
      2          1           0       -3.100000    0.000000    0.000000
      3          9           0        1.350000    0.000000    0.000000
 ---------------------------------------------------------------------

 SCF Done:  E(UB3LYP) =  -100.889339766     a.u. after    7 cycles

 Alpha  occ. eigenvalues --  -24.64321  -1.10627  -0.45268  -0.36834  -0.36834
 Alpha  occ. eigenvalues --   -0.34393
 Alpha virt. eigenvalues --   -0.10298   0.21779   0.28017   0.93069   0.93069
 Alpha virt. eigenvalues --    1.02670   1.18816   1.23129   1.23129   1.23539
 Alpha virt. eigenvalues --    1.33320   1.33320   1.71271   2.13877   2.23134

  Beta  occ. eigenvalues --  -24.64299  -1.10571  -0.45202  -0.36814  -0.36814
  Beta virt. eigenvalues --   -0.11542  -0.06274   0.25068   0.37733   0.93064
  Beta virt. eigenvalues --    0.93064   1.02730   1.18995   1.33251   1.33251
  Beta virt. eigenvalues --    1.45182   1.45614   1.45614   1.71356   2.23047

 Mulliken charges and spin densities:
               1          2
     1  H    0.355793  -0.002548
     2  H    0.003893   0.995678
     3  F   -0.359687   0.006870
 Sum of Mulliken charges =   0.00000   1.00000

 Dipole moment (field-independent basis, Debye):
    X=             -2.5018    Y=             -0.0000    Z=              0.0000  Tot=              2.5018
 Quadrupole moment (field-independent basis, Debye-Ang):
   XX=             -9.2511   YY=             -7.2334   ZZ=             -7.2334
   XY=             -0.0000   XZ=              0.0000   YZ=              0.0000

  Exact polarizability:      13.480      -0.000       2.261       0.000       0.000       2.261
 Approx polarizability:      20.904       0.000       2.201      -0.000       0.000       2.201

 ******    2 imaginary frequencies (negative Signs) ******

                      1                      2                      3
                      A                      A                      A
 Frequencies --   -890.5452              -107.9173              1120.2105
 Red. masses --      1.0554                 1.0561                 1.0303
 Frc consts  --      0.4932                 0.0072                 0.7617
 IR Inten    --     68.9763                 0.3416               127.0413

                      4
                      A
 Frequencies --   1120.2105
 Red. masses --      1.0303
 Frc consts  --      0.7617
 IR Inten    --    127.0413

 - Thermochemistry -
 -------------------
 Temperature   298.150 Kelvin.  Pressure   1.00000 Atm.
 Atom     1 has atomic number  1 and mass   1.00783

 Molecular mass:    21.01405 amu.
 Principal axes and moments of inertia in atomic units:
                           1         2         3
     Eigenvalues --     0.00000  72.02206  72.02206
           X            1.00000  -0.00000   0.00000
           Y            0.00000   1.00000   0.00000
           Z            0.00000   0.00000   1.00000
 This molecule is a prolate symmetric top.
 Rotational symmetry number  1.
 Rotational temperature (Kelvin)      1.20260
 Rotational constant (GHZ):          25.058171
    2 imaginary frequencies ignored.
 Zero-point vibrational energy      13400.7 (Joules/Mol)
                                    3.20284 (Kcal/Mol)
 Vibrational temperatures:   1611.73  1611.73
          (Kelvin)

 Zero-point correction=                           0.005104 (Hartree/Particle)
 Thermal correction to Energy=                    0.007511
 Thermal correction to Enthalpy=                  0.008455
 Thermal correction to Gibbs Free Energy=        -0.015066
 Sum of electronic and zero-point Energies=           -100.884236
 Sum of electronic and thermal Energies=              -100.881829
 Sum of electronic and thermal Enthalpies=            -100.880885
 Sum of electronic and thermal Free Energies=         -100.904406

                     E (Thermal)             CV                S
                      KCal/Mol        Cal/Mol-Kelvin    Cal/Mol-Kelvin
 Total                    4.713              5.494             49.503
 Electronic               0.000              0.000              1.377
 Translational            0.889              2.981             35.068
 Rotational               0.592              1.987             12.943
 Vibrational              3.232              0.526              0.115

 Normal termination of Gaussian 16 at Fri Aug 22 16:18:21 2025.
