 Gaussian 16, Revision C.01,
 Gaussian 16:  ES64L-G16RevC.01  3-Jul-2019

 -----------------------------------------
 # sp b3lyp/6-311g** Force nosymm scf=(qc)
 -----------------------------------------

 -------------------
 Title Card Required
 -------------------
 Symbolic Z-matrix:
 Charge =  0 Multiplicity = 2

                          Input orientation:
 ---------------------------------------------------------------------
 Center     Atomic      Atomic             Coordinates (Angstroms)
 Number     Number       Type             X           Y           Z
 ---------------------------------------------------------------------
      1          1           0        0.000000    0.000000    0.000000
      2          1           0       -2.300000    0.000000    0.000000
      3          9           0        2.550000    0.000000    0.000000
 ---------------------------------------------------------------------

 SCF Done:  E(UB3LYP) =  -100.772847613     a.u. after   19 cycles

 Alpha  occ. eigenvalues --  -24.72059  -1.18246  -0.51161  -0.42966  -0.42966
 Alpha  occ. eigenvalues --   -0.34060
 Alpha virt. eigenvalues --   -0.12228   0.24999   0.32784   0.90248   0.93464
 Alpha virt. eigenvalues --    0.93464   1.06423   1.23699   1.23699   1.26331
 Alpha virt. eigenvalues --    1.36944   1.36944   1.42690   2.13495   2.33374

  Beta  occ. eigenvalues --  -24.69189  -1.10069  -0.40103  -0.40103  -0.35075
  Beta virt. eigenvalues --   -0.23606  -0.10406   0.26174   0.33771   0.94850
  Beta virt. eigenvalues --    0.94850   0.97603   1.09562   1.22645   1.22645
  Beta virt. eigenvalues --    1.28379   1.39918   1.39918   1.43661   2.13809

 Mulliken charges and spin densities:
               1          2
     1  H    0.064932  -0.854565
     2  H    0.016164   0.947344
     3  F   -0.081096   0.907221
 Sum of Mulliken charges =  -0.00000   1.00000

 Dipole moment (field-independent basis, Debye):
    X=             -1.2317    Y=             -0.0000    Z=              0.0000  Tot=              1.2317
 Quadrupole moment (field-independent basis, Debye-Ang):
   XX=             -8.5291   YY=             -7.6349   ZZ=             -7.6349
   XY=             -0.0000   XZ=              0.0000   YZ=             -0.0000

  Exact polarizability:      50.139      -0.000       2.011      -0.000      -0.000       2.011
 Approx polarizability:      51.452      -0.000       1.919       0.000      -0.000       1.919

 ******    2 imaginary frequencies (negative Signs) ******

                      1                      2                      3
                      A                      A                      A
 Frequencies --   -970.6643              -360.3705               381.4028
 Red. masses --      1.0124                 1.1030                 1.0167
 Frc consts  --      0.5620                 0.0844                 0.0871
 IR Inten    --     43.4523                37.6711                 3.0849

                      4
                      A
 Frequencies --    381.4028
 Red. masses --      1.0167
 Frc consts  --      0.0871
 IR Inten    --      3.0849

 - Thermochemistry -
 -------------------
 Temperature   298.150 Kelvin.  Pressure   1.00000 Atm.
 Atom     1 has atomic number  1 and mass   1.00783

 Molecular mass:    21.01405 amu.
 Principal axes and moments of inertia in atomic units:
                           1         2         3
     Eigenvalues --     0.00000  98.60828  98.60828
           X            1.00000  -0.00000   0.00000
           Y            0.00000   1.00000   0.00000
           Z            0.00000   0.00000   1.00000
 This molecule is a prolate symmetric top.
 Rotational symmetry number  1.
 Rotational temperature (Kelvin)      0.87836
 Rotational constant (GHZ):          18.302127
    2 imaginary frequencies ignored.
 Zero-point vibrational energy       4562.6 (Joules/Mol)
                                    1.09049 (Kcal/Mol)
 Warning -- explicit consideration of   2 degrees of freedom as
           vibrations may cause significant error
 Vibrational temperatures:    548.75   548.75
          (Kelvin)

 Zero-point correction=                           0.001738 (Hartree/Particle)
 Thermal correction to Energy=                    0.004754
 Thermal correction to Enthalpy=                  0.005698
 Thermal correction to Gibbs Free Energy=        -0.019047
 Sum of electronic and zero-point Energies=           -100.771110
 Sum of electronic and thermal Energies=              -100.768094
 Sum of electronic and thermal Enthalpies=            -100.767149
 Sum of electronic and thermal Free Energies=         -100.791894

                     E (Thermal)             CV                S
                      KCal/Mol        Cal/Mol-Kelvin    Cal/Mol-Kelvin
 Total                    2.983              7.988             52.080
 Electronic               0.000              0.000              1.377
 Translational            0.889              2.981             35.068
 Rotational               0.592              1.987             13.567
 Vibrational              1.502              3.020              2.067
 Vibration     1          0.751              1.510              1.034
 Vibration     2          0.751              1.510              1.034

 Normal termination of Gaussian 16 at Fri Aug 22 17:54:08 2025.
