 Gaussian 16, Revision C.01,
 Gaussian 16:  ES64L-G16RevC.01  3-Jul-2019

 -----------------------------------------
 # sp b3lyp/6-311g** Force nosymm scf=(qc)
 -----------------------------------------

 -------------------
 Title Card Required
 -------------------
 Symbolic Z-matrix:
 Charge =  0 Multiplicity = 2

                          Input orientation:
 ---------------------------------------------------------------------
 Center     Atomic      Atomic             Coordinates (Angstroms)
 Number     Number       Type             X           Y           Z
 ---------------------------------------------------------------------
      1          1           0        0.000000    0.000000    0.000000
      2          1           0       -2.150000    0.000000    0.000000
      3          9           0        0.500000    0.000000    0.000000
 ---------------------------------------------------------------------

 SCF Done:  E(UB3LYP) =  -100.268600169     a.u. after    6 cycles

 Alpha  occ. eigenvalues --  -24.63004  -1.42331  -0.63538  -0.44300  -0.44300
 Alpha  occ. eigenvalues --   -0.34667
 Alpha virt. eigenvalues --    0.10936   0.24884   0.58601   0.89445   0.90184
 Alpha virt. eigenvalues --    0.90184   1.20375   1.22878   1.22878   1.55799
 Alpha virt. eigenvalues --    1.58536   1.58536   2.00848   2.20948   3.76668

  Beta  occ. eigenvalues --  -24.62988  -1.42281  -0.63497  -0.44294  -0.44294
  Beta virt. eigenvalues --   -0.08817   0.12297   0.36797   0.59275   0.89575
  Beta virt. eigenvalues --    0.90161   0.90161   1.31727   1.44076   1.44076
  Beta virt. eigenvalues --    1.58506   1.58506   1.64431   2.05661   2.46498

 Mulliken charges and spin densities:
               1          2
     1  H    0.106237   0.008140
     2  H    0.007699   0.990544
     3  F   -0.113936   0.001316
 Sum of Mulliken charges =   0.00000   1.00000

 Dipole moment (field-independent basis, Debye):
    X=             -1.3546    Y=             -0.0000    Z=              0.0000  Tot=              1.3546
 Quadrupole moment (field-independent basis, Debye-Ang):
   XX=             -6.4586   YY=             -6.4195   ZZ=             -6.4195
   XY=             -0.0000   XZ=              0.0000   YZ=              0.0000

  Exact polarizability:       4.956       0.000       2.444      -0.000       0.000       2.444
 Approx polarizability:       4.795      -0.000       2.432      -0.000      -0.000       2.432

 ******    2 imaginary frequencies (negative Signs) ******

                      1                      2                      3
                      A                      A                      A
 Frequencies --  -9506.1763             -9506.1763               308.3727
 Red. masses --      1.0399                 1.0399                 1.0533
 Frc consts  --     55.3698                55.3698                 0.0590
 IR Inten    --    250.1668               250.1668                 0.0166

                      4
                      A
 Frequencies --  19158.4460
 Red. masses --      1.0583
 Frc consts  --    228.8644
 IR Inten    --     86.5411

 - Thermochemistry -
 -------------------
 Temperature   298.150 Kelvin.  Pressure   1.00000 Atm.
 Atom     1 has atomic number  1 and mass   1.00783

 Molecular mass:    21.01405 amu.
 Principal axes and moments of inertia in atomic units:
                           1         2         3
     Eigenvalues --     0.00000  24.46110  24.46110
           X            1.00000  -0.00000   0.00000
           Y            0.00000   1.00000   0.00000
           Z            0.00000   0.00000   1.00000
 This molecule is a prolate symmetric top.
 Rotational symmetry number  1.
 Rotational temperature (Kelvin)      3.54088
 Rotational constant (GHZ):          73.780058
    2 imaginary frequencies ignored.
 Zero-point vibrational energy     116437.4 (Joules/Mol)
                                   27.82921 (Kcal/Mol)
 Warning -- explicit consideration of   1 degrees of freedom as
           vibrations may cause significant error
 Vibrational temperatures:    443.68 27564.73
          (Kelvin)

 Zero-point correction=                           0.044349 (Hartree/Particle)
 Thermal correction to Energy=                    0.047119
 Thermal correction to Enthalpy=                  0.048063
 Thermal correction to Gibbs Free Energy=         0.024965
 Sum of electronic and zero-point Energies=           -100.224251
 Sum of electronic and thermal Energies=              -100.221481
 Sum of electronic and thermal Enthalpies=            -100.220537
 Sum of electronic and thermal Free Energies=         -100.243635

                     E (Thermal)             CV                S
                      KCal/Mol        Cal/Mol-Kelvin    Cal/Mol-Kelvin
 Total                   29.568              6.626             48.613
 Electronic               0.000              0.000              1.377
 Translational            0.889              2.981             35.068
 Rotational               0.592              1.987             10.797
 Vibrational             28.086              1.658              1.371
 Vibration     1          0.698              1.658              1.371

 Normal termination of Gaussian 16 at Fri Aug 22 15:37:01 2025.
