 Gaussian 16, Revision C.01,
 Gaussian 16:  ES64L-G16RevC.01  3-Jul-2019

 -----------------------------------------
 # sp b3lyp/6-311g** Force nosymm scf=(qc)
 -----------------------------------------

 -------------------
 Title Card Required
 -------------------
 Symbolic Z-matrix:
 Charge =  0 Multiplicity = 2

                          Input orientation:
 ---------------------------------------------------------------------
 Center     Atomic      Atomic             Coordinates (Angstroms)
 Number     Number       Type             X           Y           Z
 ---------------------------------------------------------------------
      1          1           0        0.000000    0.000000    0.000000
      2          1           0       -2.800000    0.000000    0.000000
      3          9           0        2.900000    0.000000    0.000000
 ---------------------------------------------------------------------

 SCF Done:  E(UB3LYP) =  -100.763428815     a.u. after   19 cycles

 Alpha  occ. eigenvalues --  -24.73738  -1.19821  -0.52854  -0.44382  -0.44382
 Alpha  occ. eigenvalues --   -0.32919
 Alpha virt. eigenvalues --   -0.09834   0.24895   0.34367   0.89803   0.92485
 Alpha virt. eigenvalues --    0.92485   1.04554   1.24648   1.24648   1.25998
 Alpha virt. eigenvalues --    1.41238   1.41238   1.42154   2.15573   2.37784

  Beta  occ. eigenvalues --  -24.70736  -1.11226  -0.41379  -0.41379  -0.34028
  Beta virt. eigenvalues --   -0.24582  -0.08257   0.25071   0.35970   0.93938
  Beta virt. eigenvalues --    0.93938   0.98388   1.08316   1.23365   1.23365
  Beta virt. eigenvalues --    1.24988   1.43713   1.43713   1.44082   2.16072

 Mulliken charges and spin densities:
               1          2
     1  H    0.041222  -0.938252
     2  H    0.003120   0.987404
     3  F   -0.044341   0.950848
 Sum of Mulliken charges =  -0.00000   1.00000

 Dipole moment (field-independent basis, Debye):
    X=             -0.7014    Y=              0.0000    Z=              0.0000  Tot=              0.7014
 Quadrupole moment (field-independent basis, Debye-Ang):
   XX=             -8.3119   YY=             -7.6261   ZZ=             -7.6261
   XY=             -0.0000   XZ=             -0.0000   YZ=             -0.0000

  Exact polarizability:      38.155      -0.000       2.018      -0.000      -0.000       2.018
 Approx polarizability:      37.885      -0.000       1.922      -0.000       0.000       1.922

 ******    2 imaginary frequencies (negative Signs) ******

                      1                      2                      3
                      A                      A                      A
 Frequencies --   -535.4826              -225.2116               201.0432
 Red. masses --      1.0200                 1.0942                 1.0175
 Frc consts  --      0.1723                 0.0327                 0.0242
 IR Inten    --     36.7563                10.9069                 1.4708

                      4
                      A
 Frequencies --    201.0432
 Red. masses --      1.0175
 Frc consts  --      0.0242
 IR Inten    --      1.4708

 - Thermochemistry -
 -------------------
 Temperature   298.150 Kelvin.  Pressure   1.00000 Atm.
 Atom     1 has atomic number  1 and mass   1.00783

 Molecular mass:    21.01405 amu.
 Principal axes and moments of inertia in atomic units:
                           1         2         3
     Eigenvalues --     0.00000 134.43344 134.43344
           X            1.00000  -0.00000   0.00000
           Y            0.00000   1.00000   0.00000
           Z            0.00000   0.00000   1.00000
 This molecule is a prolate symmetric top.
 Rotational symmetry number  1.
 Rotational temperature (Kelvin)      0.64429
 Rotational constant (GHZ):          13.424794
    2 imaginary frequencies ignored.
 Zero-point vibrational energy       2405.0 (Joules/Mol)
                                    0.57481 (Kcal/Mol)
 Warning -- explicit consideration of   2 degrees of freedom as
           vibrations may cause significant error
 Vibrational temperatures:    289.26   289.26
          (Kelvin)

 Zero-point correction=                           0.000916 (Hartree/Particle)
 Thermal correction to Energy=                    0.004395
 Thermal correction to Enthalpy=                  0.005339
 Thermal correction to Gibbs Free Energy=        -0.020734
 Sum of electronic and zero-point Energies=           -100.762513
 Sum of electronic and thermal Energies=              -100.759034
 Sum of electronic and thermal Enthalpies=            -100.758090
 Sum of electronic and thermal Free Energies=         -100.784163

                     E (Thermal)             CV                S
                      KCal/Mol        Cal/Mol-Kelvin    Cal/Mol-Kelvin
 Total                    2.758              8.645             54.876
 Electronic               0.000              0.000              1.377
 Translational            0.889              2.981             35.068
 Rotational               0.592              1.987             14.183
 Vibrational              1.276              3.677              4.247
 Vibration     1          0.638              1.838              2.124
 Vibration     2          0.638              1.838              2.124

 Normal termination of Gaussian 16 at Fri Aug 22 19:04:03 2025.
