 Gaussian 16, Revision C.01,
 Gaussian 16:  ES64L-G16RevC.01  3-Jul-2019

 -----------------------------------------
 # sp b3lyp/6-311g** Force nosymm scf=(qc)
 -----------------------------------------

 -------------------
 Title Card Required
 -------------------
 Symbolic Z-matrix:
 Charge =  0 Multiplicity = 2

                          Input orientation:
 ---------------------------------------------------------------------
 Center     Atomic      Atomic             Coordinates (Angstroms)
 Number     Number       Type             X           Y           Z
 ---------------------------------------------------------------------
      1          1           0        0.000000    0.000000    0.000000
      2          1           0       -2.150000    0.000000    0.000000
      3          9           0        1.850000    0.000000    0.000000
 ---------------------------------------------------------------------

 SCF Done:  E(UB3LYP) =  -100.807571697     a.u. after   19 cycles

 Alpha  occ. eigenvalues --  -24.66753  -1.13038  -0.45772  -0.38477  -0.38477
 Alpha  occ. eigenvalues --   -0.36363
 Alpha virt. eigenvalues --   -0.13884   0.23826   0.29796   0.91475   0.95067
 Alpha virt. eigenvalues --    0.95067   1.05676   1.21432   1.21432   1.27752
 Alpha virt. eigenvalues --    1.33893   1.33893   1.66671   2.11147   2.28128

  Beta  occ. eigenvalues --  -24.64672  -1.07282  -0.38448  -0.36440  -0.36440
  Beta virt. eigenvalues --   -0.20234  -0.10896   0.25379   0.32730   0.93359
  Beta virt. eigenvalues --    0.95328   0.95328   1.08596   1.24064   1.24064
  Beta virt. eigenvalues --    1.37765   1.37765   1.41878   1.62482   2.12426

 Mulliken charges and spin densities:
               1          2
     1  H    0.198047  -0.581855
     2  H    0.038197   0.928360
     3  F   -0.236244   0.653495
 Sum of Mulliken charges =   0.00000   1.00000

 Dipole moment (field-independent basis, Debye):
    X=             -2.5393    Y=             -0.0000    Z=              0.0000  Tot=              2.5393
 Quadrupole moment (field-independent basis, Debye-Ang):
   XX=             -9.0449   YY=             -7.4929   ZZ=             -7.4929
   XY=             -0.0000   XZ=              0.0000   YZ=              0.0000

  Exact polarizability:      41.976      -0.000       2.093      -0.000       0.000       2.093
 Approx polarizability:      51.619      -0.000       1.993      -0.000      -0.000       1.993

 ******    2 imaginary frequencies (negative Signs) ******

                      1                      2                      3
                      A                      A                      A
 Frequencies --  -1601.2713              -539.1358               667.4180
 Red. masses --      1.0346                 1.0779                 1.0199
 Frc consts  --      1.5629                 0.1846                 0.2677
 IR Inten    --     95.4751                22.0173                28.0913

                      4
                      A
 Frequencies --    667.4180
 Red. masses --      1.0199
 Frc consts  --      0.2677
 IR Inten    --     28.0913

 - Thermochemistry -
 -------------------
 Temperature   298.150 Kelvin.  Pressure   1.00000 Atm.
 Atom     1 has atomic number  1 and mass   1.00783

 Molecular mass:    21.01405 amu.
 Principal axes and moments of inertia in atomic units:
                           1         2         3
     Eigenvalues --     0.00000  63.99470  63.99470
           X            1.00000  -0.00000   0.00000
           Y            0.00000   1.00000   0.00000
           Z            0.00000   0.00000   1.00000
 This molecule is a prolate symmetric top.
 Rotational symmetry number  1.
 Rotational temperature (Kelvin)      1.35345
 Rotational constant (GHZ):          28.201415
    2 imaginary frequencies ignored.
 Zero-point vibrational energy       7984.1 (Joules/Mol)
                                    1.90824 (Kcal/Mol)
 Vibrational temperatures:    960.27   960.27
          (Kelvin)

 Zero-point correction=                           0.003041 (Hartree/Particle)
 Thermal correction to Energy=                    0.005654
 Thermal correction to Enthalpy=                  0.006599
 Thermal correction to Gibbs Free Energy=        -0.017086
 Sum of electronic and zero-point Energies=           -100.804531
 Sum of electronic and thermal Energies=              -100.801917
 Sum of electronic and thermal Enthalpies=            -100.800973
 Sum of electronic and thermal Free Energies=         -100.824657

                     E (Thermal)             CV                S
                      KCal/Mol        Cal/Mol-Kelvin    Cal/Mol-Kelvin
 Total                    3.548              6.754             49.848
 Electronic               0.000              0.000              1.377
 Translational            0.889              2.981             35.068
 Rotational               0.592              1.987             12.708
 Vibrational              2.067              1.786              0.694

 Normal termination of Gaussian 16 at Fri Aug 22 16:46:52 2025.
