 Gaussian 16, Revision C.01,
 Gaussian 16:  ES64L-G16RevC.01  3-Jul-2019

 -----------------------------------------
 # sp b3lyp/6-311g** Force nosymm scf=(qc)
 -----------------------------------------

 -------------------
 Title Card Required
 -------------------
 Symbolic Z-matrix:
 Charge =  0 Multiplicity = 2

                          Input orientation:
 ---------------------------------------------------------------------
 Center     Atomic      Atomic             Coordinates (Angstroms)
 Number     Number       Type             X           Y           Z
 ---------------------------------------------------------------------
      1          1           0        0.000000    0.000000    0.000000
      2          1           0       -1.700000    0.000000    0.000000
      3          9           0        0.500000    0.000000    0.000000
 ---------------------------------------------------------------------

 SCF Done:  E(UB3LYP) =  -100.265049100     a.u. after    6 cycles

 Alpha  occ. eigenvalues --  -24.63132  -1.42584  -0.63846  -0.44447  -0.44447
 Alpha  occ. eigenvalues --   -0.35274
 Alpha virt. eigenvalues --    0.13346   0.22884   0.60196   0.89483   0.89894
 Alpha virt. eigenvalues --    0.89894   1.21272   1.21272   1.36338   1.59381
 Alpha virt. eigenvalues --    1.59381   1.65074   2.06541   2.21357   3.76534

  Beta  occ. eigenvalues --  -24.63079  -1.42414  -0.63666  -0.44420  -0.44420
  Beta virt. eigenvalues --   -0.10255   0.14536   0.32803   0.64171   0.89590
  Beta virt. eigenvalues --    0.89946   0.89946   1.40060   1.40060   1.41945
  Beta virt. eigenvalues --    1.60391   1.60391   1.75394   2.07793   2.47127

 Mulliken charges and spin densities:
               1          2
     1  H    0.084705   0.015360
     2  H    0.010956   0.984691
     3  F   -0.095660  -0.000050
 Sum of Mulliken charges =   0.00000   1.00000

 Dipole moment (field-independent basis, Debye):
    X=             -1.3235    Y=             -0.0000    Z=              0.0000  Tot=              1.3235
 Quadrupole moment (field-independent basis, Debye-Ang):
   XX=             -6.5130   YY=             -6.3869   ZZ=             -6.3869
   XY=             -0.0000   XZ=              0.0000   YZ=             -0.0000

  Exact polarizability:       5.437      -0.000       2.464       0.000       0.000       2.464
 Approx polarizability:       5.146      -0.000       2.468      -0.000       0.000       2.468

 ******    2 imaginary frequencies (negative Signs) ******

                      1                      2                      3
                      A                      A                      A
 Frequencies --  -9438.5338             -9438.5338               697.4627
 Red. masses --      1.0365                 1.0365                 1.0533
 Frc consts  --     54.4050                54.4050                 0.3019
 IR Inten    --    221.7575               221.7575                 2.0195

                      4
                      A
 Frequencies --  19156.7075
 Red. masses --      1.0582
 Frc consts  --    228.8118
 IR Inten    --     81.4902

 - Thermochemistry -
 -------------------
 Temperature   298.150 Kelvin.  Pressure   1.00000 Atm.
 Atom     1 has atomic number  1 and mass   1.00783

 Molecular mass:    21.01405 amu.
 Principal axes and moments of inertia in atomic units:
                           1         2         3
     Eigenvalues --     0.00000  17.06065  17.06065
           X            1.00000  -0.00000   0.00000
           Y            0.00000   1.00000   0.00000
           Z            0.00000   0.00000   1.00000
 This molecule is a prolate symmetric top.
 Rotational symmetry number  1.
 Rotational temperature (Kelvin)      5.07682
 Rotational constant (GHZ):         105.783854
    2 imaginary frequencies ignored.
 Zero-point vibrational energy     118754.3 (Joules/Mol)
                                   28.38296 (Kcal/Mol)
 Vibrational temperatures:   1003.49 27562.23
          (Kelvin)

 Zero-point correction=                           0.045231 (Hartree/Particle)
 Thermal correction to Energy=                    0.047705
 Thermal correction to Enthalpy=                  0.048649
 Thermal correction to Gibbs Free Energy=         0.026396
 Sum of electronic and zero-point Energies=           -100.219818
 Sum of electronic and thermal Energies=              -100.217344
 Sum of electronic and thermal Enthalpies=            -100.216400
 Sum of electronic and thermal Free Energies=         -100.238653

                     E (Thermal)             CV                S
                      KCal/Mol        Cal/Mol-Kelvin    Cal/Mol-Kelvin
 Total                   29.936              5.802             46.835
 Electronic               0.000              0.000              1.377
 Translational            0.889              2.981             35.068
 Rotational               0.592              1.987             10.081
 Vibrational             28.454              0.834              0.309

 Normal termination of Gaussian 16 at Fri Aug 22 15:36:42 2025.
