 Gaussian 16, Revision C.01,
 Gaussian 16:  ES64L-G16RevC.01  3-Jul-2019

 -----------------------------------------
 # sp b3lyp/6-311g** Force nosymm scf=(qc)
 -----------------------------------------

 -------------------
 Title Card Required
 -------------------
 Symbolic Z-matrix:
 Charge =  0 Multiplicity = 2

                          Input orientation:
 ---------------------------------------------------------------------
 Center     Atomic      Atomic             Coordinates (Angstroms)
 Number     Number       Type             X           Y           Z
 ---------------------------------------------------------------------
      1          1           0        0.000000    0.000000    0.000000
      2          1           0       -3.000000    0.000000    0.000000
      3          9           0        3.250000    0.000000    0.000000
 ---------------------------------------------------------------------

 SCF Done:  E(UB3LYP) =  -100.760659417     a.u. after   25 cycles

 Alpha  occ. eigenvalues --  -24.74876  -1.20876  -0.53996  -0.45337  -0.45337
 Alpha  occ. eigenvalues --   -0.32557
 Alpha virt. eigenvalues --   -0.08455   0.24837   0.35468   0.88507   0.91796
 Alpha virt. eigenvalues --    0.91796   1.02661   1.24980   1.24980   1.25729
 Alpha virt. eigenvalues --    1.43268   1.43268   1.43395   2.15623   2.39423

  Beta  occ. eigenvalues --  -24.71795  -1.12034  -0.42251  -0.42251  -0.33240
  Beta virt. eigenvalues --   -0.25218  -0.07562   0.24665   0.36729   0.93274
  Beta virt. eigenvalues --    0.93274   0.97477   1.06584   1.24180   1.24180
  Beta virt. eigenvalues --    1.24882   1.44658   1.44695   1.44695   2.16127

 Mulliken charges and spin densities:
               1          2
     1  H    0.020281  -0.969019
     2  H    0.001063   0.992547
     3  F   -0.021344   0.976473
 Sum of Mulliken charges =  -0.00000   1.00000

 Dipole moment (field-independent basis, Debye):
    X=             -0.3717    Y=              0.0000    Z=              0.0000  Tot=              0.3717
 Quadrupole moment (field-independent basis, Debye-Ang):
   XX=             -7.7193   YY=             -7.6303   ZZ=             -7.6303
   XY=              0.0000   XZ=              0.0000   YZ=              0.0000

  Exact polarizability:      32.060       0.000       2.026       0.000      -0.000       2.026
 Approx polarizability:      27.652       0.000       1.928       0.000      -0.000       1.928

 ******    2 imaginary frequencies (negative Signs) ******

                      1                      2                      3
                      A                      A                      A
 Frequencies --   -391.3827              -161.7952               139.1657
 Red. masses --      1.0165                 1.0982                 1.0170
 Frc consts  --      0.0917                 0.0169                 0.0116
 IR Inten    --     18.2232                 5.9445                 0.3561

                      4
                      A
 Frequencies --    139.1657
 Red. masses --      1.0170
 Frc consts  --      0.0116
 IR Inten    --      0.3561

 - Thermochemistry -
 -------------------
 Temperature   298.150 Kelvin.  Pressure   1.00000 Atm.
 Atom     1 has atomic number  1 and mass   1.00783

 Molecular mass:    21.01405 amu.
 Principal axes and moments of inertia in atomic units:
                           1         2         3
     Eigenvalues --     0.00000 163.02302 163.02302
           X            1.00000  -0.00000   0.00000
           Y            0.00000   1.00000   0.00000
           Z            0.00000   0.00000   1.00000
 This molecule is a prolate symmetric top.
 Rotational symmetry number  1.
 Rotational temperature (Kelvin)      0.53130
 Rotational constant (GHZ):          11.070468
    2 imaginary frequencies ignored.
 Zero-point vibrational energy       1664.8 (Joules/Mol)
                                    0.39789 (Kcal/Mol)
 Warning -- explicit consideration of   2 degrees of freedom as
           vibrations may cause significant error
 Vibrational temperatures:    200.23   200.23
          (Kelvin)

 Zero-point correction=                           0.000634 (Hartree/Particle)
 Thermal correction to Energy=                    0.004319
 Thermal correction to Enthalpy=                  0.005263
 Thermal correction to Gibbs Free Energy=        -0.021649
 Sum of electronic and zero-point Energies=           -100.760025
 Sum of electronic and thermal Energies=              -100.756340
 Sum of electronic and thermal Enthalpies=            -100.755396
 Sum of electronic and thermal Free Energies=         -100.782309

                     E (Thermal)             CV                S
                      KCal/Mol        Cal/Mol-Kelvin    Cal/Mol-Kelvin
 Total                    2.710              8.796             56.642
 Electronic               0.000              0.000              1.377
 Translational            0.889              2.981             35.068
 Rotational               0.592              1.987             14.566
 Vibrational              1.229              3.828              5.631
 Vibration     1          0.615              1.914              2.815
 Vibration     2          0.615              1.914              2.815

 Normal termination of Gaussian 16 at Fri Aug 22 20:35:39 2025.
