 Gaussian 16, Revision C.01,
 Gaussian 16:  ES64L-G16RevC.01  3-Jul-2019

 -----------------------------------------
 # sp b3lyp/6-311g** Force nosymm scf=(qc)
 -----------------------------------------

 -------------------
 Title Card Required
 -------------------
 Symbolic Z-matrix:
 Charge =  0 Multiplicity = 2

                          Input orientation:
 ---------------------------------------------------------------------
 Center     Atomic      Atomic             Coordinates (Angstroms)
 Number     Number       Type             X           Y           Z
 ---------------------------------------------------------------------
      1          1           0        0.000000    0.000000    0.000000
      2          1           0       -1.850000    0.000000    0.000000
      3          9           0        2.000000    0.000000    0.000000
 ---------------------------------------------------------------------

 SCF Done:  E(UB3LYP) =  -100.806774032     a.u. after   14 cycles

 Alpha  occ. eigenvalues --  -24.68344  -1.14688  -0.47512  -0.39844  -0.39844
 Alpha  occ. eigenvalues --   -0.36906
 Alpha virt. eigenvalues --   -0.13056   0.23552   0.30759   0.86763   0.94829
 Alpha virt. eigenvalues --    0.94829   1.03928   1.20799   1.20799   1.27909
 Alpha virt. eigenvalues --    1.34052   1.34052   1.63833   2.12188   2.34086

  Beta  occ. eigenvalues --  -24.65922  -1.07909  -0.37455  -0.37455  -0.37326
  Beta virt. eigenvalues --   -0.21886  -0.11462   0.26065   0.30818   0.89732
  Beta virt. eigenvalues --    0.95616   0.95616   1.07828   1.22916   1.22916
  Beta virt. eigenvalues --    1.35315   1.35315   1.35455   1.63054   2.13074

 Mulliken charges and spin densities:
               1          2
     1  H    0.128496  -0.585627
     2  H    0.052758   0.824714
     3  F   -0.181254   0.760913
 Sum of Mulliken charges =  -0.00000   1.00000

 Dipole moment (field-independent basis, Debye):
    X=             -2.2701    Y=              0.0000    Z=              0.0000  Tot=              2.2701
 Quadrupole moment (field-independent basis, Debye-Ang):
   XX=             -8.4631   YY=             -7.5529   ZZ=             -7.5529
   XY=              0.0000   XZ=             -0.0000   YZ=              0.0000

  Exact polarizability:      52.175      -0.000       2.070       0.000       0.000       2.070
 Approx polarizability:      66.243      -0.000       1.986       0.000       0.000       1.986

 ******    2 imaginary frequencies (negative Signs) ******

                      1                      2                      3
                      A                      A                      A
 Frequencies --  -1778.6194              -581.0666               741.3065
 Red. masses --      1.0152                 1.0997                 1.0170
 Frc consts  --      1.8922                 0.2188                 0.3293
 IR Inten    --    193.7031                33.6037                 8.7662

                      4
                      A
 Frequencies --    741.3065
 Red. masses --      1.0170
 Frc consts  --      0.3293
 IR Inten    --      8.7662

 - Thermochemistry -
 -------------------
 Temperature   298.150 Kelvin.  Pressure   1.00000 Atm.
 Atom     1 has atomic number  1 and mass   1.00783

 Molecular mass:    21.01405 amu.
 Principal axes and moments of inertia in atomic units:
                           1         2         3
     Eigenvalues --     0.00000  61.83530  61.83530
           X            1.00000  -0.00000   0.00000
           Y            0.00000   1.00000   0.00000
           Z            0.00000   0.00000   1.00000
 This molecule is a prolate symmetric top.
 Rotational symmetry number  1.
 Rotational temperature (Kelvin)      1.40072
 Rotational constant (GHZ):          29.186262
    2 imaginary frequencies ignored.
 Zero-point vibrational energy       8868.0 (Joules/Mol)
                                    2.11950 (Kcal/Mol)
 Vibrational temperatures:   1066.57  1066.57
          (Kelvin)

 Zero-point correction=                           0.003378 (Hartree/Particle)
 Thermal correction to Energy=                    0.005932
 Thermal correction to Enthalpy=                  0.006877
 Thermal correction to Gibbs Free Energy=        -0.016693
 Sum of electronic and zero-point Energies=           -100.803396
 Sum of electronic and thermal Energies=              -100.800842
 Sum of electronic and thermal Enthalpies=            -100.799897
 Sum of electronic and thermal Free Energies=         -100.823467

                     E (Thermal)             CV                S
                      KCal/Mol        Cal/Mol-Kelvin    Cal/Mol-Kelvin
 Total                    3.723              6.473             49.607
 Electronic               0.000              0.000              1.377
 Translational            0.889              2.981             35.068
 Rotational               0.592              1.987             12.640
 Vibrational              2.241              1.505              0.521

 Normal termination of Gaussian 16 at Fri Aug 22 16:56:21 2025.
