 Gaussian 16, Revision C.01,
 Gaussian 16:  ES64L-G16RevC.01  3-Jul-2019

 -----------------------------------------
 # sp b3lyp/6-311g** Force nosymm scf=(qc)
 -----------------------------------------

 -------------------
 Title Card Required
 -------------------
 Symbolic Z-matrix:
 Charge =  0 Multiplicity = 2

                          Input orientation:
 ---------------------------------------------------------------------
 Center     Atomic      Atomic             Coordinates (Angstroms)
 Number     Number       Type             X           Y           Z
 ---------------------------------------------------------------------
      1          1           0        0.000000    0.000000    0.000000
      2          1           0       -1.350000    0.000000    0.000000
      3          9           0        2.500000    0.000000    0.000000
 ---------------------------------------------------------------------

 SCF Done:  E(UB3LYP) =  -100.846969863     a.u. after   18 cycles

 Alpha  occ. eigenvalues --  -24.74380  -1.20432  -0.53594  -0.44950  -0.44950
 Alpha  occ. eigenvalues --   -0.36460
 Alpha virt. eigenvalues --   -0.08063   0.23239   0.32389   0.89203   0.91952
 Alpha virt. eigenvalues --    0.91952   1.06389   1.14959   1.14959   1.16030
 Alpha virt. eigenvalues --    1.45614   1.45614   1.92742   2.25541   2.51362

  Beta  occ. eigenvalues --  -24.71369  -1.11816  -0.41940  -0.41940  -0.36102
  Beta virt. eigenvalues --   -0.25490  -0.07352   0.23752   0.32855   0.93383
  Beta virt. eigenvalues --    0.93383   0.96904   1.08963   1.15433   1.15433
  Beta virt. eigenvalues --    1.18734   1.46015   1.46015   1.93298   2.26227

 Mulliken charges and spin densities:
               1          2
     1  H    0.006252  -0.105422
     2  H    0.031827   0.153780
     3  F   -0.038079   0.951643
 Sum of Mulliken charges =  -0.00000   1.00000

 Dipole moment (field-independent basis, Debye):
    X=             -0.6839    Y=              0.0000    Z=             -0.0000  Tot=              0.6839
 Quadrupole moment (field-independent basis, Debye-Ang):
   XX=             -6.3841   YY=             -7.5908   ZZ=             -7.5908
   XY=              0.0000   XZ=             -0.0000   YZ=              0.0000

  Exact polarizability:      48.094       0.000       2.100      -0.000       0.000       2.100
 Approx polarizability:      65.061      -0.000       2.082       0.000      -0.000       2.082

 ******    2 imaginary frequencies (negative Signs) ******

                      1                      2                      3
                      A                      A                      A
 Frequencies --  -1434.3078              -241.5940              1308.5805
 Red. masses --      1.0092                 1.1068                 1.0122
 Frc consts  --      1.2233                 0.0381                 1.0212
 IR Inten    --    545.8800                15.5136                 0.0120

                      4
                      A
 Frequencies --   1308.5805
 Red. masses --      1.0122
 Frc consts  --      1.0212
 IR Inten    --      0.0120

 - Thermochemistry -
 -------------------
 Temperature   298.150 Kelvin.  Pressure   1.00000 Atm.
 Atom     1 has atomic number  1 and mass   1.00783

 Molecular mass:    21.01405 amu.
 Principal axes and moments of inertia in atomic units:
                           1         2         3
     Eigenvalues --     0.00000  68.88017  68.88017
           X            1.00000  -0.00000   0.00000
           Y            0.00000   1.00000   0.00000
           Z            0.00000   0.00000   1.00000
 This molecule is a prolate symmetric top.
 Rotational symmetry number  1.
 Rotational temperature (Kelvin)      1.25746
 Rotational constant (GHZ):          26.201174
    2 imaginary frequencies ignored.
 Zero-point vibrational energy      15654.1 (Joules/Mol)
                                    3.74142 (Kcal/Mol)
 Vibrational temperatures:   1882.76  1882.76
          (Kelvin)

 Zero-point correction=                           0.005962 (Hartree/Particle)
 Thermal correction to Energy=                    0.008344
 Thermal correction to Enthalpy=                  0.009289
 Thermal correction to Gibbs Free Energy=        -0.014160
 Sum of electronic and zero-point Energies=           -100.841008
 Sum of electronic and thermal Energies=              -100.838625
 Sum of electronic and thermal Enthalpies=            -100.837681
 Sum of electronic and thermal Free Energies=         -100.861130

                     E (Thermal)             CV                S
                      KCal/Mol        Cal/Mol-Kelvin    Cal/Mol-Kelvin
 Total                    5.236              5.256             49.352
 Electronic               0.000              0.000              1.377
 Translational            0.889              2.981             35.068
 Rotational               0.592              1.987             12.854
 Vibrational              3.755              0.288              0.053

 Normal termination of Gaussian 16 at Fri Aug 22 17:44:04 2025.
