 Gaussian 16, Revision C.01,
 Gaussian 16:  ES64L-G16RevC.01  3-Jul-2019

 -----------------------------------------
 # sp b3lyp/6-311g** Force nosymm scf=(qc)
 -----------------------------------------

 -------------------
 Title Card Required
 -------------------
 Symbolic Z-matrix:
 Charge =  0 Multiplicity = 2

                          Input orientation:
 ---------------------------------------------------------------------
 Center     Atomic      Atomic             Coordinates (Angstroms)
 Number     Number       Type             X           Y           Z
 ---------------------------------------------------------------------
      1          1           0        0.000000    0.000000    0.000000
      2          1           0       -2.800000    0.000000    0.000000
      3          9           0        3.850000    0.000000    0.000000
 ---------------------------------------------------------------------

 SCF Done:  E(UB3LYP) =  -100.760351075     a.u. after   32 cycles

 Alpha  occ. eigenvalues --  -24.75812  -1.21744  -0.54936  -0.46126  -0.46126
 Alpha  occ. eigenvalues --   -0.32417
 Alpha virt. eigenvalues --   -0.08282   0.25374   0.35755   0.86764   0.91212
 Alpha virt. eigenvalues --    0.91212   1.01194   1.25147   1.25147   1.26265
 Alpha virt. eigenvalues --    1.43459   1.43459   1.43791   2.16017   2.38697

  Beta  occ. eigenvalues --  -24.72671  -1.12714  -0.42978  -0.42978  -0.32619
  Beta virt. eigenvalues --   -0.25703  -0.08018   0.25198   0.36122   0.92709
  Beta virt. eigenvalues --    0.92709   0.96103   1.05306   1.24924   1.24924
  Beta virt. eigenvalues --    1.26017   1.43856   1.43856   1.44187   2.16118

 Mulliken charges and spin densities:
               1          2
     1  H    0.003245  -0.982700
     2  H    0.000547   0.986960
     3  F   -0.003791   0.995740
 Sum of Mulliken charges =   0.00000   1.00000

 Dipole moment (field-independent basis, Debye):
    X=             -0.0826    Y=             -0.0000    Z=              0.0000  Tot=              0.0826
 Quadrupole moment (field-independent basis, Debye-Ang):
   XX=             -6.8806   YY=             -7.6456   ZZ=             -7.6456
   XY=              0.0000   XZ=             -0.0000   YZ=             -0.0000

  Exact polarizability:      18.292       0.000       2.026      -0.000      -0.000       2.026
 Approx polarizability:      13.568       0.000       1.933      -0.000      -0.000       1.933

 ******    2 imaginary frequencies (negative Signs) ******

                      1                      2                      3
                      A                      A                      A
 Frequencies --   -437.2876               -87.8433               157.1097
 Red. masses --      1.0080                 1.1083                 1.0145
 Frc consts  --      0.1136                 0.0050                 0.0148
 IR Inten    --      1.2912                 1.2850                 0.0087

                      4
                      A
 Frequencies --    157.1097
 Red. masses --      1.0145
 Frc consts  --      0.0148
 IR Inten    --      0.0087

 - Thermochemistry -
 -------------------
 Temperature   298.150 Kelvin.  Pressure   1.00000 Atm.
 Atom     1 has atomic number  1 and mass   1.00783

 Molecular mass:    21.01405 amu.
 Principal axes and moments of inertia in atomic units:
                           1         2         3
     Eigenvalues --     0.00000 193.47355 193.47355
           X            1.00000  -0.00000   0.00000
           Y            0.00000   1.00000   0.00000
           Z            0.00000   0.00000   1.00000
 This molecule is a prolate symmetric top.
 Rotational symmetry number  1.
 Rotational temperature (Kelvin)      0.44768
 Rotational constant (GHZ):           9.328103
    2 imaginary frequencies ignored.
 Zero-point vibrational energy       1879.4 (Joules/Mol)
                                    0.44920 (Kcal/Mol)
 Warning -- explicit consideration of   2 degrees of freedom as
           vibrations may cause significant error
 Vibrational temperatures:    226.05   226.05
          (Kelvin)

 Zero-point correction=                           0.000716 (Hartree/Particle)
 Thermal correction to Energy=                    0.004338
 Thermal correction to Enthalpy=                  0.005283
 Thermal correction to Gibbs Free Energy=        -0.021572
 Sum of electronic and zero-point Energies=           -100.759635
 Sum of electronic and thermal Energies=              -100.756013
 Sum of electronic and thermal Enthalpies=            -100.755068
 Sum of electronic and thermal Free Energies=         -100.781923

                     E (Thermal)             CV                S
                      KCal/Mol        Cal/Mol-Kelvin    Cal/Mol-Kelvin
 Total                    2.722              8.757             56.521
 Electronic               0.000              0.000              1.377
 Translational            0.889              2.981             35.068
 Rotational               0.592              1.987             14.907
 Vibrational              1.241              3.789              5.169
 Vibration     1          0.621              1.895              2.584
 Vibration     2          0.621              1.895              2.584

 Normal termination of Gaussian 16 at Sat Aug 23 01:09:43 2025.
