 Gaussian 16, Revision C.01,
 Gaussian 16:  ES64L-G16RevC.01  3-Jul-2019

 -----------------------------------------
 # sp b3lyp/6-311g** Force nosymm scf=(qc)
 -----------------------------------------

 -------------------
 Title Card Required
 -------------------
 Symbolic Z-matrix:
 Charge =  0 Multiplicity = 2

                          Input orientation:
 ---------------------------------------------------------------------
 Center     Atomic      Atomic             Coordinates (Angstroms)
 Number     Number       Type             X           Y           Z
 ---------------------------------------------------------------------
      1          1           0        0.000000    0.000000    0.000000
      2          1           0       -2.950000    0.000000    0.000000
      3          9           0        3.650000    0.000000    0.000000
 ---------------------------------------------------------------------

 SCF Done:  E(UB3LYP) =  -100.759923741     a.u. after   29 cycles

 Alpha  occ. eigenvalues --  -24.75619  -1.21565  -0.54742  -0.45963  -0.45963
 Alpha  occ. eigenvalues --   -0.32415
 Alpha virt. eigenvalues --   -0.08018   0.25085   0.36008   0.87183   0.91335
 Alpha virt. eigenvalues --    0.91335   1.01479   1.25127   1.25127   1.25935
 Alpha virt. eigenvalues --    1.43905   1.43905   1.43945   2.15823   2.39343

  Beta  occ. eigenvalues --  -24.72490  -1.12572  -0.42827  -0.42827  -0.32729
  Beta virt. eigenvalues --   -0.25606  -0.07619   0.24876   0.36620   0.92828
  Beta virt. eigenvalues --    0.92828   0.96426   1.05547   1.24769   1.24769
  Beta virt. eigenvalues --    1.25543   1.44531   1.44531   1.44567   2.16030

 Mulliken charges and spin densities:
               1          2
     1  H    0.006728  -0.983241
     2  H    0.000557   0.991340
     3  F   -0.007285   0.991901
 Sum of Mulliken charges =  -0.00000   1.00000

 Dipole moment (field-independent basis, Debye):
    X=             -0.1447    Y=             -0.0000    Z=             -0.0000  Tot=              0.1447
 Quadrupole moment (field-independent basis, Debye-Ang):
   XX=             -7.1083   YY=             -7.6376   ZZ=             -7.6376
   XY=             -0.0000   XZ=             -0.0000   YZ=             -0.0000

  Exact polarizability:      22.400       0.000       2.015       0.000       0.000       2.015
 Approx polarizability:      16.718      -0.000       1.932      -0.000       0.000       1.932

 ******    2 imaginary frequencies (negative Signs) ******

                      1                      2                      3
                      A                      A                      A
 Frequencies --   -369.7140              -112.9048               133.4105
 Red. masses --      1.0090                 1.1071                 1.0156
 Frc consts  --      0.0813                 0.0083                 0.0106
 IR Inten    --      3.7920                 2.7614                 0.0471

                      4
                      A
 Frequencies --    133.4105
 Red. masses --      1.0156
 Frc consts  --      0.0106
 IR Inten    --      0.0471

 - Thermochemistry -
 -------------------
 Temperature   298.150 Kelvin.  Pressure   1.00000 Atm.
 Atom     1 has atomic number  1 and mass   1.00783

 Molecular mass:    21.01405 amu.
 Principal axes and moments of inertia in atomic units:
                           1         2         3
     Eigenvalues --     0.00000 186.58609 186.58609
           X            1.00000  -0.00000   0.00000
           Y            0.00000   1.00000   0.00000
           Z            0.00000   0.00000   1.00000
 This molecule is a prolate symmetric top.
 Rotational symmetry number  1.
 Rotational temperature (Kelvin)      0.46420
 Rotational constant (GHZ):           9.672432
    2 imaginary frequencies ignored.
 Zero-point vibrational energy       1595.9 (Joules/Mol)
                                    0.38144 (Kcal/Mol)
 Warning -- explicit consideration of   2 degrees of freedom as
           vibrations may cause significant error
 Vibrational temperatures:    191.95   191.95
          (Kelvin)

 Zero-point correction=                           0.000608 (Hartree/Particle)
 Thermal correction to Energy=                    0.004314
 Thermal correction to Enthalpy=                  0.005258
 Thermal correction to Gibbs Free Energy=        -0.021859
 Sum of electronic and zero-point Energies=           -100.759316
 Sum of electronic and thermal Energies=              -100.755610
 Sum of electronic and thermal Enthalpies=            -100.754666
 Sum of electronic and thermal Free Energies=         -100.781783

                     E (Thermal)             CV                S
                      KCal/Mol        Cal/Mol-Kelvin    Cal/Mol-Kelvin
 Total                    2.707              8.808             57.073
 Electronic               0.000              0.000              1.377
 Translational            0.889              2.981             35.068
 Rotational               0.592              1.987             14.835
 Vibrational              1.226              3.840              5.793
 Vibration     1          0.613              1.920              2.896
 Vibration     2          0.613              1.920              2.896

 Normal termination of Gaussian 16 at Fri Aug 22 23:37:14 2025.
