 Gaussian 16, Revision C.01,
 Gaussian 16:  ES64L-G16RevC.01  3-Jul-2019

 -----------------------------------------
 # sp b3lyp/6-311g** Force nosymm scf=(qc)
 -----------------------------------------

 -------------------
 Title Card Required
 -------------------
 Symbolic Z-matrix:
 Charge =  0 Multiplicity = 2

                          Input orientation:
 ---------------------------------------------------------------------
 Center     Atomic      Atomic             Coordinates (Angstroms)
 Number     Number       Type             X           Y           Z
 ---------------------------------------------------------------------
      1          1           0        0.000000    0.000000    0.000000
      2          1           0       -3.800000    0.000000    0.000000
      3          9           0        3.150000    0.000000    0.000000
 ---------------------------------------------------------------------

 SCF Done:  E(UB3LYP) =  -100.760031483     a.u. after   23 cycles

 Alpha  occ. eigenvalues --  -24.74569  -1.20593  -0.53689  -0.45080  -0.45080
 Alpha  occ. eigenvalues --   -0.32416
 Alpha virt. eigenvalues --   -0.07366   0.23977   0.36482   0.88825   0.91984
 Alpha virt. eigenvalues --    0.91984   1.03094   1.25083   1.25083   1.25129
 Alpha virt. eigenvalues --    1.44958   1.44958   1.45272   2.14550   2.41198

  Beta  occ. eigenvalues --  -24.71508  -1.11813  -0.42015  -0.42015  -0.33384
  Beta virt. eigenvalues --   -0.25045  -0.06096   0.23783   0.38118   0.93456
  Beta virt. eigenvalues --    0.93456   0.97685   1.06924   1.23970   1.23970
  Beta virt. eigenvalues --    1.24107   1.46392   1.46566   1.46566   2.14777

 Mulliken charges and spin densities:
               1          2
     1  H    0.027149  -0.969110
     2  H    0.000161   0.999005
     3  F   -0.027310   0.970104
 Sum of Mulliken charges =  -0.00000   1.00000

 Dipole moment (field-independent basis, Debye):
    X=             -0.4449    Y=             -0.0000    Z=             -0.0000  Tot=              0.4449
 Quadrupole moment (field-independent basis, Debye-Ang):
   XX=             -8.0348   YY=             -7.6115   ZZ=             -7.6115
   XY=             -0.0000   XZ=             -0.0000   YZ=             -0.0000

  Exact polarizability:      29.807      -0.000       2.029      -0.000      -0.000       2.029
 Approx polarizability:      28.234      -0.000       1.929      -0.000       0.000       1.929

 ******    2 imaginary frequencies (negative Signs) ******

                      1                      2                      3
                      A                      A                      A
 Frequencies --   -312.4072               -84.9581               105.3356
 Red. masses --      1.0498                 1.0618                 1.0204
 Frc consts  --      0.0604                 0.0045                 0.0067
 IR Inten    --     29.4836                 0.2316                 0.6958

                      4
                      A
 Frequencies --    105.3356
 Red. masses --      1.0204
 Frc consts  --      0.0067
 IR Inten    --      0.6958

 - Thermochemistry -
 -------------------
 Temperature   298.150 Kelvin.  Pressure   1.00000 Atm.
 Atom     1 has atomic number  1 and mass   1.00783

 Molecular mass:    21.01405 amu.
 Principal axes and moments of inertia in atomic units:
                           1         2         3
     Eigenvalues --     0.00000 191.94464 191.94464
           X            1.00000  -0.00000   0.00000
           Y            0.00000   1.00000   0.00000
           Z            0.00000   0.00000   1.00000
 This molecule is a prolate symmetric top.
 Rotational symmetry number  1.
 Rotational temperature (Kelvin)      0.45124
 Rotational constant (GHZ):           9.402405
    2 imaginary frequencies ignored.
 Zero-point vibrational energy       1260.1 (Joules/Mol)
                                    0.30117 (Kcal/Mol)
 Warning -- explicit consideration of   2 degrees of freedom as
           vibrations may cause significant error
 Vibrational temperatures:    151.55   151.55
          (Kelvin)

 Zero-point correction=                           0.000480 (Hartree/Particle)
 Thermal correction to Energy=                    0.004289
 Thermal correction to Enthalpy=                  0.005234
 Thermal correction to Gibbs Free Energy=        -0.022344
 Sum of electronic and zero-point Energies=           -100.759552
 Sum of electronic and thermal Energies=              -100.755742
 Sum of electronic and thermal Enthalpies=            -100.754798
 Sum of electronic and thermal Free Energies=         -100.782376

                     E (Thermal)             CV                S
                      KCal/Mol        Cal/Mol-Kelvin    Cal/Mol-Kelvin
 Total                    2.692              8.858             58.042
 Electronic               0.000              0.000              1.377
 Translational            0.889              2.981             35.068
 Rotational               0.592              1.987             14.891
 Vibrational              1.210              3.890              6.706
 Vibration     1          0.605              1.945              3.353
 Vibration     2          0.605              1.945              3.353

 Normal termination of Gaussian 16 at Fri Aug 22 20:12:06 2025.
