 Gaussian 16, Revision C.01,
 Gaussian 16:  ES64L-G16RevC.01  3-Jul-2019

 -----------------------------------------
 # sp b3lyp/6-311g** Force nosymm scf=(qc)
 -----------------------------------------

 -------------------
 Title Card Required
 -------------------
 Symbolic Z-matrix:
 Charge =  0 Multiplicity = 2

                          Input orientation:
 ---------------------------------------------------------------------
 Center     Atomic      Atomic             Coordinates (Angstroms)
 Number     Number       Type             X           Y           Z
 ---------------------------------------------------------------------
      1          1           0        0.000000    0.000000    0.000000
      2          1           0       -2.200000    0.000000    0.000000
      3          9           0        2.050000    0.000000    0.000000
 ---------------------------------------------------------------------

 SCF Done:  E(UB3LYP) =  -100.791880350     a.u. after   19 cycles

 Alpha  occ. eigenvalues --  -24.68486  -1.14810  -0.47524  -0.39955  -0.39955
 Alpha  occ. eigenvalues --   -0.35593
 Alpha virt. eigenvalues --   -0.13698   0.24215   0.31130   0.88988   0.94935
 Alpha virt. eigenvalues --    0.94935   1.05877   1.22218   1.22218   1.27481
 Alpha virt. eigenvalues --    1.34507   1.34507   1.56970   2.11694   2.29631

  Beta  occ. eigenvalues --  -24.66035  -1.07940  -0.37535  -0.37535  -0.37246
  Beta virt. eigenvalues --   -0.21319  -0.11076   0.25818   0.33049   0.91858
  Beta virt. eigenvalues --    0.95754   0.95754   1.08774   1.22537   1.22537
  Beta virt. eigenvalues --    1.38382   1.38382   1.41653   1.51114   2.12154

 Mulliken charges and spin densities:
               1          2
     1  H    0.145844  -0.703488
     2  H    0.031402   0.932807
     3  F   -0.177246   0.770681
 Sum of Mulliken charges =   0.00000   1.00000

 Dipole moment (field-independent basis, Debye):
    X=             -2.1377    Y=              0.0000    Z=             -0.0000  Tot=              2.1377
 Quadrupole moment (field-independent basis, Debye-Ang):
   XX=             -8.9937   YY=             -7.5527   ZZ=             -7.5527
   XY=              0.0000   XZ=             -0.0000   YZ=              0.0000

  Exact polarizability:      45.824       0.000       2.050      -0.000      -0.000       2.050
 Approx polarizability:      53.097       0.000       1.950      -0.000      -0.000       1.950

 ******    2 imaginary frequencies (negative Signs) ******

                      1                      2                      3
                      A                      A                      A
 Frequencies --  -1313.9463              -509.2750               546.3466
 Red. masses --      1.0262                 1.0871                 1.0188
 Frc consts  --      1.0438                 0.1661                 0.1792
 IR Inten    --     82.9325                33.0524                15.3608

                      4
                      A
 Frequencies --    546.3466
 Red. masses --      1.0188
 Frc consts  --      0.1792
 IR Inten    --     15.3608

 - Thermochemistry -
 -------------------
 Temperature   298.150 Kelvin.  Pressure   1.00000 Atm.
 Atom     1 has atomic number  1 and mass   1.00783

 Molecular mass:    21.01405 amu.
 Principal axes and moments of inertia in atomic units:
                           1         2         3
     Eigenvalues --     0.00000  73.28116  73.28116
           X            1.00000  -0.00000   0.00000
           Y            0.00000   1.00000   0.00000
           Z            0.00000   0.00000   1.00000
 This molecule is a prolate symmetric top.
 Rotational symmetry number  1.
 Rotational temperature (Kelvin)      1.18194
 Rotational constant (GHZ):          24.627630
    2 imaginary frequencies ignored.
 Zero-point vibrational energy       6535.8 (Joules/Mol)
                                    1.56208 (Kcal/Mol)
 Warning -- explicit consideration of   2 degrees of freedom as
           vibrations may cause significant error
 Vibrational temperatures:    786.07   786.07
          (Kelvin)

 Zero-point correction=                           0.002489 (Hartree/Particle)
 Thermal correction to Energy=                    0.005234
 Thermal correction to Enthalpy=                  0.006178
 Thermal correction to Gibbs Free Energy=        -0.017829
 Sum of electronic and zero-point Energies=           -100.789391
 Sum of electronic and thermal Energies=              -100.786647
 Sum of electronic and thermal Enthalpies=            -100.785702
 Sum of electronic and thermal Free Energies=         -100.809709

                     E (Thermal)             CV                S
                      KCal/Mol        Cal/Mol-Kelvin    Cal/Mol-Kelvin
 Total                    3.284              7.263             50.526
 Electronic               0.000              0.000              1.377
 Translational            0.889              2.981             35.068
 Rotational               0.592              1.987             12.977
 Vibrational              1.803              2.295              1.104
 Vibration     1          0.902              1.148              0.552
 Vibration     2          0.902              1.148              0.552

 Normal termination of Gaussian 16 at Fri Aug 22 17:00:18 2025.
