 Gaussian 16, Revision C.01,
 Gaussian 16:  ES64L-G16RevC.01  3-Jul-2019

 -----------------------------------------
 # sp b3lyp/6-311g** Force nosymm scf=(qc)
 -----------------------------------------

 -------------------
 Title Card Required
 -------------------
 Symbolic Z-matrix:
 Charge =  0 Multiplicity = 2

                          Input orientation:
 ---------------------------------------------------------------------
 Center     Atomic      Atomic             Coordinates (Angstroms)
 Number     Number       Type             X           Y           Z
 ---------------------------------------------------------------------
      1          1           0        0.000000    0.000000    0.000000
      2          1           0       -2.150000    0.000000    0.000000
      3          9           0        3.100000    0.000000    0.000000
 ---------------------------------------------------------------------

 SCF Done:  E(UB3LYP) =  -100.770500344     a.u. after   26 cycles

 Alpha  occ. eigenvalues --  -24.74597  -1.20615  -0.53716  -0.45102  -0.45102
 Alpha  occ. eigenvalues --   -0.33357
 Alpha virt. eigenvalues --   -0.11251   0.25618   0.32572   0.89196   0.91964
 Alpha virt. eigenvalues --    0.91964   1.03376   1.21993   1.24522   1.24522
 Alpha virt. eigenvalues --    1.37987   1.37987   1.45648   2.13243   2.35667

  Beta  occ. eigenvalues --  -24.71539  -1.11842  -0.42039  -0.42039  -0.33639
  Beta virt. eigenvalues --   -0.25102  -0.10556   0.25820   0.33342   0.93435
  Beta virt. eigenvalues --    0.93435   0.98069   1.07330   1.21680   1.24146
  Beta virt. eigenvalues --    1.24146   1.39080   1.39080   1.46565   2.14385

 Mulliken charges and spin densities:
               1          2
     1  H    0.017144  -0.883119
     2  H    0.010001   0.913776
     3  F   -0.027144   0.969343
 Sum of Mulliken charges =  -0.00000   1.00000

 Dipole moment (field-independent basis, Debye):
    X=             -0.5341    Y=             -0.0000    Z=             -0.0000  Tot=              0.5341
 Quadrupole moment (field-independent basis, Debye-Ang):
   XX=             -7.3882   YY=             -7.6946   ZZ=             -7.6946
   XY=             -0.0000   XZ=             -0.0000   YZ=             -0.0000

  Exact polarizability:      52.879      -0.000       2.008      -0.000      -0.000       2.008
 Approx polarizability:      45.236      -0.000       1.926      -0.000       0.000       1.926

 ******    2 imaginary frequencies (negative Signs) ******

                      1                      2                      3
                      A                      A                      A
 Frequencies --  -1112.0504              -217.6095               433.0245
 Red. masses --      1.0080                 1.1083                 1.0141
 Frc consts  --      0.7345                 0.0309                 0.1120
 IR Inten    --     23.0438                22.0253                 0.1499

                      4
                      A
 Frequencies --    433.0245
 Red. masses --      1.0141
 Frc consts  --      0.1120
 IR Inten    --      0.1499

 - Thermochemistry -
 -------------------
 Temperature   298.150 Kelvin.  Pressure   1.00000 Atm.
 Atom     1 has atomic number  1 and mass   1.00783

 Molecular mass:    21.01405 amu.
 Principal axes and moments of inertia in atomic units:
                           1         2         3
     Eigenvalues --     0.00000 121.74956 121.74956
           X            1.00000  -0.00000   0.00000
           Y            0.00000   1.00000   0.00000
           Z            0.00000   0.00000   1.00000
 This molecule is a prolate symmetric top.
 Rotational symmetry number  1.
 Rotational temperature (Kelvin)      0.71141
 Rotational constant (GHZ):          14.823390
    2 imaginary frequencies ignored.
 Zero-point vibrational energy       5180.1 (Joules/Mol)
                                    1.23808 (Kcal/Mol)
 Warning -- explicit consideration of   2 degrees of freedom as
           vibrations may cause significant error
 Vibrational temperatures:    623.03   623.03
          (Kelvin)

 Zero-point correction=                           0.001973 (Hartree/Particle)
 Thermal correction to Energy=                    0.004891
 Thermal correction to Enthalpy=                  0.005835
 Thermal correction to Gibbs Free Energy=        -0.018933
 Sum of electronic and zero-point Energies=           -100.768527
 Sum of electronic and thermal Energies=              -100.765610
 Sum of electronic and thermal Enthalpies=            -100.764666
 Sum of electronic and thermal Free Energies=         -100.789434

                     E (Thermal)             CV                S
                      KCal/Mol        Cal/Mol-Kelvin    Cal/Mol-Kelvin
 Total                    3.069              7.765             52.129
 Electronic               0.000              0.000              1.377
 Translational            0.889              2.981             35.068
 Rotational               0.592              1.987             13.986
 Vibrational              1.588              2.797              1.698
 Vibration     1          0.794              1.398              0.849
 Vibration     2          0.794              1.398              0.849

 Normal termination of Gaussian 16 at Fri Aug 22 19:54:43 2025.
