 Gaussian 16, Revision C.01,
 Gaussian 16:  ES64L-G16RevC.01  3-Jul-2019

 -----------------------------------------
 # sp b3lyp/6-311g** Force nosymm scf=(qc)
 -----------------------------------------

 -------------------
 Title Card Required
 -------------------
 Symbolic Z-matrix:
 Charge =  0 Multiplicity = 2

                          Input orientation:
 ---------------------------------------------------------------------
 Center     Atomic      Atomic             Coordinates (Angstroms)
 Number     Number       Type             X           Y           Z
 ---------------------------------------------------------------------
      1          1           0        0.000000    0.000000    0.000000
      2          1           0       -2.750000    0.000000    0.000000
      3          9           0        2.250000    0.000000    0.000000
 ---------------------------------------------------------------------

 SCF Done:  E(UB3LYP) =  -100.776393219     a.u. after   14 cycles

 Alpha  occ. eigenvalues --  -24.70105  -1.16396  -0.49171  -0.41336  -0.41336
 Alpha  occ. eigenvalues --   -0.33848
 Alpha virt. eigenvalues --   -0.12469   0.24061   0.32904   0.88996   0.94391
 Alpha virt. eigenvalues --    0.94391   1.06480   1.23733   1.23733   1.25473
 Alpha virt. eigenvalues --    1.37459   1.37459   1.49580   2.14733   2.31936

  Beta  occ. eigenvalues --  -24.67436  -1.08848  -0.38686  -0.38686  -0.36452
  Beta virt. eigenvalues --   -0.22248  -0.08821   0.24899   0.35752   0.93124
  Beta virt. eigenvalues --    0.95551   0.95551   1.08721   1.21690   1.21690
  Beta virt. eigenvalues --    1.39004   1.43129   1.43129   1.44413   2.13274

 Mulliken charges and spin densities:
               1          2
     1  H    0.125045  -0.826421
     2  H    0.007904   0.984952
     3  F   -0.132949   0.841469
 Sum of Mulliken charges =   0.00000   1.00000

 Dipole moment (field-independent basis, Debye):
    X=             -1.6077    Y=              0.0000    Z=              0.0000  Tot=              1.6077
 Quadrupole moment (field-independent basis, Debye-Ang):
   XX=             -9.3972   YY=             -7.5590   ZZ=             -7.5590
   XY=              0.0000   XZ=              0.0000   YZ=              0.0000

  Exact polarizability:      35.672       0.000       2.031       0.000      -0.000       2.031
 Approx polarizability:      43.378       0.000       1.925       0.000       0.000       1.925

 ******    2 imaginary frequencies (negative Signs) ******

                      1                      2                      3
                      A                      A                      A
 Frequencies --   -873.4581              -292.8739               359.7103
 Red. masses --      1.0434                 1.0685                 1.0206
 Frc consts  --      0.4690                 0.0540                 0.0778
 IR Inten    --     88.8652                 7.6785                13.7265

                      4
                      A
 Frequencies --    359.7103
 Red. masses --      1.0206
 Frc consts  --      0.0778
 IR Inten    --     13.7265

 - Thermochemistry -
 -------------------
 Temperature   298.150 Kelvin.  Pressure   1.00000 Atm.
 Atom     1 has atomic number  1 and mass   1.00783

 Molecular mass:    21.01405 amu.
 Principal axes and moments of inertia in atomic units:
                           1         2         3
     Eigenvalues --     0.00000  99.12254  99.12254
           X            1.00000  -0.00000   0.00000
           Y            0.00000   1.00000   0.00000
           Z            0.00000   0.00000   1.00000
 This molecule is a prolate symmetric top.
 Rotational symmetry number  1.
 Rotational temperature (Kelvin)      0.87381
 Rotational constant (GHZ):          18.207172
    2 imaginary frequencies ignored.
 Zero-point vibrational energy       4303.1 (Joules/Mol)
                                    1.02846 (Kcal/Mol)
 Warning -- explicit consideration of   2 degrees of freedom as
           vibrations may cause significant error
 Vibrational temperatures:    517.54   517.54
          (Kelvin)

 Zero-point correction=                           0.001639 (Hartree/Particle)
 Thermal correction to Energy=                    0.004701
 Thermal correction to Enthalpy=                  0.005645
 Thermal correction to Gibbs Free Energy=        -0.019190
 Sum of electronic and zero-point Energies=           -100.774754
 Sum of electronic and thermal Energies=              -100.771692
 Sum of electronic and thermal Enthalpies=            -100.770748
 Sum of electronic and thermal Free Energies=         -100.795583

                     E (Thermal)             CV                S
                      KCal/Mol        Cal/Mol-Kelvin    Cal/Mol-Kelvin
 Total                    2.950              8.079             52.270
 Electronic               0.000              0.000              1.377
 Translational            0.889              2.981             35.068
 Rotational               0.592              1.987             13.578
 Vibrational              1.469              3.111              2.247
 Vibration     1          0.734              1.555              1.123
 Vibration     2          0.734              1.555              1.123

 Normal termination of Gaussian 16 at Fri Aug 22 17:17:06 2025.
