 Gaussian 16, Revision C.01,
 Gaussian 16:  ES64L-G16RevC.01  3-Jul-2019

 -----------------------------------------
 # sp b3lyp/6-311g** Force nosymm scf=(qc)
 -----------------------------------------

 -------------------
 Title Card Required
 -------------------
 Symbolic Z-matrix:
 Charge =  0 Multiplicity = 2

                          Input orientation:
 ---------------------------------------------------------------------
 Center     Atomic      Atomic             Coordinates (Angstroms)
 Number     Number       Type             X           Y           Z
 ---------------------------------------------------------------------
      1          1           0        0.000000    0.000000    0.000000
      2          1           0       -3.950000    0.000000    0.000000
      3          9           0        0.550000    0.000000    0.000000
 ---------------------------------------------------------------------

 SCF Done:  E(UB3LYP) =  -100.519195943     a.u. after    6 cycles

 Alpha  occ. eigenvalues --  -24.62696  -1.38440  -0.62260  -0.43640  -0.43640
 Alpha  occ. eigenvalues --   -0.33057
 Alpha virt. eigenvalues --    0.07762   0.24518   0.60299   0.91189   0.91207
 Alpha virt. eigenvalues --    0.91207   1.24372   1.24446   1.24446   1.34463
 Alpha virt. eigenvalues --    1.54126   1.54126   1.96699   2.14327   3.65577

  Beta  occ. eigenvalues --  -24.62696  -1.38440  -0.62260  -0.43640  -0.43640
  Beta virt. eigenvalues --   -0.04944   0.07882   0.38643   0.60278   0.91187
  Beta virt. eigenvalues --    0.91207   0.91207   1.34273   1.48451   1.48939
  Beta virt. eigenvalues --    1.48939   1.54126   1.54126   1.96679   2.46182

 Mulliken charges and spin densities:
               1          2
     1  H    0.200719   0.000241
     2  H    0.000301   0.999670
     3  F   -0.201020   0.000089
 Sum of Mulliken charges =   0.00000   1.00000

 Dipole moment (field-independent basis, Debye):
    X=             -1.3612    Y=             -0.0000    Z=              0.0000  Tot=              1.3612
 Quadrupole moment (field-independent basis, Debye-Ang):
   XX=             -6.8436   YY=             -6.4955   ZZ=             -6.4955
   XY=             -0.0000   XZ=              0.0000   YZ=              0.0000

  Exact polarizability:       2.968      -0.000       2.424      -0.000      -0.000       2.424
 Approx polarizability:       3.186      -0.000       2.401       0.000      -0.000       2.401

 ******    3 imaginary frequencies (negative Signs) ******

                      1                      2                      3
                      A                      A                      A
 Frequencies --  -7522.4049             -7522.4049               -25.6737
 Red. masses --      1.0462                 1.0462                 1.0532
 Frc consts  --     34.8794                34.8794                 0.0004
 IR Inten    --    261.4357               261.4357                 0.0068

                      4
                      A
 Frequencies --  15777.8453
 Red. masses --      1.0583
 Frc consts  --    155.2239
 IR Inten    --     87.2945

 - Thermochemistry -
 -------------------
 Temperature   298.150 Kelvin.  Pressure   1.00000 Atm.
 Atom     1 has atomic number  1 and mass   1.00783

 Molecular mass:    21.01405 amu.
 Principal axes and moments of inertia in atomic units:
                           1         2         3
     Eigenvalues --     0.00000  69.56672  69.56672
           X            1.00000  -0.00000   0.00000
           Y            0.00000   1.00000   0.00000
           Z            0.00000   0.00000   1.00000
 This molecule is a prolate symmetric top.
 Rotational symmetry number  1.
 Rotational temperature (Kelvin)      1.24505
 Rotational constant (GHZ):          25.942596
    3 imaginary frequencies ignored.
 Zero-point vibrational energy      94372.5 (Joules/Mol)
                                   22.55556 (Kcal/Mol)
 Vibrational temperatures:  22700.80
          (Kelvin)

 Zero-point correction=                           0.035945 (Hartree/Particle)
 Thermal correction to Energy=                    0.038305
 Thermal correction to Enthalpy=                  0.039249
 Thermal correction to Gibbs Free Energy=         0.015816
 Sum of electronic and zero-point Energies=           -100.483251
 Sum of electronic and thermal Energies=              -100.480891
 Sum of electronic and thermal Enthalpies=            -100.479947
 Sum of electronic and thermal Free Energies=         -100.503380

                     E (Thermal)             CV                S
                      KCal/Mol        Cal/Mol-Kelvin    Cal/Mol-Kelvin
 Total                   24.037              4.968             49.319
 Electronic               0.000              0.000              1.377
 Translational            0.889              2.981             35.068
 Rotational               0.592              1.987             12.874
 Vibrational             22.556              0.000              0.000

 Normal termination of Gaussian 16 at Fri Aug 22 15:40:34 2025.
