 Gaussian 16, Revision C.01,
 Gaussian 16:  ES64L-G16RevC.01  3-Jul-2019

 -----------------------------------------
 # sp b3lyp/6-311g** Force nosymm scf=(qc)
 -----------------------------------------

 -------------------
 Title Card Required
 -------------------
 Symbolic Z-matrix:
 Charge =  0 Multiplicity = 2

                          Input orientation:
 ---------------------------------------------------------------------
 Center     Atomic      Atomic             Coordinates (Angstroms)
 Number     Number       Type             X           Y           Z
 ---------------------------------------------------------------------
      1          1           0        0.000000    0.000000    0.000000
      2          1           0       -2.650000    0.000000    0.000000
      3          9           0        1.000000    0.000000    0.000000
 ---------------------------------------------------------------------

 SCF Done:  E(UB3LYP) =  -100.966449172     a.u. after    6 cycles

 Alpha  occ. eigenvalues --  -24.64095  -1.15984  -0.51616  -0.38725  -0.38725
 Alpha  occ. eigenvalues --   -0.34729
 Alpha virt. eigenvalues --    0.01384   0.25120   0.34199   0.94113   0.94113
 Alpha virt. eigenvalues --    0.98584   1.20989   1.22816   1.22816   1.35393
 Alpha virt. eigenvalues --    1.36010   1.36010   1.90894   2.14053   2.34382

  Beta  occ. eigenvalues --  -24.64079  -1.15945  -0.51554  -0.38711  -0.38711
  Beta virt. eigenvalues --   -0.09188   0.03014   0.34132   0.37679   0.94115
  Beta virt. eigenvalues --    0.94115   0.98618   1.29868   1.35988   1.35988
  Beta virt. eigenvalues --    1.45264   1.45264   1.49483   1.91068   2.34101

 Mulliken charges and spin densities:
               1          2
     1  H    0.316301   0.002323
     2  H    0.005360   0.992749
     3  F   -0.321661   0.004928
 Sum of Mulliken charges =   0.00000   1.00000

 Dipole moment (field-independent basis, Debye):
    X=             -2.0976    Y=              0.0000    Z=              0.0000  Tot=              2.0976
 Quadrupole moment (field-independent basis, Debye-Ang):
   XX=             -8.0274   YY=             -6.9580   ZZ=             -6.9580
   XY=              0.0000   XZ=              0.0000   YZ=              0.0000

  Exact polarizability:       8.401       0.000       2.420      -0.000      -0.000       2.420
 Approx polarizability:       9.691      -0.000       2.395      -0.000      -0.000       2.395

 ******    1 imaginary frequencies (negative Signs) ******

                      1                      2                      3
                      A                      A                      A
 Frequencies --    -88.4237               968.7289               968.7289
 Red. masses --      1.0530                 1.0326                 1.0326
 Frc consts  --      0.0049                 0.5709                 0.5709
 IR Inten    --      0.7051               157.8741               157.8741

                      4
                      A
 Frequencies --   3017.8257
 Red. masses --      1.0586
 Frc consts  --      5.6803
 IR Inten    --    115.4662

 - Thermochemistry -
 -------------------
 Temperature   298.150 Kelvin.  Pressure   1.00000 Atm.
 Atom     1 has atomic number  1 and mass   1.00783

 Molecular mass:    21.01405 amu.
 Principal axes and moments of inertia in atomic units:
                           1         2         3
     Eigenvalues --     0.00000  47.81461  47.81461
           X            1.00000  -0.00000   0.00000
           Y            0.00000   1.00000   0.00000
           Z            0.00000   0.00000   1.00000
 This molecule is a prolate symmetric top.
 Rotational symmetry number  1.
 Rotational temperature (Kelvin)      1.81145
 Rotational constant (GHZ):          37.744558
    1 imaginary frequencies ignored.
 Zero-point vibrational energy      29639.2 (Joules/Mol)
                                    7.08393 (Kcal/Mol)
 Vibrational temperatures:   1393.78  1393.78  4341.98
          (Kelvin)

 Zero-point correction=                           0.011289 (Hartree/Particle)
 Thermal correction to Energy=                    0.013733
 Thermal correction to Enthalpy=                  0.014677
 Thermal correction to Gibbs Free Energy=        -0.008503
 Sum of electronic and zero-point Energies=           -100.955160
 Sum of electronic and thermal Energies=              -100.952717
 Sum of electronic and thermal Enthalpies=            -100.951772
 Sum of electronic and thermal Free Energies=         -100.974952

                     E (Thermal)             CV                S
                      KCal/Mol        Cal/Mol-Kelvin    Cal/Mol-Kelvin
 Total                    8.617              5.794             48.786
 Electronic               0.000              0.000              1.377
 Translational            0.889              2.981             35.068
 Rotational               0.592              1.987             12.129
 Vibrational              7.136              0.826              0.212

 Normal termination of Gaussian 16 at Fri Aug 22 16:00:59 2025.
