 Gaussian 16, Revision C.01,
 Gaussian 16:  ES64L-G16RevC.01  3-Jul-2019

 -----------------------------------------
 # sp b3lyp/6-311g** Force nosymm scf=(qc)
 -----------------------------------------

 -------------------
 Title Card Required
 -------------------
 Symbolic Z-matrix:
 Charge =  0 Multiplicity = 2

                          Input orientation:
 ---------------------------------------------------------------------
 Center     Atomic      Atomic             Coordinates (Angstroms)
 Number     Number       Type             X           Y           Z
 ---------------------------------------------------------------------
      1          1           0        0.000000    0.000000    0.000000
      2          1           0       -1.000000    0.000000    0.000000
      3          9           0        3.200000    0.000000    0.000000
 ---------------------------------------------------------------------

 SCF Done:  E(UB3LYP) =  -100.906663105     a.u. after    8 cycles

 Alpha  occ. eigenvalues --  -24.76182  -1.22082  -0.55307  -0.46447  -0.46447
 Alpha  occ. eigenvalues --   -0.39201
 Alpha virt. eigenvalues --    0.00079   0.21186   0.38295   0.88923   0.90944
 Alpha virt. eigenvalues --    0.90944   1.03049   1.08898   1.08898   1.37358
 Alpha virt. eigenvalues --    1.65543   1.65543   2.22620   2.36247   2.58702

  Beta  occ. eigenvalues --  -24.73038  -1.13036  -0.43294  -0.43294  -0.39184
  Beta virt. eigenvalues --   -0.26116   0.00180   0.21271   0.38594   0.92438
  Beta virt. eigenvalues --    0.92438   0.97881   1.07240   1.08924   1.08924
  Beta virt. eigenvalues --    1.37402   1.65563   1.65563   2.22696   2.36289

 Mulliken charges and spin densities:
               1          2
     1  H   -0.007781  -0.002654
     2  H    0.007400   0.005817
     3  F    0.000381   0.996836
 Sum of Mulliken charges =   0.00000   1.00000

 Dipole moment (field-independent basis, Debye):
    X=             -0.0358    Y=              0.0000    Z=              0.0000  Tot=              0.0358
 Quadrupole moment (field-independent basis, Debye-Ang):
   XX=             -5.5085   YY=             -7.2713   ZZ=             -7.2713
   XY=              0.0000   XZ=              0.0000   YZ=              0.0000

  Exact polarizability:      14.373       0.000       2.058      -0.000      -0.000       2.058
 Approx polarizability:      17.969       0.000       2.110      -0.000      -0.000       2.110

 ******    1 imaginary frequencies (negative Signs) ******

                      1                      2                      3
                      A                      A                      A
 Frequencies --    -56.7925              1536.0236              1536.0236
 Red. masses --      1.1085                 1.0096                 1.0096
 Frc consts  --      0.0021                 1.4035                 1.4035
 IR Inten    --      0.2327                 0.0610                 0.0610

                      4
                      A
 Frequencies --   1787.1755
 Red. masses --      1.0078
 Frc consts  --      1.8966
 IR Inten    --      3.1728

 - Thermochemistry -
 -------------------
 Temperature   298.150 Kelvin.  Pressure   1.00000 Atm.
 Atom     1 has atomic number  1 and mass   1.00783

 Molecular mass:    21.01405 amu.
 Principal axes and moments of inertia in atomic units:
                           1         2         3
     Eigenvalues --     0.00000  90.88840  90.88840
           X            1.00000  -0.00000   0.00000
           Y            0.00000   1.00000   0.00000
           Z            0.00000   0.00000   1.00000
 This molecule is a prolate symmetric top.
 Rotational symmetry number  1.
 Rotational temperature (Kelvin)      0.95297
 Rotational constant (GHZ):          19.856672
    1 imaginary frequencies ignored.
 Zero-point vibrational energy      29064.6 (Joules/Mol)
                                    6.94661 (Kcal/Mol)
 Vibrational temperatures:   2210.00  2210.00  2571.35
          (Kelvin)

 Zero-point correction=                           0.011070 (Hartree/Particle)
 Thermal correction to Energy=                    0.013441
 Thermal correction to Enthalpy=                  0.014385
 Thermal correction to Gibbs Free Energy=        -0.009312
 Sum of electronic and zero-point Energies=           -100.895593
 Sum of electronic and thermal Energies=              -100.893223
 Sum of electronic and thermal Enthalpies=            -100.892278
 Sum of electronic and thermal Free Energies=         -100.915975

                     E (Thermal)             CV                S
                      KCal/Mol        Cal/Mol-Kelvin    Cal/Mol-Kelvin
 Total                    8.434              5.127             49.874
 Electronic               0.000              0.000              1.377
 Translational            0.889              2.981             35.068
 Rotational               0.592              1.987             13.405
 Vibrational              6.953              0.159              0.024

 Normal termination of Gaussian 16 at Fri Aug 22 20:16:46 2025.
