 Gaussian 16, Revision C.01,
 Gaussian 16:  ES64L-G16RevC.01  3-Jul-2019

 -----------------------------------------
 # sp b3lyp/6-311g** Force nosymm scf=(qc)
 -----------------------------------------

 -------------------
 Title Card Required
 -------------------
 Symbolic Z-matrix:
 Charge =  0 Multiplicity = 2

                          Input orientation:
 ---------------------------------------------------------------------
 Center     Atomic      Atomic             Coordinates (Angstroms)
 Number     Number       Type             X           Y           Z
 ---------------------------------------------------------------------
      1          1           0        0.000000    0.000000    0.000000
      2          1           0       -0.850000    0.000000    0.000000
      3          9           0        0.650000    0.000000    0.000000
 ---------------------------------------------------------------------

 SCF Done:  E(UB3LYP) =  -100.724967926     a.u. after    7 cycles

 Alpha  occ. eigenvalues --  -24.66008  -1.36492  -0.66988  -0.45326  -0.45326
 Alpha  occ. eigenvalues --   -0.32150
 Alpha virt. eigenvalues --    0.16739   0.19212   0.79080   0.86852   0.86852
 Alpha virt. eigenvalues --    0.92488   1.09476   1.09476   1.46352   1.70133
 Alpha virt. eigenvalues --    1.79678   1.79678   2.24955   2.47746   3.75574

  Beta  occ. eigenvalues --  -24.65429  -1.34675  -0.64024  -0.44849  -0.44849
  Beta virt. eigenvalues --   -0.11982   0.17398   0.25200   0.83286   0.88490
  Beta virt. eigenvalues --    0.88490   0.94845   1.16059   1.16059   1.47781
  Beta virt. eigenvalues --    1.76334   1.85467   1.85467   2.35163   2.57365

 Mulliken charges and spin densities:
               1          2
     1  H    0.263557  -0.023467
     2  H   -0.058977   0.944071
     3  F   -0.204580   0.079396
 Sum of Mulliken charges =   0.00000   1.00000

 Dipole moment (field-independent basis, Debye):
    X=             -0.9155    Y=             -0.0000    Z=              0.0000  Tot=              0.9155
 Quadrupole moment (field-independent basis, Debye-Ang):
   XX=             -7.4231   YY=             -6.4390   ZZ=             -6.4390
   XY=             -0.0000   XZ=              0.0000   YZ=             -0.0000

  Exact polarizability:       7.763      -0.000       2.514      -0.000      -0.000       2.514
 Approx polarizability:       7.634       0.000       2.589      -0.000      -0.000       2.589

 ******    2 imaginary frequencies (negative Signs) ******

                      1                      2                      3
                      A                      A                      A
 Frequencies --  -4703.6850             -4703.6850              2861.4735
 Red. masses --      1.0215                 1.0215                 1.0573
 Frc consts  --     13.3157                13.3157                 5.1007
 IR Inten    --    131.7746               131.7746               155.2696

                      4
                      A
 Frequencies --  10901.0374
 Red. masses --      1.0543
 Frc consts  --     73.8128
 IR Inten    --     47.3252

 - Thermochemistry -
 -------------------
 Temperature   298.150 Kelvin.  Pressure   1.00000 Atm.
 Atom     1 has atomic number  1 and mass   1.00783

 Molecular mass:    21.01405 amu.
 Principal axes and moments of inertia in atomic units:
                           1         2         3
     Eigenvalues --     0.00000   8.82047   8.82047
           X            1.00000  -0.00000   0.00000
           Y            0.00000   1.00000   0.00000
           Z            0.00000   0.00000   1.00000
 This molecule is a prolate symmetric top.
 Rotational symmetry number  1.
 Rotational temperature (Kelvin)      9.81964
 Rotational constant (GHZ):         204.608168
    2 imaginary frequencies ignored.
 Zero-point vibrational energy      82318.1 (Joules/Mol)
                                   19.67450 (Kcal/Mol)
 Vibrational temperatures:   4117.02 15684.16
          (Kelvin)

 Zero-point correction=                           0.031353 (Hartree/Particle)
 Thermal correction to Energy=                    0.033714
 Thermal correction to Enthalpy=                  0.034658
 Thermal correction to Gibbs Free Energy=         0.013175
 Sum of electronic and zero-point Energies=           -100.693615
 Sum of electronic and thermal Energies=              -100.691254
 Sum of electronic and thermal Enthalpies=            -100.690310
 Sum of electronic and thermal Free Energies=         -100.711793

                     E (Thermal)             CV                S
                      KCal/Mol        Cal/Mol-Kelvin    Cal/Mol-Kelvin
 Total                   21.156              4.968             45.215
 Electronic               0.000              0.000              1.377
 Translational            0.889              2.981             35.068
 Rotational               0.592              1.987              8.770
 Vibrational             19.675              0.000              0.000

 Normal termination of Gaussian 16 at Fri Aug 22 15:43:16 2025.
