 Gaussian 16, Revision C.01,
 Gaussian 16:  ES64L-G16RevC.01  3-Jul-2019

 -----------------------------------------
 # sp b3lyp/6-311g** Force nosymm scf=(qc)
 -----------------------------------------

 -------------------
 Title Card Required
 -------------------
 Symbolic Z-matrix:
 Charge =  0 Multiplicity = 2

                          Input orientation:
 ---------------------------------------------------------------------
 Center     Atomic      Atomic             Coordinates (Angstroms)
 Number     Number       Type             X           Y           Z
 ---------------------------------------------------------------------
      1          1           0        0.000000    0.000000    0.000000
      2          1           0       -0.600000    0.000000    0.000000
      3          9           0        0.700000    0.000000    0.000000
 ---------------------------------------------------------------------

 SCF Done:  E(UB3LYP) =  -100.691569940     a.u. after    7 cycles

 Alpha  occ. eigenvalues --  -24.68736  -1.38128  -0.71891  -0.47075  -0.47075
 Alpha  occ. eigenvalues --   -0.28058
 Alpha virt. eigenvalues --    0.17044   0.17701   0.81358   0.84872   0.84872
 Alpha virt. eigenvalues --    0.91967   1.10947   1.10947   1.43217   1.63363
 Alpha virt. eigenvalues --    1.93778   1.93778   2.02375   3.19616   3.73887

  Beta  occ. eigenvalues --  -24.67685  -1.34954  -0.67398  -0.46172  -0.46172
  Beta virt. eigenvalues --   -0.10022   0.17579   0.22578   0.84735   0.86681
  Beta virt. eigenvalues --    0.86681   0.95548   1.15923   1.15923   1.45324
  Beta virt. eigenvalues --    1.68491   1.99168   1.99168   2.08863   3.25961

 Mulliken charges and spin densities:
               1          2
     1  H    0.279338  -0.073205
     2  H   -0.145289   0.909191
     3  F   -0.134049   0.164014
 Sum of Mulliken charges =   0.00000   1.00000

 Dipole moment (field-independent basis, Debye):
    X=             -0.5382    Y=             -0.0000    Z=             -0.0000  Tot=              0.5382
 Quadrupole moment (field-independent basis, Debye-Ang):
   XX=             -7.5370   YY=             -6.4358   ZZ=             -6.4358
   XY=             -0.0000   XZ=             -0.0000   YZ=              0.0000

  Exact polarizability:       8.838      -0.000       2.466      -0.000      -0.000       2.466
 Approx polarizability:       8.910      -0.000       2.567       0.000      -0.000       2.567

 ******    2 imaginary frequencies (negative Signs) ******

                      1                      2                      3
                      A                      A                      A
 Frequencies --  -5052.0249             -5052.0249              4793.9380
 Red. masses --      1.0162                 1.0162                 1.0815
 Frc consts  --     15.2810                15.2810                14.6439
 IR Inten    --    115.6292               115.6292               344.7022

                      4
                      A
 Frequencies --  10065.7110
 Red. masses --      1.0313
 Frc consts  --     61.5610
 IR Inten    --     24.6550

 - Thermochemistry -
 -------------------
 Temperature   298.150 Kelvin.  Pressure   1.00000 Atm.
 Atom     1 has atomic number  1 and mass   1.00783

 Molecular mass:    21.01405 amu.
 Principal axes and moments of inertia in atomic units:
                           1         2         3
     Eigenvalues --     0.00000   7.15541   7.15541
           X            1.00000  -0.00000   0.00000
           Y            0.00000   1.00000   0.00000
           Z            0.00000   0.00000   1.00000
 This molecule is a prolate symmetric top.
 Rotational symmetry number  1.
 Rotational temperature (Kelvin)     12.10467
 Rotational constant (GHZ):         252.220482
    2 imaginary frequencies ignored.
 Zero-point vibrational energy      88880.4 (Joules/Mol)
                                   21.24293 (Kcal/Mol)
 Vibrational temperatures:   6897.41 14482.31
          (Kelvin)

 Zero-point correction=                           0.033853 (Hartree/Particle)
 Thermal correction to Energy=                    0.036213
 Thermal correction to Enthalpy=                  0.037157
 Thermal correction to Gibbs Free Energy=         0.015872
 Sum of electronic and zero-point Energies=           -100.657717
 Sum of electronic and thermal Energies=              -100.655357
 Sum of electronic and thermal Enthalpies=            -100.654413
 Sum of electronic and thermal Free Energies=         -100.675698

                     E (Thermal)             CV                S
                      KCal/Mol        Cal/Mol-Kelvin    Cal/Mol-Kelvin
 Total                   22.724              4.968             44.800
 Electronic               0.000              0.000              1.377
 Translational            0.889              2.981             35.068
 Rotational               0.592              1.987              8.354
 Vibrational             21.243              0.000              0.000

 Normal termination of Gaussian 16 at Fri Aug 22 15:45:27 2025.
