 Gaussian 16, Revision C.01,
 Gaussian 16:  ES64L-G16RevC.01  3-Jul-2019

 -----------------------------------------
 # sp b3lyp/6-311g** Force nosymm scf=(qc)
 -----------------------------------------

 -------------------
 Title Card Required
 -------------------
 Symbolic Z-matrix:
 Charge =  0 Multiplicity = 2

                          Input orientation:
 ---------------------------------------------------------------------
 Center     Atomic      Atomic             Coordinates (Angstroms)
 Number     Number       Type             X           Y           Z
 ---------------------------------------------------------------------
      1          1           0        0.000000    0.000000    0.000000
      2          1           0       -3.550000    0.000000    0.000000
      3          9           0        1.200000    0.000000    0.000000
 ---------------------------------------------------------------------

 SCF Done:  E(UB3LYP) =  -100.925569707     a.u. after    6 cycles

 Alpha  occ. eigenvalues --  -24.64350  -1.12269  -0.47744  -0.37527  -0.37527
 Alpha  occ. eigenvalues --   -0.33800
 Alpha virt. eigenvalues --   -0.05738   0.22229   0.29416   0.93176   0.93176
 Alpha virt. eigenvalues --    1.00805   1.23661   1.23714   1.23714   1.26253
 Alpha virt. eigenvalues --    1.34621   1.34621   1.72756   2.13784   2.28493

  Beta  occ. eigenvalues --  -24.64346  -1.12260  -0.47734  -0.37524  -0.37524
  Beta virt. eigenvalues --   -0.07535  -0.04295   0.26826   0.38741   0.93176
  Beta virt. eigenvalues --    0.93176   1.00815   1.26223   1.34613   1.34613
  Beta virt. eigenvalues --    1.47701   1.47701   1.48062   1.72785   2.28085

 Mulliken charges and spin densities:
               1          2
     1  H    0.353055   0.000061
     2  H    0.001126   0.998754
     3  F   -0.354181   0.001185
 Sum of Mulliken charges =   0.00000   1.00000

 Dipole moment (field-independent basis, Debye):
    X=             -2.2948    Y=             -0.0000    Z=             -0.0000  Tot=              2.2948
 Quadrupole moment (field-independent basis, Debye-Ang):
   XX=             -8.8722   YY=             -7.1278   ZZ=             -7.1278
   XY=             -0.0000   XZ=             -0.0000   YZ=              0.0000

  Exact polarizability:       9.522      -0.000       2.323       0.000      -0.000       2.323
 Approx polarizability:      13.481      -0.000       2.278      -0.000      -0.000       2.278

 ******    1 imaginary frequencies (negative Signs) ******

                      1                      2                      3
                      A                      A                      A
 Frequencies --    -55.7564              1004.2163              1205.3800
 Red. masses --      1.0528                 1.0588                 1.0344
 Frc consts  --      0.0019                 0.6291                 0.8855
 IR Inten    --      0.1039                67.5334               146.5326

                      4
                      A
 Frequencies --   1205.3800
 Red. masses --      1.0344
 Frc consts  --      0.8855
 IR Inten    --    146.5326

 - Thermochemistry -
 -------------------
 Temperature   298.150 Kelvin.  Pressure   1.00000 Atm.
 Atom     1 has atomic number  1 and mass   1.00783

 Molecular mass:    21.01405 amu.
 Principal axes and moments of inertia in atomic units:
                           1         2         3
     Eigenvalues --     0.00000  80.27449  80.27449
           X            1.00000  -0.00000   0.00000
           Y            0.00000   1.00000   0.00000
           Z            0.00000   0.00000   1.00000
 This molecule is a prolate symmetric top.
 Rotational symmetry number  1.
 Rotational temperature (Kelvin)      1.07897
 Rotational constant (GHZ):          22.482127
    1 imaginary frequencies ignored.
 Zero-point vibrational energy      20426.1 (Joules/Mol)
                                    4.88195 (Kcal/Mol)
 Vibrational temperatures:   1444.84  1734.27  1734.27
          (Kelvin)

 Zero-point correction=                           0.007780 (Hartree/Particle)
 Thermal correction to Energy=                    0.010209
 Thermal correction to Enthalpy=                  0.011154
 Thermal correction to Gibbs Free Energy=        -0.012497
 Sum of electronic and zero-point Energies=           -100.917790
 Sum of electronic and thermal Energies=              -100.915360
 Sum of electronic and thermal Enthalpies=            -100.914416
 Sum of electronic and thermal Free Energies=         -100.938067

                     E (Thermal)             CV                S
                      KCal/Mol        Cal/Mol-Kelvin    Cal/Mol-Kelvin
 Total                    6.406              5.743             49.777
 Electronic               0.000              0.000              1.377
 Translational            0.889              2.981             35.068
 Rotational               0.592              1.987             13.158
 Vibrational              4.925              0.775              0.173

 Normal termination of Gaussian 16 at Fri Aug 22 16:11:10 2025.
