 Gaussian 16, Revision C.01,
 Gaussian 16:  ES64L-G16RevC.01  3-Jul-2019

 -----------------------------------------
 # sp b3lyp/6-311g** Force nosymm scf=(qc)
 -----------------------------------------

 -------------------
 Title Card Required
 -------------------
 Symbolic Z-matrix:
 Charge =  0 Multiplicity = 2

                          Input orientation:
 ---------------------------------------------------------------------
 Center     Atomic      Atomic             Coordinates (Angstroms)
 Number     Number       Type             X           Y           Z
 ---------------------------------------------------------------------
      1          1           0        0.000000    0.000000    0.000000
      2          1           0       -3.250000    0.000000    0.000000
      3          9           0        1.300000    0.000000    0.000000
 ---------------------------------------------------------------------

 SCF Done:  E(UB3LYP) =  -100.901334212     a.u. after    7 cycles

 Alpha  occ. eigenvalues --  -24.64345  -1.11095  -0.46049  -0.37047  -0.37047
 Alpha  occ. eigenvalues --   -0.34168
 Alpha virt. eigenvalues --   -0.08854   0.21809   0.28428   0.93026   0.93026
 Alpha virt. eigenvalues --    1.02072   1.21602   1.23353   1.23353   1.23653
 Alpha virt. eigenvalues --    1.33828   1.33828   1.70836   2.13895   2.24810

  Beta  occ. eigenvalues --  -24.64334  -1.11065  -0.46014  -0.37037  -0.37037
  Beta virt. eigenvalues --   -0.10147  -0.05779   0.25421   0.38095   0.93024
  Beta virt. eigenvalues --    0.93024   1.02105   1.21810   1.33795   1.33795
  Beta virt. eigenvalues --    1.45709   1.46200   1.46200   1.70897   2.24692

 Mulliken charges and spin densities:
               1          2
     1  H    0.356976  -0.000885
     2  H    0.002555   0.997163
     3  F   -0.359530   0.003722
 Sum of Mulliken charges =   0.00000   1.00000

 Dipole moment (field-independent basis, Debye):
    X=             -2.4296    Y=             -0.0000    Z=              0.0000  Tot=              2.4296
 Quadrupole moment (field-independent basis, Debye-Ang):
   XX=             -9.1354   YY=             -7.1999   ZZ=             -7.1999
   XY=             -0.0000   XZ=              0.0000   YZ=              0.0000

  Exact polarizability:      11.933      -0.000       2.282       0.000      -0.000       2.282
 Approx polarizability:      17.996       0.000       2.227      -0.000      -0.000       2.227

 ******    2 imaginary frequencies (negative Signs) ******

                      1                      2                      3
                      A                      A                      A
 Frequencies --   -619.0448               -84.8223              1155.8662
 Red. masses --      1.0547                 1.0569                 1.0317
 Frc consts  --      0.2381                 0.0045                 0.8121
 IR Inten    --     66.0378                 0.0768               133.7436

                      4
                      A
 Frequencies --   1155.8662
 Red. masses --      1.0317
 Frc consts  --      0.8121
 IR Inten    --    133.7436

 - Thermochemistry -
 -------------------
 Temperature   298.150 Kelvin.  Pressure   1.00000 Atm.
 Atom     1 has atomic number  1 and mass   1.00783

 Molecular mass:    21.01405 amu.
 Principal axes and moments of inertia in atomic units:
                           1         2         3
     Eigenvalues --     0.00000  74.68376  74.68376
           X            1.00000  -0.00000   0.00000
           Y            0.00000   1.00000   0.00000
           Z            0.00000   0.00000   1.00000
 This molecule is a prolate symmetric top.
 Rotational symmetry number  1.
 Rotational temperature (Kelvin)      1.15974
 Rotational constant (GHZ):          24.165109
    2 imaginary frequencies ignored.
 Zero-point vibrational energy      13827.2 (Joules/Mol)
                                    3.30479 (Kcal/Mol)
 Vibrational temperatures:   1663.03  1663.03
          (Kelvin)

 Zero-point correction=                           0.005267 (Hartree/Particle)
 Thermal correction to Energy=                    0.007667
 Thermal correction to Enthalpy=                  0.008611
 Thermal correction to Gibbs Free Energy=        -0.014936
 Sum of electronic and zero-point Energies=           -100.896068
 Sum of electronic and thermal Energies=              -100.893667
 Sum of electronic and thermal Enthalpies=            -100.892723
 Sum of electronic and thermal Free Energies=         -100.916270

                     E (Thermal)             CV                S
                      KCal/Mol        Cal/Mol-Kelvin    Cal/Mol-Kelvin
 Total                    4.811              5.439             49.560
 Electronic               0.000              0.000              1.377
 Translational            0.889              2.981             35.068
 Rotational               0.592              1.987             13.015
 Vibrational              3.330              0.471              0.099

 Normal termination of Gaussian 16 at Fri Aug 22 16:15:54 2025.
