 Gaussian 16, Revision C.01,
 Gaussian 16:  ES64L-G16RevC.01  3-Jul-2019

 -----------------------------------------
 # sp b3lyp/6-311g** Force nosymm scf=(qc)
 -----------------------------------------

 -------------------
 Title Card Required
 -------------------
 Symbolic Z-matrix:
 Charge =  0 Multiplicity = 2

                          Input orientation:
 ---------------------------------------------------------------------
 Center     Atomic      Atomic             Coordinates (Angstroms)
 Number     Number       Type             X           Y           Z
 ---------------------------------------------------------------------
      1          1           0        0.000000    0.000000    0.000000
      2          1           0       -1.250000    0.000000    0.000000
      3          9           0        1.350000    0.000000    0.000000
 ---------------------------------------------------------------------

 SCF Done:  E(UB3LYP) =  -100.915405664     a.u. after   13 cycles

 Alpha  occ. eigenvalues --  -24.65236  -1.12812  -0.50660  -0.38570  -0.37929
 Alpha  occ. eigenvalues --   -0.37929
 Alpha virt. eigenvalues --    0.00337   0.19815   0.30761   0.91862   0.91862
 Alpha virt. eigenvalues --    1.00804   1.10505   1.10505   1.12215   1.49727
 Alpha virt. eigenvalues --    1.49727   1.57401   2.03023   2.25900   2.45889

  Beta  occ. eigenvalues --  -24.63822  -1.09084  -0.44265  -0.36593  -0.36593
  Beta virt. eigenvalues --   -0.21906   0.03633   0.22620   0.33082   0.92372
  Beta virt. eigenvalues --    0.92372   1.04199   1.16262   1.16262   1.17271
  Beta virt. eigenvalues --    1.52518   1.52518   1.60820   2.09575   2.29680

 Mulliken charges and spin densities:
               1          2
     1  H    0.250713  -0.121490
     2  H    0.064631   0.694937
     3  F   -0.315344   0.426553
 Sum of Mulliken charges =   0.00000   1.00000

 Dipole moment (field-independent basis, Debye):
    X=             -2.5394    Y=              0.0000    Z=             -0.0000  Tot=              2.5394
 Quadrupole moment (field-independent basis, Debye-Ang):
   XX=             -7.8816   YY=             -7.0439   ZZ=             -7.0439
   XY=              0.0000   XZ=             -0.0000   YZ=             -0.0000

  Exact polarizability:      27.941       0.000       2.423      -0.000      -0.000       2.423
 Approx polarizability:      40.021       0.000       2.392      -0.000       0.000       2.392

 ******    1 imaginary frequencies (negative Signs) ******

                      1                      2                      3
                      A                      A                      A
 Frequencies --  -2673.1946               497.7200              1149.9576
 Red. masses --      1.0234                 1.0903                 1.0170
 Frc consts  --      4.3087                 0.1591                 0.7924
 IR Inten    --    359.9940                31.9615                27.0434

                      4
                      A
 Frequencies --   1149.9576
 Red. masses --      1.0170
 Frc consts  --      0.7924
 IR Inten    --     27.0434

 - Thermochemistry -
 -------------------
 Temperature   298.150 Kelvin.  Pressure   1.00000 Atm.
 Atom     1 has atomic number  1 and mass   1.00783

 Molecular mass:    21.01405 amu.
 Principal axes and moments of inertia in atomic units:
                           1         2         3
     Eigenvalues --     0.00000  28.19539  28.19539
           X            1.00000  -0.00000   0.00000
           Y            0.00000   1.00000   0.00000
           Z            0.00000   0.00000   1.00000
 This molecule is a prolate symmetric top.
 Rotational symmetry number  1.
 Rotational temperature (Kelvin)      3.07192
 Rotational constant (GHZ):          64.008376
    1 imaginary frequencies ignored.
 Zero-point vibrational energy      16733.6 (Joules/Mol)
                                    3.99942 (Kcal/Mol)
 Warning -- explicit consideration of   1 degrees of freedom as
           vibrations may cause significant error
 Vibrational temperatures:    716.11  1654.53  1654.53
          (Kelvin)

 Zero-point correction=                           0.006373 (Hartree/Particle)
 Thermal correction to Energy=                    0.009001
 Thermal correction to Enthalpy=                  0.009945
 Thermal correction to Gibbs Free Energy=        -0.012999
 Sum of electronic and zero-point Energies=           -100.909032
 Sum of electronic and thermal Energies=              -100.906405
 Sum of electronic and thermal Enthalpies=            -100.905461
 Sum of electronic and thermal Free Energies=         -100.928405

                     E (Thermal)             CV                S
                      KCal/Mol        Cal/Mol-Kelvin    Cal/Mol-Kelvin
 Total                    5.648              6.703             48.290
 Electronic               0.000              0.000              1.377
 Translational            0.889              2.981             35.068
 Rotational               0.592              1.987             11.079
 Vibrational              4.167              1.735              0.765
 Vibration     1          0.853              1.255              0.664

 Normal termination of Gaussian 16 at Fri Aug 22 16:17:00 2025.
