 Gaussian 16, Revision C.01,
 Gaussian 16:  ES64L-G16RevC.01  3-Jul-2019

 -----------------------------------------
 # sp b3lyp/6-311g** Force nosymm scf=(qc)
 -----------------------------------------

 -------------------
 Title Card Required
 -------------------
 Symbolic Z-matrix:
 Charge =  0 Multiplicity = 2

                          Input orientation:
 ---------------------------------------------------------------------
 Center     Atomic      Atomic             Coordinates (Angstroms)
 Number     Number       Type             X           Y           Z
 ---------------------------------------------------------------------
      1          1           0        0.000000    0.000000    0.000000
      2          1           0       -3.100000    0.000000    0.000000
      3          9           0        2.300000    0.000000    0.000000
 ---------------------------------------------------------------------

 SCF Done:  E(UB3LYP) =  -100.773441121     a.u. after   14 cycles

 Alpha  occ. eigenvalues --  -24.70470  -1.16750  -0.49548  -0.41647  -0.41647
 Alpha  occ. eigenvalues --   -0.33371
 Alpha virt. eigenvalues --   -0.11759   0.23562   0.33914   0.88970   0.94229
 Alpha virt. eigenvalues --    0.94229   1.06381   1.24163   1.24163   1.24809
 Alpha virt. eigenvalues --    1.38494   1.38494   1.48410   2.14719   2.33351

  Beta  occ. eigenvalues --  -24.67758  -1.09071  -0.38952  -0.38952  -0.36248
  Beta virt. eigenvalues --   -0.22483  -0.07723   0.24195   0.37050   0.93309
  Beta virt. eigenvalues --    0.95446   0.95446   1.08500   1.21648   1.21648
  Beta virt. eigenvalues --    1.36955   1.44810   1.44810   1.44910   2.12776

 Mulliken charges and spin densities:
               1          2
     1  H    0.120442  -0.849233
     2  H    0.003137   0.994054
     3  F   -0.123579   0.855179
 Sum of Mulliken charges =   0.00000   1.00000

 Dipole moment (field-independent basis, Debye):
    X=             -1.4793    Y=              0.0000    Z=              0.0000  Tot=              1.4793
 Quadrupole moment (field-independent basis, Debye-Ang):
   XX=             -9.5223   YY=             -7.5530   ZZ=             -7.5530
   XY=              0.0000   XZ=              0.0000   YZ=             -0.0000

  Exact polarizability:      31.642       0.000       2.031       0.000       0.000       2.031
 Approx polarizability:      40.585       0.000       1.923       0.000       0.000       1.923

 ******    2 imaginary frequencies (negative Signs) ******

                      1                      2                      3
                      A                      A                      A
 Frequencies --   -786.3486              -193.6517               320.6883
 Red. masses --      1.0514                 1.0602                 1.0219
 Frc consts  --      0.3830                 0.0234                 0.0619
 IR Inten    --     94.3101                 1.6000                13.3699

                      4
                      A
 Frequencies --    320.6883
 Red. masses --      1.0219
 Frc consts  --      0.0619
 IR Inten    --     13.3699

 - Thermochemistry -
 -------------------
 Temperature   298.150 Kelvin.  Pressure   1.00000 Atm.
 Atom     1 has atomic number  1 and mass   1.00783

 Molecular mass:    21.01405 amu.
 Principal axes and moments of inertia in atomic units:
                           1         2         3
     Eigenvalues --     0.00000 113.75198 113.75198
           X            1.00000  -0.00000   0.00000
           Y            0.00000   1.00000   0.00000
           Z            0.00000   0.00000   1.00000
 This molecule is a prolate symmetric top.
 Rotational symmetry number  1.
 Rotational temperature (Kelvin)      0.76143
 Rotational constant (GHZ):          15.865581
    2 imaginary frequencies ignored.
 Zero-point vibrational energy       3836.3 (Joules/Mol)
                                    0.91689 (Kcal/Mol)
 Warning -- explicit consideration of   2 degrees of freedom as
           vibrations may cause significant error
 Vibrational temperatures:    461.40   461.40
          (Kelvin)

 Zero-point correction=                           0.001461 (Hartree/Particle)
 Thermal correction to Energy=                    0.004611
 Thermal correction to Enthalpy=                  0.005556
 Thermal correction to Gibbs Free Energy=        -0.019583
 Sum of electronic and zero-point Energies=           -100.771980
 Sum of electronic and thermal Energies=              -100.768830
 Sum of electronic and thermal Enthalpies=            -100.767885
 Sum of electronic and thermal Free Energies=         -100.793025

                     E (Thermal)             CV                S
                      KCal/Mol        Cal/Mol-Kelvin    Cal/Mol-Kelvin
 Total                    2.894              8.236             52.910
 Electronic               0.000              0.000              1.377
 Translational            0.889              2.981             35.068
 Rotational               0.592              1.987             13.851
 Vibrational              1.413              3.268              2.613
 Vibration     1          0.706              1.634              1.307
 Vibration     2          0.706              1.634              1.307

 Normal termination of Gaussian 16 at Fri Aug 22 17:22:53 2025.
