 Gaussian 16, Revision C.01,
 Gaussian 16:  ES64L-G16RevC.01  3-Jul-2019

 -----------------------------------------
 # sp b3lyp/6-311g** Force nosymm scf=(qc)
 -----------------------------------------

 -------------------
 Title Card Required
 -------------------
 Symbolic Z-matrix:
 Charge =  0 Multiplicity = 2

                          Input orientation:
 ---------------------------------------------------------------------
 Center     Atomic      Atomic             Coordinates (Angstroms)
 Number     Number       Type             X           Y           Z
 ---------------------------------------------------------------------
      1          1           0        0.000000    0.000000    0.000000
      2          1           0       -0.700000    0.000000    0.000000
      3          9           0        2.800000    0.000000    0.000000
 ---------------------------------------------------------------------

 SCF Done:  E(UB3LYP) =  -100.933113259     a.u. after   46 cycles

 Alpha  occ. eigenvalues --  -24.76719  -1.22506  -0.55693  -0.47067  -0.46841
 Alpha  occ. eigenvalues --   -0.43884
 Alpha virt. eigenvalues --    0.07320   0.19849   0.49240   0.85789   0.90659
 Alpha virt. eigenvalues --    0.93831   1.08696   1.09125   1.09135   1.57926
 Alpha virt. eigenvalues --    1.86029   1.86041   1.91529   2.39093   3.57151

  Beta  occ. eigenvalues --  -24.73555  -1.13415  -0.44591  -0.43670  -0.43184
  Beta virt. eigenvalues --   -0.26310   0.07385   0.19891   0.49353   0.92157
  Beta virt. eigenvalues --    0.95241   0.95754   1.09126   1.09134   1.12236
  Beta virt. eigenvalues --    1.57937   1.86028   1.86040   1.91557   2.39101

 Mulliken charges and spin densities:
               1          2
     1  H   -0.007645  -0.001669
     2  H   -0.004422  -0.000042
     3  F    0.012067   1.001711
 Sum of Mulliken charges =   0.00000   1.00000

 Dipole moment (field-independent basis, Debye):
    X=              0.1140    Y=             -0.0000    Z=              0.0000  Tot=              0.1140
 Quadrupole moment (field-independent basis, Debye-Ang):
   XX=             -6.0281   YY=             -6.0288   ZZ=             -6.8920
   XY=              0.0000   XZ=              0.0000   YZ=              0.0064

  Exact polarizability:       8.125       0.000       2.397       0.000       0.003       1.942
 Approx polarizability:       9.031       0.000       2.595       0.000       0.004       2.023

 ******    2 imaginary frequencies (negative Signs) ******

                      1                      2                      3
                      A                      A                      A
 Frequencies --  -1164.6749             -1161.3108                95.5504
 Red. masses --      1.0091                 1.0091                 1.1085
 Frc consts  --      0.8064                 0.8018                 0.0060
 IR Inten    --      0.0252                 0.0239                 0.3008

                      4
                      A
 Frequencies --   5088.1249
 Red. masses --      1.0078
 Frc consts  --     15.3727
 IR Inten    --      0.8681

 - Thermochemistry -
 -------------------
 Temperature   298.150 Kelvin.  Pressure   1.00000 Atm.
 Atom     1 has atomic number  1 and mass   1.00783

 Molecular mass:    21.01405 amu.
 Principal axes and moments of inertia in atomic units:
                           1         2         3
     Eigenvalues --     0.00000  65.45331  65.45331
           X            1.00000  -0.00000   0.00000
           Y            0.00000   1.00000   0.00000
           Z            0.00000   0.00000   1.00000
 This molecule is a prolate symmetric top.
 Rotational symmetry number  1.
 Rotational temperature (Kelvin)      1.32329
 Rotational constant (GHZ):          27.572954
    2 imaginary frequencies ignored.
 Zero-point vibrational energy      31005.3 (Joules/Mol)
                                    7.41044 (Kcal/Mol)
 Warning -- explicit consideration of   1 degrees of freedom as
           vibrations may cause significant error
 Vibrational temperatures:    137.48  7320.68
          (Kelvin)

 Zero-point correction=                           0.011809 (Hartree/Particle)
 Thermal correction to Energy=                    0.014913
 Thermal correction to Enthalpy=                  0.015857
 Thermal correction to Gibbs Free Energy=        -0.009202
 Sum of electronic and zero-point Energies=           -100.921304
 Sum of electronic and thermal Energies=              -100.918200
 Sum of electronic and thermal Enthalpies=            -100.917256
 Sum of electronic and thermal Free Energies=         -100.942315

                     E (Thermal)             CV                S
                      KCal/Mol        Cal/Mol-Kelvin    Cal/Mol-Kelvin
 Total                    9.358              6.920             52.741
 Electronic               0.000              0.000              1.377
 Translational            0.889              2.981             35.068
 Rotational               0.592              1.987             12.753
 Vibrational              7.877              1.952              3.543
 Vibration     1          0.603              1.952              3.543

 Normal termination of Gaussian 16 at Fri Aug 22 18:37:57 2025.
