 Gaussian 16, Revision C.01,
 Gaussian 16:  ES64L-G16RevC.01  3-Jul-2019

 -----------------------------------------
 # sp b3lyp/6-311g** Force nosymm scf=(qc)
 -----------------------------------------

 -------------------
 Title Card Required
 -------------------
 Symbolic Z-matrix:
 Charge =  0 Multiplicity = 2

                          Input orientation:
 ---------------------------------------------------------------------
 Center     Atomic      Atomic             Coordinates (Angstroms)
 Number     Number       Type             X           Y           Z
 ---------------------------------------------------------------------
      1          1           0        0.000000    0.000000    0.000000
      2          1           0       -2.850000    0.000000    0.000000
      3          9           0        2.050000    0.000000    0.000000
 ---------------------------------------------------------------------

 SCF Done:  E(UB3LYP) =  -100.783259751     a.u. after   23 cycles

 Alpha  occ. eigenvalues --  -24.65805  -1.07798  -0.37875  -0.37370  -0.37370
 Alpha  occ. eigenvalues --   -0.33614
 Alpha virt. eigenvalues --   -0.20838   0.21462   0.27273   0.91030   0.95809
 Alpha virt. eigenvalues --    0.95809   1.08574   1.21768   1.21768   1.23526
 Alpha virt. eigenvalues --    1.23526   1.24474   1.50699   2.12708   2.14526

  Beta  occ. eigenvalues --  -24.68222  -1.14568  -0.47213  -0.39755  -0.39755
  Beta virt. eigenvalues --   -0.14180  -0.05105   0.30897   0.38797   0.89358
  Beta virt. eigenvalues --    0.95058   0.95058   1.06513   1.35929   1.35929
  Beta virt. eigenvalues --    1.46703   1.46703   1.47392   1.58582   2.30962

 Mulliken charges and spin densities:
               1          2
     1  H    0.180240   0.766925
     2  H    0.006975   0.993224
     3  F   -0.187215  -0.760150
 Sum of Mulliken charges =   0.00000   1.00000

 Dipole moment (field-independent basis, Debye):
    X=             -1.9995    Y=              0.0000    Z=             -0.0000  Tot=              1.9995
 Quadrupole moment (field-independent basis, Debye-Ang):
   XX=             -9.9975   YY=             -7.4833   ZZ=             -7.4833
   XY=              0.0000   XZ=              0.0000   YZ=              0.0000

  Exact polarizability:      33.257       0.000       2.055       0.000       0.000       2.055
 Approx polarizability:      46.209      -0.000       1.945      -0.000      -0.000       1.945

 ******    1 imaginary frequencies (negative Signs) ******

                      1                      2                      3
                      A                      A                      A
 Frequencies --  -1028.3723               149.4206               434.7795
 Red. masses --      1.0620                 1.0496                 1.0224
 Frc consts  --      0.6617                 0.0138                 0.1139
 IR Inten    --     78.3593                 4.9036                28.8039

                      4
                      A
 Frequencies --    434.7795
 Red. masses --      1.0224
 Frc consts  --      0.1139
 IR Inten    --     28.8039

 - Thermochemistry -
 -------------------
 Temperature   298.150 Kelvin.  Pressure   1.00000 Atm.
 Atom     1 has atomic number  1 and mass   1.00783

 Molecular mass:    21.01405 amu.
 Principal axes and moments of inertia in atomic units:
                           1         2         3
     Eigenvalues --     0.00000  93.19968  93.19968
           X            1.00000  -0.00000   0.00000
           Y            0.00000   1.00000   0.00000
           Z            0.00000   0.00000   1.00000
 This molecule is a prolate symmetric top.
 Rotational symmetry number  1.
 Rotational temperature (Kelvin)      0.92934
 Rotational constant (GHZ):          19.364242
    1 imaginary frequencies ignored.
 Zero-point vibrational energy       6094.9 (Joules/Mol)
                                    1.45670 (Kcal/Mol)
 Warning -- explicit consideration of   3 degrees of freedom as
           vibrations may cause significant error
 Vibrational temperatures:    214.98   625.55   625.55
          (Kelvin)

 Zero-point correction=                           0.002321 (Hartree/Particle)
 Thermal correction to Energy=                    0.005880
 Thermal correction to Enthalpy=                  0.006824
 Thermal correction to Gibbs Free Energy=        -0.018959
 Sum of electronic and zero-point Energies=           -100.780938
 Sum of electronic and thermal Energies=              -100.777379
 Sum of electronic and thermal Enthalpies=            -100.776435
 Sum of electronic and thermal Free Energies=         -100.802219

                     E (Thermal)             CV                S
                      KCal/Mol        Cal/Mol-Kelvin    Cal/Mol-Kelvin
 Total                    3.690              9.660             54.267
 Electronic               0.000              0.000              1.377
 Translational            0.889              2.981             35.068
 Rotational               0.592              1.987             13.455
 Vibrational              2.209              4.692              4.366
 Vibration     1          0.618              1.903              2.680
 Vibration     2          0.795              1.394              0.843
 Vibration     3          0.795              1.394              0.843

 Normal termination of Gaussian 16 at Fri Aug 22 17:01:00 2025.
