 Gaussian 16, Revision C.01,
 Gaussian 16:  ES64L-G16RevC.01  3-Jul-2019

 -----------------------------------------
 # sp b3lyp/6-311g** Force nosymm scf=(qc)
 -----------------------------------------

 -------------------
 Title Card Required
 -------------------
 Symbolic Z-matrix:
 Charge =  0 Multiplicity = 2

                          Input orientation:
 ---------------------------------------------------------------------
 Center     Atomic      Atomic             Coordinates (Angstroms)
 Number     Number       Type             X           Y           Z
 ---------------------------------------------------------------------
      1          1           0        0.000000    0.000000    0.000000
      2          1           0       -1.200000    0.000000    0.000000
      3          9           0        1.700000    0.000000    0.000000
 ---------------------------------------------------------------------

 SCF Done:  E(UB3LYP) =  -100.888619454     a.u. after   12 cycles

 Alpha  occ. eigenvalues --  -24.69333  -1.15937  -0.50439  -0.40904  -0.40904
 Alpha  occ. eigenvalues --   -0.40000
 Alpha virt. eigenvalues --   -0.03397   0.20834   0.32194   0.91873   0.91873
 Alpha virt. eigenvalues --    0.94702   1.06161   1.09927   1.09927   1.50230
 Alpha virt. eigenvalues --    1.51653   1.51653   2.08612   2.26162   2.53044

  Beta  occ. eigenvalues --  -24.66921  -1.09244  -0.40804  -0.38538  -0.38538
  Beta virt. eigenvalues --   -0.23813  -0.00901   0.22546   0.33041   0.92717
  Beta virt. eigenvalues --    0.92717   1.00737   1.08990   1.12685   1.12685
  Beta virt. eigenvalues --    1.53083   1.53083   1.54232   2.11371   2.28805

 Mulliken charges and spin densities:
               1          2
     1  H    0.118642  -0.164553
     2  H    0.063774   0.415963
     3  F   -0.182416   0.748590
 Sum of Mulliken charges =  -0.00000   1.00000

 Dipole moment (field-independent basis, Debye):
    X=             -1.8651    Y=             -0.0000    Z=             -0.0000  Tot=              1.8651
 Quadrupole moment (field-independent basis, Debye-Ang):
   XX=             -7.4329   YY=             -7.2560   ZZ=             -7.2560
   XY=             -0.0000   XZ=             -0.0000   YZ=             -0.0000

  Exact polarizability:      37.787      -0.000       2.272      -0.000       0.000       2.272
 Approx polarizability:      57.986       0.000       2.245       0.000      -0.000       2.245

 ******    1 imaginary frequencies (negative Signs) ******

                      1                      2                      3
                      A                      A                      A
 Frequencies --  -2086.2038               194.1887              1297.7323
 Red. masses --      1.0215                 1.0925                 1.0143
 Frc consts  --      2.6193                 0.0243                 1.0064
 IR Inten    --   1196.0876                10.5641                 2.8199

                      4
                      A
 Frequencies --   1297.7323
 Red. masses --      1.0143
 Frc consts  --      1.0064
 IR Inten    --      2.8199

 - Thermochemistry -
 -------------------
 Temperature   298.150 Kelvin.  Pressure   1.00000 Atm.
 Atom     1 has atomic number  1 and mass   1.00783

 Molecular mass:    21.01405 amu.
 Principal axes and moments of inertia in atomic units:
                           1         2         3
     Eigenvalues --     0.00000  37.01643  37.01643
           X            1.00000  -0.00000   0.00000
           Y            0.00000   1.00000   0.00000
           Z            0.00000   0.00000   1.00000
 This molecule is a prolate symmetric top.
 Rotational symmetry number  1.
 Rotational temperature (Kelvin)      2.33988
 Rotational constant (GHZ):          48.755134
    1 imaginary frequencies ignored.
 Zero-point vibrational energy      16685.8 (Joules/Mol)
                                    3.98801 (Kcal/Mol)
 Warning -- explicit consideration of   1 degrees of freedom as
           vibrations may cause significant error
 Vibrational temperatures:    279.39  1867.15  1867.15
          (Kelvin)

 Zero-point correction=                           0.006355 (Hartree/Particle)
 Thermal correction to Energy=                    0.009308
 Thermal correction to Enthalpy=                  0.010252
 Thermal correction to Gibbs Free Energy=        -0.013651
 Sum of electronic and zero-point Energies=           -100.882264
 Sum of electronic and thermal Energies=              -100.879311
 Sum of electronic and thermal Enthalpies=            -100.878367
 Sum of electronic and thermal Free Energies=         -100.902270

                     E (Thermal)             CV                S
                      KCal/Mol        Cal/Mol-Kelvin    Cal/Mol-Kelvin
 Total                    5.841              7.114             50.308
 Electronic               0.000              0.000              1.377
 Translational            0.889              2.981             35.068
 Rotational               0.592              1.987             11.620
 Vibrational              4.360              2.146              2.243
 Vibration     1          0.635              1.848              2.187

 Normal termination of Gaussian 16 at Fri Aug 22 16:36:42 2025.
