 Gaussian 16, Revision C.01,
 Gaussian 16:  ES64L-G16RevC.01  3-Jul-2019

 -----------------------------------------
 # sp b3lyp/6-311g** Force nosymm scf=(qc)
 -----------------------------------------

 -------------------
 Title Card Required
 -------------------
 Symbolic Z-matrix:
 Charge =  0 Multiplicity = 2

                          Input orientation:
 ---------------------------------------------------------------------
 Center     Atomic      Atomic             Coordinates (Angstroms)
 Number     Number       Type             X           Y           Z
 ---------------------------------------------------------------------
      1          1           0        0.000000    0.000000    0.000000
      2          1           0       -3.550000    0.000000    0.000000
      3          9           0        1.850000    0.000000    0.000000
 ---------------------------------------------------------------------

 SCF Done:  E(UB3LYP) =  -100.799071678     a.u. after   19 cycles

 Alpha  occ. eigenvalues --  -24.64917  -1.07545  -0.38979  -0.36666  -0.36666
 Alpha  occ. eigenvalues --   -0.33540
 Alpha virt. eigenvalues --   -0.19623   0.19652   0.27305   0.92131   0.95027
 Alpha virt. eigenvalues --    0.95027   1.08004   1.23132   1.23132   1.23940
 Alpha virt. eigenvalues --    1.23940   1.23975   1.62085   2.11184   2.14991

  Beta  occ. eigenvalues --  -24.66960  -1.13196  -0.45799  -0.38666  -0.38666
  Beta virt. eigenvalues --   -0.14979  -0.05208   0.27215   0.39397   0.91494
  Beta virt. eigenvalues --    0.94866   0.94866   1.05771   1.34074   1.34074
  Beta virt. eigenvalues --    1.46908   1.46908   1.47100   1.67645   2.26572

 Mulliken charges and spin densities:
               1          2
     1  H    0.239986   0.643677
     2  H    0.001375   0.998671
     3  F   -0.241361  -0.642348
 Sum of Mulliken charges =   0.00000   1.00000

 Dipole moment (field-independent basis, Debye):
    X=             -2.2094    Y=             -0.0000    Z=             -0.0000  Tot=              2.2094
 Quadrupole moment (field-independent basis, Debye-Ang):
   XX=            -10.2088   YY=             -7.4448   ZZ=             -7.4448
   XY=             -0.0000   XZ=             -0.0000   YZ=              0.0000

  Exact polarizability:      24.026      -0.000       2.087      -0.000      -0.000       2.087
 Approx polarizability:      36.979      -0.000       1.975      -0.000      -0.000       1.975

 ******    1 imaginary frequencies (negative Signs) ******

                      1                      2                      3
                      A                      A                      A
 Frequencies --  -1402.6214                42.0767               604.9542
 Red. masses --      1.0587                 1.0529                 1.0274
 Frc consts  --      1.2271                 0.0011                 0.2215
 IR Inten    --    127.4263                 0.2605                53.7303

                      4
                      A
 Frequencies --    604.9542
 Red. masses --      1.0274
 Frc consts  --      0.2215
 IR Inten    --     53.7303

 - Thermochemistry -
 -------------------
 Temperature   298.150 Kelvin.  Pressure   1.00000 Atm.
 Atom     1 has atomic number  1 and mass   1.00783

 Molecular mass:    21.01405 amu.
 Principal axes and moments of inertia in atomic units:
                           1         2         3
     Eigenvalues --     0.00000 108.19204 108.19204
           X            1.00000  -0.00000   0.00000
           Y            0.00000   1.00000   0.00000
           Z            0.00000   0.00000   1.00000
 This molecule is a prolate symmetric top.
 Rotational symmetry number  1.
 Rotational temperature (Kelvin)      0.80056
 Rotational constant (GHZ):          16.680905
    1 imaginary frequencies ignored.
 Zero-point vibrational energy       7488.5 (Joules/Mol)
                                    1.78980 (Kcal/Mol)
 Warning -- explicit consideration of   3 degrees of freedom as
           vibrations may cause significant error
 Vibrational temperatures:     60.54   870.39   870.39
          (Kelvin)

 Zero-point correction=                           0.002852 (Hartree/Particle)
 Thermal correction to Energy=                    0.006379
 Thermal correction to Enthalpy=                  0.007323
 Thermal correction to Gibbs Free Energy=        -0.019398
 Sum of electronic and zero-point Energies=           -100.796219
 Sum of electronic and thermal Energies=              -100.792693
 Sum of electronic and thermal Enthalpies=            -100.791749
 Sum of electronic and thermal Free Energies=         -100.818469

                     E (Thermal)             CV                S
                      KCal/Mol        Cal/Mol-Kelvin    Cal/Mol-Kelvin
 Total                    4.003              8.991             56.238
 Electronic               0.000              0.000              1.377
 Translational            0.889              2.981             35.068
 Rotational               0.592              1.987             13.752
 Vibrational              2.522              4.023              6.041
 Vibration     1          0.595              1.980              5.159
 Vibration     2          0.964              1.021              0.441
 Vibration     3          0.964              1.021              0.441

 Normal termination of Gaussian 16 at Fri Aug 22 16:48:16 2025.
