 Gaussian 16, Revision C.01,
 Gaussian 16:  ES64L-G16RevC.01  3-Jul-2019

 -----------------------------------------
 # sp b3lyp/6-311g** Force nosymm scf=(qc)
 -----------------------------------------

 -------------------
 Title Card Required
 -------------------
 Symbolic Z-matrix:
 Charge =  0 Multiplicity = 2

                          Input orientation:
 ---------------------------------------------------------------------
 Center     Atomic      Atomic             Coordinates (Angstroms)
 Number     Number       Type             X           Y           Z
 ---------------------------------------------------------------------
      1          1           0        0.000000    0.000000    0.000000
      2          1           0       -3.500000    0.000000    0.000000
      3          9           0        2.450000    0.000000    0.000000
 ---------------------------------------------------------------------

 SCF Done:  E(UB3LYP) =  -100.768630209     a.u. after   16 cycles

 Alpha  occ. eigenvalues --  -24.71438  -1.17671  -0.50536  -0.42459  -0.42459
 Alpha  occ. eigenvalues --   -0.32948
 Alpha virt. eigenvalues --   -0.10580   0.23405   0.35042   0.89478   0.93770
 Alpha virt. eigenvalues --    0.93770   1.06313   1.24563   1.24563   1.24725
 Alpha virt. eigenvalues --    1.40082   1.40082   1.45416   2.14437   2.35969

  Beta  occ. eigenvalues --  -24.68624  -1.09673  -0.39657  -0.39657  -0.35569
  Beta virt. eigenvalues --   -0.23140  -0.06773   0.23854   0.37886   0.95107
  Beta virt. eigenvalues --    0.95107   0.95302   1.08516   1.21953   1.21953
  Beta virt. eigenvalues --    1.31248   1.45698   1.45965   1.45965   2.12612

 Mulliken charges and spin densities:
               1          2
     1  H    0.097088  -0.886451
     2  H    0.000952   0.997906
     3  F   -0.098040   0.888545
 Sum of Mulliken charges =  -0.00000   1.00000

 Dipole moment (field-independent basis, Debye):
    X=             -1.2353    Y=             -0.0000    Z=              0.0000  Tot=              1.2353
 Quadrupole moment (field-independent basis, Debye-Ang):
   XX=             -9.3905   YY=             -7.5652   ZZ=             -7.5652
   XY=             -0.0000   XZ=              0.0000   YZ=             -0.0000

  Exact polarizability:      30.563      -0.000       2.027       0.000       0.000       2.027
 Approx polarizability:      39.086      -0.000       1.921       0.000      -0.000       1.921

 ******    2 imaginary frequencies (negative Signs) ******

                      1                      2                      3
                      A                      A                      A
 Frequencies --   -651.7849              -120.7837               258.1414
 Red. masses --      1.0546                 1.0570                 1.0228
 Frc consts  --      0.2640                 0.0091                 0.0402
 IR Inten    --     84.6201                 0.2825                 8.9939

                      4
                      A
 Frequencies --    258.1414
 Red. masses --      1.0228
 Frc consts  --      0.0402
 IR Inten    --      8.9939

 - Thermochemistry -
 -------------------
 Temperature   298.150 Kelvin.  Pressure   1.00000 Atm.
 Atom     1 has atomic number  1 and mass   1.00783

 Molecular mass:    21.01405 amu.
 Principal axes and moments of inertia in atomic units:
                           1         2         3
     Eigenvalues --     0.00000 136.83780 136.83780
           X            1.00000  -0.00000   0.00000
           Y            0.00000   1.00000   0.00000
           Z            0.00000   0.00000   1.00000
 This molecule is a prolate symmetric top.
 Rotational symmetry number  1.
 Rotational temperature (Kelvin)      0.63297
 Rotational constant (GHZ):          13.188908
    2 imaginary frequencies ignored.
 Zero-point vibrational energy       3088.1 (Joules/Mol)
                                    0.73806 (Kcal/Mol)
 Warning -- explicit consideration of   2 degrees of freedom as
           vibrations may cause significant error
 Vibrational temperatures:    371.41   371.41
          (Kelvin)

 Zero-point correction=                           0.001176 (Hartree/Particle)
 Thermal correction to Energy=                    0.004487
 Thermal correction to Enthalpy=                  0.005431
 Thermal correction to Gibbs Free Energy=        -0.020232
 Sum of electronic and zero-point Energies=           -100.767454
 Sum of electronic and thermal Energies=              -100.764143
 Sum of electronic and thermal Enthalpies=            -100.763199
 Sum of electronic and thermal Free Energies=         -100.788862

                     E (Thermal)             CV                S
                      KCal/Mol        Cal/Mol-Kelvin    Cal/Mol-Kelvin
 Total                    2.816              8.466             54.012
 Electronic               0.000              0.000              1.377
 Translational            0.889              2.981             35.068
 Rotational               0.592              1.987             14.218
 Vibrational              1.334              3.498              3.349
 Vibration     1          0.667              1.749              1.674
 Vibration     2          0.667              1.749              1.674

 Normal termination of Gaussian 16 at Fri Aug 22 17:39:45 2025.
