 Gaussian 16, Revision C.01,
 Gaussian 16:  ES64L-G16RevC.01  3-Jul-2019

 -----------------------------------------
 # sp b3lyp/6-311g** Force nosymm scf=(qc)
 -----------------------------------------

 -------------------
 Title Card Required
 -------------------
 Symbolic Z-matrix:
 Charge =  0 Multiplicity = 2

                          Input orientation:
 ---------------------------------------------------------------------
 Center     Atomic      Atomic             Coordinates (Angstroms)
 Number     Number       Type             X           Y           Z
 ---------------------------------------------------------------------
      1          1           0        0.000000    0.000000    0.000000
      2          1           0       -3.500000    0.000000    0.000000
      3          9           0        2.200000    0.000000    0.000000
 ---------------------------------------------------------------------

 SCF Done:  E(UB3LYP) =  -100.776098139     a.u. after   15 cycles

 Alpha  occ. eigenvalues --  -24.67070  -1.08613  -0.38399  -0.38399  -0.36800
 Alpha  occ. eigenvalues --   -0.33103
 Alpha virt. eigenvalues --   -0.21911   0.20612   0.27932   0.91422   0.95625
 Alpha virt. eigenvalues --    0.95625   1.08238   1.21510   1.21510   1.24338
 Alpha virt. eigenvalues --    1.24338   1.24405   1.42088   2.10972   2.15448

  Beta  occ. eigenvalues --  -24.69690  -1.16003  -0.48745  -0.40996  -0.40996
  Beta virt. eigenvalues --   -0.12585  -0.04635   0.31065   0.40152   0.88486
  Beta virt. eigenvalues --    0.94545   0.94545   1.06093   1.37582   1.37582
  Beta virt. eigenvalues --    1.47853   1.47853   1.47967   1.51961   2.32436

 Mulliken charges and spin densities:
               1          2
     1  H    0.144631   0.826042
     2  H    0.001156   0.998870
     3  F   -0.145787  -0.824913
 Sum of Mulliken charges =   0.00000   1.00000

 Dipole moment (field-independent basis, Debye):
    X=             -1.6261    Y=             -0.0000    Z=             -0.0000  Tot=              1.6261
 Quadrupole moment (field-independent basis, Debye-Ang):
   XX=             -9.8628   YY=             -7.5169   ZZ=             -7.5169
   XY=             -0.0000   XZ=             -0.0000   YZ=             -0.0000

  Exact polarizability:      28.721      -0.000       2.041      -0.000      -0.000       2.041
 Approx polarizability:      39.825      -0.000       1.930      -0.000       0.000       1.930

 ******    1 imaginary frequencies (negative Signs) ******

                      1                      2                      3
                      A                      A                      A
 Frequencies --   -853.1221                73.9184               356.4701
 Red. masses --      1.0595                 1.0521                 1.0244
 Frc consts  --      0.4543                 0.0034                 0.0767
 IR Inten    --     98.4277                 0.1903                19.8125

                      4
                      A
 Frequencies --    356.4701
 Red. masses --      1.0244
 Frc consts  --      0.0767
 IR Inten    --     19.8125

 - Thermochemistry -
 -------------------
 Temperature   298.150 Kelvin.  Pressure   1.00000 Atm.
 Atom     1 has atomic number  1 and mass   1.00783

 Molecular mass:    21.01405 amu.
 Principal axes and moments of inertia in atomic units:
                           1         2         3
     Eigenvalues --     0.00000 123.57859 123.57859
           X            1.00000  -0.00000   0.00000
           Y            0.00000   1.00000   0.00000
           Z            0.00000   0.00000   1.00000
 This molecule is a prolate symmetric top.
 Rotational symmetry number  1.
 Rotational temperature (Kelvin)      0.70088
 Rotational constant (GHZ):          14.603996
    1 imaginary frequencies ignored.
 Zero-point vibrational energy       4706.5 (Joules/Mol)
                                    1.12487 (Kcal/Mol)
 Warning -- explicit consideration of   3 degrees of freedom as
           vibrations may cause significant error
 Vibrational temperatures:    106.35   512.88   512.88
          (Kelvin)

 Zero-point correction=                           0.001793 (Hartree/Particle)
 Thermal correction to Energy=                    0.005647
 Thermal correction to Enthalpy=                  0.006591
 Thermal correction to Gibbs Free Energy=        -0.020388
 Sum of electronic and zero-point Energies=           -100.774306
 Sum of electronic and thermal Energies=              -100.770451
 Sum of electronic and thermal Enthalpies=            -100.769507
 Sum of electronic and thermal Free Energies=         -100.796486

                     E (Thermal)             CV                S
                      KCal/Mol        Cal/Mol-Kelvin    Cal/Mol-Kelvin
 Total                    3.544             10.058             56.782
 Electronic               0.000              0.000              1.377
 Translational            0.889              2.981             35.068
 Rotational               0.592              1.987             14.016
 Vibrational              2.062              5.090              6.321
 Vibration     1          0.599              1.966              4.046
 Vibration     2          0.732              1.562              1.137
 Vibration     3          0.732              1.562              1.137

 Normal termination of Gaussian 16 at Fri Aug 22 17:13:04 2025.
