 Gaussian 16, Revision C.01,
 Gaussian 16:  ES64L-G16RevC.01  3-Jul-2019

 -----------------------------------------
 # sp b3lyp/6-311g** Force nosymm scf=(qc)
 -----------------------------------------

 -------------------
 Title Card Required
 -------------------
 Symbolic Z-matrix:
 Charge =  0 Multiplicity = 2

                          Input orientation:
 ---------------------------------------------------------------------
 Center     Atomic      Atomic             Coordinates (Angstroms)
 Number     Number       Type             X           Y           Z
 ---------------------------------------------------------------------
      1          1           0        0.000000    0.000000    0.000000
      2          1           0       -2.950000    0.000000    0.000000
      3          9           0        0.750000    0.000000    0.000000
 ---------------------------------------------------------------------

 SCF Done:  E(UB3LYP) =  -100.922051642     a.u. after    6 cycles

 Alpha  occ. eigenvalues --  -24.63435  -1.25454  -0.57372  -0.41173  -0.41173
 Alpha  occ. eigenvalues --   -0.33962
 Alpha virt. eigenvalues --    0.06243   0.25438   0.49142   0.93943   0.93943
 Alpha virt. eigenvalues --    0.96508   1.22066   1.23568   1.23568   1.34460
 Alpha virt. eigenvalues --    1.41729   1.41729   2.00770   2.14797   2.67714

  Beta  occ. eigenvalues --  -24.63432  -1.25445  -0.57363  -0.41171  -0.41171
  Beta virt. eigenvalues --   -0.06578   0.07333   0.39073   0.49354   0.93943
  Beta virt. eigenvalues --    0.93943   0.96503   1.30814   1.41729   1.41729
  Beta virt. eigenvalues --    1.50345   1.50345   1.51400   2.00783   2.44167

 Mulliken charges and spin densities:
               1          2
     1  H    0.266204   0.001537
     2  H    0.002185   0.996985
     3  F   -0.268389   0.001479
 Sum of Mulliken charges =   0.00000   1.00000

 Dipole moment (field-independent basis, Debye):
    X=             -1.6886    Y=             -0.0000    Z=             -0.0000  Tot=              1.6886
 Quadrupole moment (field-independent basis, Debye-Ang):
   XX=             -7.3577   YY=             -6.7156   ZZ=             -6.7156
   XY=              0.0000   XZ=             -0.0000   YZ=              0.0000

  Exact polarizability:       5.013      -0.000       2.458      -0.000      -0.000       2.458
 Approx polarizability:       5.361       0.000       2.441       0.000      -0.000       2.441

 ******    3 imaginary frequencies (negative Signs) ******

                      1                      2                      3
                      A                      A                      A
 Frequencies --  -2694.4467             -2694.4467               -34.7138
 Red. masses --      1.0387                 1.0387                 1.0532
 Frc consts  --      4.4430                 4.4430                 0.0007
 IR Inten    --    198.9657               198.9657                 0.1283

                      4
                      A
 Frequencies --   7586.2972
 Red. masses --      1.0583
 Frc consts  --     35.8861
 IR Inten    --    113.6249

 - Thermochemistry -
 -------------------
 Temperature   298.150 Kelvin.  Pressure   1.00000 Atm.
 Atom     1 has atomic number  1 and mass   1.00783

 Molecular mass:    21.01405 amu.
 Principal axes and moments of inertia in atomic units:
                           1         2         3
     Eigenvalues --     0.00000  47.87682  47.87682
           X            1.00000  -0.00000   0.00000
           Y            0.00000   1.00000   0.00000
           Z            0.00000   0.00000   1.00000
 This molecule is a prolate symmetric top.
 Rotational symmetry number  1.
 Rotational temperature (Kelvin)      1.80910
 Rotational constant (GHZ):          37.695511
    3 imaginary frequencies ignored.
 Zero-point vibrational energy      45376.1 (Joules/Mol)
                                   10.84516 (Kcal/Mol)
 Vibrational temperatures:  10914.99
          (Kelvin)

 Zero-point correction=                           0.017283 (Hartree/Particle)
 Thermal correction to Energy=                    0.019643
 Thermal correction to Enthalpy=                  0.020588
 Thermal correction to Gibbs Free Energy=        -0.002493
 Sum of electronic and zero-point Energies=           -100.904769
 Sum of electronic and thermal Energies=              -100.902408
 Sum of electronic and thermal Enthalpies=            -100.901464
 Sum of electronic and thermal Free Energies=         -100.924545

                     E (Thermal)             CV                S
                      KCal/Mol        Cal/Mol-Kelvin    Cal/Mol-Kelvin
 Total                   12.326              4.968             48.577
 Electronic               0.000              0.000              1.377
 Translational            0.889              2.981             35.068
 Rotational               0.592              1.987             12.131
 Vibrational             10.845              0.000              0.000

 Normal termination of Gaussian 16 at Fri Aug 22 15:49:22 2025.
