 Gaussian 16, Revision C.01,
 Gaussian 16:  ES64L-G16RevC.01  3-Jul-2019

 -----------------------------------------
 # sp b3lyp/6-311g** Force nosymm scf=(qc)
 -----------------------------------------

 -------------------
 Title Card Required
 -------------------
 Symbolic Z-matrix:
 Charge =  0 Multiplicity = 2

                          Input orientation:
 ---------------------------------------------------------------------
 Center     Atomic      Atomic             Coordinates (Angstroms)
 Number     Number       Type             X           Y           Z
 ---------------------------------------------------------------------
      1          1           0        0.000000    0.000000    0.000000
      2          1           0       -1.900000    0.000000    0.000000
      3          9           0        2.850000    0.000000    0.000000
 ---------------------------------------------------------------------

 SCF Done:  E(UB3LYP) =  -100.782235907     a.u. after   25 cycles

 Alpha  occ. eigenvalues --  -24.73854  -1.19925  -0.52974  -0.44478  -0.44478
 Alpha  occ. eigenvalues --   -0.34149
 Alpha virt. eigenvalues --   -0.12055   0.25227   0.31382   0.90090   0.92410
 Alpha virt. eigenvalues --    0.92410   1.04752   1.13436   1.23738   1.23738
 Alpha virt. eigenvalues --    1.36059   1.36059   1.54470   2.12465   2.37725

  Beta  occ. eigenvalues --  -24.70851  -1.11325  -0.41474  -0.41474  -0.34189
  Beta virt. eigenvalues --   -0.24756  -0.11462   0.26101   0.31596   0.93860
  Beta virt. eigenvalues --    0.93860   0.98503   1.08296   1.14134   1.23676
  Beta virt. eigenvalues --    1.23676   1.36927   1.36927   1.55154   2.13611

 Mulliken charges and spin densities:
               1          2
     1  H    0.021558  -0.761853
     2  H    0.021050   0.810675
     3  F   -0.042609   0.951178
 Sum of Mulliken charges =   0.00000   1.00000

 Dipole moment (field-independent basis, Debye):
    X=             -0.8127    Y=             -0.0000    Z=             -0.0000  Tot=              0.8127
 Quadrupole moment (field-independent basis, Debye-Ang):
   XX=             -7.3985   YY=             -7.7129   ZZ=             -7.7129
   XY=             -0.0000   XZ=              0.0000   YZ=              0.0000

  Exact polarizability:      62.046      -0.000       2.005       0.000       0.000       2.005
 Approx polarizability:      62.684      -0.000       1.939       0.000      -0.000       1.939

 ******    2 imaginary frequencies (negative Signs) ******

                      1                      2                      3
                      A                      A                      A
 Frequencies --  -1555.1190              -276.1810               648.1752
 Red. masses --      1.0080                 1.1082                 1.0138
 Frc consts  --      1.4363                 0.0498                 0.2509
 IR Inten    --     70.3543                36.5956                 0.1420

                      4
                      A
 Frequencies --    648.1752
 Red. masses --      1.0138
 Frc consts  --      0.2509
 IR Inten    --      0.1420

 - Thermochemistry -
 -------------------
 Temperature   298.150 Kelvin.  Pressure   1.00000 Atm.
 Atom     1 has atomic number  1 and mass   1.00783

 Molecular mass:    21.01405 amu.
 Principal axes and moments of inertia in atomic units:
                           1         2         3
     Eigenvalues --     0.00000 100.46580 100.46580
           X            1.00000  -0.00000   0.00000
           Y            0.00000   1.00000   0.00000
           Z            0.00000   0.00000   1.00000
 This molecule is a prolate symmetric top.
 Rotational symmetry number  1.
 Rotational temperature (Kelvin)      0.86212
 Rotational constant (GHZ):          17.963737
    2 imaginary frequencies ignored.
 Zero-point vibrational energy       7753.9 (Joules/Mol)
                                    1.85323 (Kcal/Mol)
 Vibrational temperatures:    932.58   932.58
          (Kelvin)

 Zero-point correction=                           0.002953 (Hartree/Particle)
 Thermal correction to Energy=                    0.005584
 Thermal correction to Enthalpy=                  0.006529
 Thermal correction to Gibbs Free Energy=        -0.017607
 Sum of electronic and zero-point Energies=           -100.779283
 Sum of electronic and thermal Energies=              -100.776652
 Sum of electronic and thermal Enthalpies=            -100.775707
 Sum of electronic and thermal Free Energies=         -100.799843

                     E (Thermal)             CV                S
                      KCal/Mol        Cal/Mol-Kelvin    Cal/Mol-Kelvin
 Total                    3.504              6.831             50.797
 Electronic               0.000              0.000              1.377
 Translational            0.889              2.981             35.068
 Rotational               0.592              1.987             13.604
 Vibrational              2.023              1.863              0.748

 Normal termination of Gaussian 16 at Fri Aug 22 18:53:10 2025.
