 Gaussian 16, Revision C.01,
 Gaussian 16:  ES64L-G16RevC.01  3-Jul-2019

 -----------------------------------------
 # sp b3lyp/6-311g** Force nosymm scf=(qc)
 -----------------------------------------

 -------------------
 Title Card Required
 -------------------
 Symbolic Z-matrix:
 Charge =  0 Multiplicity = 2

                          Input orientation:
 ---------------------------------------------------------------------
 Center     Atomic      Atomic             Coordinates (Angstroms)
 Number     Number       Type             X           Y           Z
 ---------------------------------------------------------------------
      1          1           0        0.000000    0.000000    0.000000
      2          1           0       -2.400000    0.000000    0.000000
      3          9           0        3.150000    0.000000    0.000000
 ---------------------------------------------------------------------

 SCF Done:  E(UB3LYP) =  -100.765232147     a.u. after   24 cycles

 Alpha  occ. eigenvalues --  -24.74672  -1.20686  -0.53791  -0.45165  -0.45165
 Alpha  occ. eigenvalues --   -0.33016
 Alpha virt. eigenvalues --   -0.10430   0.25565   0.33473   0.88952   0.91920
 Alpha virt. eigenvalues --    0.91920   1.03108   1.24684   1.24684   1.26118
 Alpha virt. eigenvalues --    1.39815   1.39815   1.42375   2.15087   2.36101

  Beta  occ. eigenvalues --  -24.71607  -1.11891  -0.42095  -0.42095  -0.33504
  Beta virt. eigenvalues --   -0.25122  -0.09561   0.25585   0.34523   0.93394
  Beta virt. eigenvalues --    0.93394   0.97877   1.07058   1.24081   1.24081
  Beta virt. eigenvalues --    1.25361   1.41204   1.41204   1.43739   2.16097

 Mulliken charges and spin densities:
               1          2
     1  H    0.019927  -0.931668
     2  H    0.005532   0.960122
     3  F   -0.025459   0.971546
 Sum of Mulliken charges =  -0.00000   1.00000

 Dipole moment (field-independent basis, Debye):
    X=             -0.4749    Y=             -0.0000    Z=             -0.0000  Tot=              0.4749
 Quadrupole moment (field-independent basis, Debye-Ang):
   XX=             -7.5776   YY=             -7.6673   ZZ=             -7.6673
   XY=             -0.0000   XZ=             -0.0000   YZ=             -0.0000

  Exact polarizability:      44.588      -0.000       2.014      -0.000      -0.000       2.014
 Approx polarizability:      37.175      -0.000       1.924      -0.000       0.000       1.924

 ******    2 imaginary frequencies (negative Signs) ******

                      1                      2                      3
                      A                      A                      A
 Frequencies --   -786.3072              -204.2619               294.7521
 Red. masses --      1.0085                 1.1077                 1.0150
 Frc consts  --      0.3674                 0.0272                 0.0520
 IR Inten    --     16.4073                16.7451                 0.2778

                      4
                      A
 Frequencies --    294.7521
 Red. masses --      1.0150
 Frc consts  --      0.0520
 IR Inten    --      0.2778

 - Thermochemistry -
 -------------------
 Temperature   298.150 Kelvin.  Pressure   1.00000 Atm.
 Atom     1 has atomic number  1 and mass   1.00783

 Molecular mass:    21.01405 amu.
 Principal axes and moments of inertia in atomic units:
                           1         2         3
     Eigenvalues --     0.00000 133.50501 133.50501
           X            1.00000  -0.00000   0.00000
           Y            0.00000   1.00000   0.00000
           Z            0.00000   0.00000   1.00000
 This molecule is a prolate symmetric top.
 Rotational symmetry number  1.
 Rotational temperature (Kelvin)      0.64877
 Rotational constant (GHZ):          13.518154
    2 imaginary frequencies ignored.
 Zero-point vibrational energy       3526.0 (Joules/Mol)
                                    0.84274 (Kcal/Mol)
 Warning -- explicit consideration of   2 degrees of freedom as
           vibrations may cause significant error
 Vibrational temperatures:    424.08   424.08
          (Kelvin)

 Zero-point correction=                           0.001343 (Hartree/Particle)
 Thermal correction to Energy=                    0.004557
 Thermal correction to Enthalpy=                  0.005501
 Thermal correction to Gibbs Free Energy=        -0.019922
 Sum of electronic and zero-point Energies=           -100.763889
 Sum of electronic and thermal Energies=              -100.760675
 Sum of electronic and thermal Enthalpies=            -100.759731
 Sum of electronic and thermal Free Energies=         -100.785154

                     E (Thermal)             CV                S
                      KCal/Mol        Cal/Mol-Kelvin    Cal/Mol-Kelvin
 Total                    2.860              8.335             53.508
 Electronic               0.000              0.000              1.377
 Translational            0.889              2.981             35.068
 Rotational               0.592              1.987             14.169
 Vibrational              1.378              3.367              2.893
 Vibration     1          0.689              1.684              1.447
 Vibration     2          0.689              1.684              1.447

 Normal termination of Gaussian 16 at Fri Aug 22 20:10:28 2025.
