 Gaussian 16, Revision C.01,
 Gaussian 16:  ES64L-G16RevC.01  3-Jul-2019

 -----------------------------------------
 # sp b3lyp/6-311g** Force nosymm scf=(qc)
 -----------------------------------------

 -------------------
 Title Card Required
 -------------------
 Symbolic Z-matrix:
 Charge =  0 Multiplicity = 2

                          Input orientation:
 ---------------------------------------------------------------------
 Center     Atomic      Atomic             Coordinates (Angstroms)
 Number     Number       Type             X           Y           Z
 ---------------------------------------------------------------------
      1          1           0        0.000000    0.000000    0.000000
      2          1           0       -2.000000    0.000000    0.000000
      3          9           0        3.300000    0.000000    0.000000
 ---------------------------------------------------------------------

 SCF Done:  E(UB3LYP) =  -100.775022360     a.u. after   28 cycles

 Alpha  occ. eigenvalues --  -24.75224  -1.21198  -0.54345  -0.45633  -0.45633
 Alpha  occ. eigenvalues --   -0.33290
 Alpha virt. eigenvalues --   -0.11244   0.25749   0.32027   0.88354   0.91570
 Alpha virt. eigenvalues --    0.91570   1.02387   1.16944   1.24682   1.24682
 Alpha virt. eigenvalues --    1.37521   1.37521   1.50924   2.12931   2.36668

  Beta  occ. eigenvalues --  -24.72126  -1.12300  -0.42528  -0.42528  -0.33387
  Beta virt. eigenvalues --   -0.25455  -0.10882   0.25772   0.32569   0.93053
  Beta virt. eigenvalues --    0.93053   0.97390   1.06387   1.16908   1.24543
  Beta virt. eigenvalues --    1.24543   1.38045   1.38045   1.51323   2.13771

 Mulliken charges and spin densities:
               1          2
     1  H    0.006758  -0.840871
     2  H    0.008810   0.858766
     3  F   -0.015568   0.982105
 Sum of Mulliken charges =   0.00000   1.00000

 Dipole moment (field-independent basis, Debye):
    X=             -0.3470    Y=              0.0000    Z=             -0.0000  Tot=              0.3470
 Quadrupole moment (field-independent basis, Debye-Ang):
   XX=             -6.8523   YY=             -7.7224   ZZ=             -7.7224
   XY=              0.0000   XZ=             -0.0000   YZ=              0.0000

  Exact polarizability:      50.733       0.000       2.011      -0.000      -0.000       2.011
 Approx polarizability:      44.158       0.000       1.936      -0.000      -0.000       1.936

 ******    2 imaginary frequencies (negative Signs) ******

                      1                      2                      3
                      A                      A                      A
 Frequencies --  -1359.1340              -173.1452               551.2328
 Red. masses --      1.0079                 1.1085                 1.0130
 Frc consts  --      1.0969                 0.0196                 0.1814
 IR Inten    --     20.0508                13.6908                 0.0085

                      4
                      A
 Frequencies --    551.2328
 Red. masses --      1.0130
 Frc consts  --      0.1814
 IR Inten    --      0.0085

 - Thermochemistry -
 -------------------
 Temperature   298.150 Kelvin.  Pressure   1.00000 Atm.
 Atom     1 has atomic number  1 and mass   1.00783

 Molecular mass:    21.01405 amu.
 Principal axes and moments of inertia in atomic units:
                           1         2         3
     Eigenvalues --     0.00000 127.52335 127.52335
           X            1.00000  -0.00000   0.00000
           Y            0.00000   1.00000   0.00000
           Z            0.00000   0.00000   1.00000
 This molecule is a prolate symmetric top.
 Rotational symmetry number  1.
 Rotational temperature (Kelvin)      0.67920
 Rotational constant (GHZ):          14.152242
    2 imaginary frequencies ignored.
 Zero-point vibrational energy       6594.2 (Joules/Mol)
                                    1.57605 (Kcal/Mol)
 Warning -- explicit consideration of   2 degrees of freedom as
           vibrations may cause significant error
 Vibrational temperatures:    793.10   793.10
          (Kelvin)

 Zero-point correction=                           0.002512 (Hartree/Particle)
 Thermal correction to Energy=                    0.005250
 Thermal correction to Enthalpy=                  0.006194
 Thermal correction to Gibbs Free Energy=        -0.018326
 Sum of electronic and zero-point Energies=           -100.772511
 Sum of electronic and thermal Energies=              -100.769773
 Sum of electronic and thermal Enthalpies=            -100.768828
 Sum of electronic and thermal Free Energies=         -100.793348

                     E (Thermal)             CV                S
                      KCal/Mol        Cal/Mol-Kelvin    Cal/Mol-Kelvin
 Total                    3.294              7.242             51.607
 Electronic               0.000              0.000              1.377
 Translational            0.889              2.981             35.068
 Rotational               0.592              1.987             14.078
 Vibrational              1.813              2.274              1.083
 Vibration     1          0.907              1.137              0.542
 Vibration     2          0.907              1.137              0.542

 Normal termination of Gaussian 16 at Fri Aug 22 20:48:09 2025.
