 Gaussian 16, Revision C.01,
 Gaussian 16:  ES64L-G16RevC.01  3-Jul-2019

 -----------------------------------------
 # sp b3lyp/6-311g** Force nosymm scf=(qc)
 -----------------------------------------

 -------------------
 Title Card Required
 -------------------
 Symbolic Z-matrix:
 Charge =  0 Multiplicity = 2

                          Input orientation:
 ---------------------------------------------------------------------
 Center     Atomic      Atomic             Coordinates (Angstroms)
 Number     Number       Type             X           Y           Z
 ---------------------------------------------------------------------
      1          1           0        0.000000    0.000000    0.000000
      2          1           0       -2.550000    0.000000    0.000000
      3          9           0        3.650000    0.000000    0.000000
 ---------------------------------------------------------------------

 SCF Done:  E(UB3LYP) =  -100.762246080     a.u. after   29 cycles

 Alpha  occ. eigenvalues --  -24.75650  -1.21593  -0.54773  -0.45990  -0.45990
 Alpha  occ. eigenvalues --   -0.32581
 Alpha virt. eigenvalues --   -0.09215   0.25677   0.34675   0.87173   0.91313
 Alpha virt. eigenvalues --    0.91313   1.01457   1.25051   1.25051   1.26615
 Alpha virt. eigenvalues --    1.41846   1.41846   1.43138   2.15918   2.37151

  Beta  occ. eigenvalues --  -24.72520  -1.12598  -0.42852  -0.42852  -0.32821
  Beta virt. eigenvalues --   -0.25629  -0.08847   0.25480   0.35217   0.92807
  Beta virt. eigenvalues --    0.92807   0.96429   1.05535   1.24772   1.24772
  Beta virt. eigenvalues --    1.26288   1.42405   1.42405   1.43695   2.16238

 Mulliken charges and spin densities:
               1          2
     1  H    0.005373  -0.966126
     2  H    0.001508   0.973871
     3  F   -0.006881   0.992255
 Sum of Mulliken charges =   0.00000   1.00000

 Dipole moment (field-independent basis, Debye):
    X=             -0.1474    Y=              0.0000    Z=              0.0000  Tot=              0.1474
 Quadrupole moment (field-independent basis, Debye-Ang):
   XX=             -6.9582   YY=             -7.6620   ZZ=             -7.6620
   XY=             -0.0000   XZ=             -0.0000   YZ=              0.0000

  Exact polarizability:      27.484       0.000       2.015       0.000       0.000       2.015
 Approx polarizability:      20.343      -0.000       1.930      -0.000      -0.000       1.930

 ******    2 imaginary frequencies (negative Signs) ******

                      1                      2                      3
                      A                      A                      A
 Frequencies --   -620.8102              -116.0795               228.0063
 Red. masses --      1.0080                 1.1083                 1.0142
 Frc consts  --      0.2289                 0.0088                 0.0311
 IR Inten    --      3.2514                 3.3796                 0.0229

                      4
                      A
 Frequencies --    228.0064
 Red. masses --      1.0142
 Frc consts  --      0.0311
 IR Inten    --      0.0229

 - Thermochemistry -
 -------------------
 Temperature   298.150 Kelvin.  Pressure   1.00000 Atm.
 Atom     1 has atomic number  1 and mass   1.00783

 Molecular mass:    21.01405 amu.
 Principal axes and moments of inertia in atomic units:
                           1         2         3
     Eigenvalues --     0.00000 169.54693 169.54693
           X            1.00000  -0.00000   0.00000
           Y            0.00000   1.00000   0.00000
           Z            0.00000   0.00000   1.00000
 This molecule is a prolate symmetric top.
 Rotational symmetry number  1.
 Rotational temperature (Kelvin)      0.51086
 Rotational constant (GHZ):          10.644494
    2 imaginary frequencies ignored.
 Zero-point vibrational energy       2727.6 (Joules/Mol)
                                    0.65190 (Kcal/Mol)
 Warning -- explicit consideration of   2 degrees of freedom as
           vibrations may cause significant error
 Vibrational temperatures:    328.05   328.05
          (Kelvin)

 Zero-point correction=                           0.001039 (Hartree/Particle)
 Thermal correction to Energy=                    0.004436
 Thermal correction to Enthalpy=                  0.005380
 Thermal correction to Gibbs Free Energy=        -0.020695
 Sum of electronic and zero-point Energies=           -100.761207
 Sum of electronic and thermal Energies=              -100.757810
 Sum of electronic and thermal Enthalpies=            -100.756866
 Sum of electronic and thermal Free Energies=         -100.782941

                     E (Thermal)             CV                S
                      KCal/Mol        Cal/Mol-Kelvin    Cal/Mol-Kelvin
 Total                    2.783              8.565             54.879
 Electronic               0.000              0.000              1.377
 Translational            0.889              2.981             35.068
 Rotational               0.592              1.987             14.644
 Vibrational              1.302              3.597              3.789
 Vibration     1          0.651              1.798              1.895
 Vibration     2          0.651              1.798              1.895

 Normal termination of Gaussian 16 at Fri Aug 22 23:36:37 2025.
