 Gaussian 16, Revision C.01,
 Gaussian 16:  ES64L-G16RevC.01  3-Jul-2019

 -----------------------------------------
 # sp b3lyp/6-311g** Force nosymm scf=(qc)
 -----------------------------------------

 -------------------
 Title Card Required
 -------------------
 Symbolic Z-matrix:
 Charge =  0 Multiplicity = 2

                          Input orientation:
 ---------------------------------------------------------------------
 Center     Atomic      Atomic             Coordinates (Angstroms)
 Number     Number       Type             X           Y           Z
 ---------------------------------------------------------------------
      1          1           0        0.000000    0.000000    0.000000
      2          1           0       -2.450000    0.000000    0.000000
      3          9           0        1.300000    0.000000    0.000000
 ---------------------------------------------------------------------

 SCF Done:  E(UB3LYP) =  -100.902300958     a.u. after    7 cycles

 Alpha  occ. eigenvalues --  -24.64083  -1.10924  -0.46017  -0.36832  -0.36832
 Alpha  occ. eigenvalues --   -0.35575
 Alpha virt. eigenvalues --   -0.07981   0.24046   0.27266   0.93246   0.93246
 Alpha virt. eigenvalues --    1.02212   1.18702   1.21933   1.21933   1.28988
 Alpha virt. eigenvalues --    1.34130   1.34130   1.72102   2.12869   2.25888

  Beta  occ. eigenvalues --  -24.64003  -1.10720  -0.45695  -0.36758  -0.36758
  Beta virt. eigenvalues --   -0.12945  -0.04554   0.26903   0.35953   0.93234
  Beta virt. eigenvalues --    0.93234   1.02400   1.22566   1.33906   1.33906
  Beta virt. eigenvalues --    1.42737   1.42737   1.44845   1.72420   2.25033

 Mulliken charges and spin densities:
               1          2
     1  H    0.347991  -0.007316
     2  H    0.014202   0.982636
     3  F   -0.362193   0.024680
 Sum of Mulliken charges =  -0.00000   1.00000

 Dipole moment (field-independent basis, Debye):
    X=             -2.5750    Y=             -0.0000    Z=             -0.0000  Tot=              2.5750
 Quadrupole moment (field-independent basis, Debye-Ang):
   XX=             -8.7835   YY=             -7.1944   ZZ=             -7.1944
   XY=             -0.0000   XZ=             -0.0000   YZ=              0.0000

  Exact polarizability:      15.608       0.000       2.303      -0.000      -0.000       2.303
 Approx polarizability:      21.420       0.000       2.251       0.000      -0.000       2.251

 ******    2 imaginary frequencies (negative Signs) ******

                      1                      2                      3
                      A                      A                      A
 Frequencies --   -759.0415              -163.0587              1135.2076
 Red. masses --      1.0394                 1.0727                 1.0271
 Frc consts  --      0.3528                 0.0168                 0.7799
 IR Inten    --    138.1191                 0.0307               117.8806

                      4
                      A
 Frequencies --   1135.2076
 Red. masses --      1.0271
 Frc consts  --      0.7799
 IR Inten    --    117.8806

 - Thermochemistry -
 -------------------
 Temperature   298.150 Kelvin.  Pressure   1.00000 Atm.
 Atom     1 has atomic number  1 and mass   1.00783

 Molecular mass:    21.01405 amu.
 Principal axes and moments of inertia in atomic units:
                           1         2         3
     Eigenvalues --     0.00000  52.29147  52.29147
           X            1.00000  -0.00000   0.00000
           Y            0.00000   1.00000   0.00000
           Z            0.00000   0.00000   1.00000
 This molecule is a prolate symmetric top.
 Rotational symmetry number  1.
 Rotational temperature (Kelvin)      1.65637
 Rotational constant (GHZ):          34.513106
    2 imaginary frequencies ignored.
 Zero-point vibrational energy      13580.1 (Joules/Mol)
                                    3.24572 (Kcal/Mol)
 Vibrational temperatures:   1633.31  1633.31
          (Kelvin)

 Zero-point correction=                           0.005172 (Hartree/Particle)
 Thermal correction to Energy=                    0.007576
 Thermal correction to Enthalpy=                  0.008520
 Thermal correction to Gibbs Free Energy=        -0.014695
 Sum of electronic and zero-point Energies=           -100.897129
 Sum of electronic and thermal Energies=              -100.894725
 Sum of electronic and thermal Enthalpies=            -100.893781
 Sum of electronic and thermal Free Energies=         -100.916996

                     E (Thermal)             CV                S
                      KCal/Mol        Cal/Mol-Kelvin    Cal/Mol-Kelvin
 Total                    4.754              5.470             48.860
 Electronic               0.000              0.000              1.377
 Translational            0.889              2.981             35.068
 Rotational               0.592              1.987             12.307
 Vibrational              3.273              0.502              0.108

 Normal termination of Gaussian 16 at Fri Aug 22 16:15:22 2025.
