 Gaussian 16, Revision C.01,
 Gaussian 16:  ES64L-G16RevC.01  3-Jul-2019

 -----------------------------------------
 # sp b3lyp/6-311g** Force nosymm scf=(qc)
 -----------------------------------------

 -------------------
 Title Card Required
 -------------------
 Symbolic Z-matrix:
 Charge =  0 Multiplicity = 2

                          Input orientation:
 ---------------------------------------------------------------------
 Center     Atomic      Atomic             Coordinates (Angstroms)
 Number     Number       Type             X           Y           Z
 ---------------------------------------------------------------------
      1          1           0        0.000000    0.000000    0.000000
      2          1           0       -3.300000    0.000000    0.000000
      3          9           0        3.750000    0.000000    0.000000
 ---------------------------------------------------------------------

 SCF Done:  E(UB3LYP) =  -100.759030098     a.u. after   32 cycles

 Alpha  occ. eigenvalues --  -24.75712  -1.21651  -0.54836  -0.46041  -0.46041
 Alpha  occ. eigenvalues --   -0.32315
 Alpha virt. eigenvalues --   -0.07134   0.24574   0.37099   0.86956   0.91276
 Alpha virt. eigenvalues --    0.91276   1.01328   1.25197   1.25197   1.25493
 Alpha virt. eigenvalues --    1.44955   1.45180   1.45180   2.15360   2.40576

  Beta  occ. eigenvalues --  -24.72578  -1.12640  -0.42899  -0.42899  -0.32604
  Beta virt. eigenvalues --   -0.25650  -0.06809   0.24381   0.37611   0.92772
  Beta virt. eigenvalues --    0.92772   0.96237   1.05414   1.24874   1.24874
  Beta virt. eigenvalues --    1.25150   1.45468   1.45690   1.45690   2.15445

 Mulliken charges and spin densities:
               1          2
     1  H    0.005310  -0.990388
     2  H    0.000184   0.996477
     3  F   -0.005494   0.993911
 Sum of Mulliken charges =   0.00000   1.00000

 Dipole moment (field-independent basis, Debye):
    X=             -0.1092    Y=             -0.0000    Z=             -0.0000  Tot=              0.1092
 Quadrupole moment (field-independent basis, Debye-Ang):
   XX=             -7.0681   YY=             -7.6270   ZZ=             -7.6270
   XY=             -0.0000   XZ=             -0.0000   YZ=              0.0000

  Exact polarizability:      17.472      -0.000       2.029      -0.000       0.000       2.029
 Approx polarizability:      12.959      -0.000       1.935      -0.000      -0.000       1.935

 ******    2 imaginary frequencies (negative Signs) ******

                      1                      2                      3
                      A                      A                      A
 Frequencies --   -249.5901               -94.1304                85.0647
 Red. masses --      1.0117                 1.1039                 1.0165
 Frc consts  --      0.0371                 0.0058                 0.0043
 IR Inten    --      2.8525                 1.3805                 0.0266

                      4
                      A
 Frequencies --     85.0648
 Red. masses --      1.0165
 Frc consts  --      0.0043
 IR Inten    --      0.0266

 - Thermochemistry -
 -------------------
 Temperature   298.150 Kelvin.  Pressure   1.00000 Atm.
 Atom     1 has atomic number  1 and mass   1.00783

 Molecular mass:    21.01405 amu.
 Principal axes and moments of inertia in atomic units:
                           1         2         3
     Eigenvalues --     0.00000 209.35791 209.35791
           X            1.00000  -0.00000   0.00000
           Y            0.00000   1.00000   0.00000
           Z            0.00000   0.00000   1.00000
 This molecule is a prolate symmetric top.
 Rotational symmetry number  1.
 Rotational temperature (Kelvin)      0.41371
 Rotational constant (GHZ):           8.620363
    2 imaginary frequencies ignored.
 Zero-point vibrational energy       1017.6 (Joules/Mol)
                                    0.24321 (Kcal/Mol)
 Warning -- explicit consideration of   2 degrees of freedom as
           vibrations may cause significant error
 Vibrational temperatures:    122.39   122.39
          (Kelvin)

 Zero-point correction=                           0.000388 (Hartree/Particle)
 Thermal correction to Energy=                    0.004275
 Thermal correction to Enthalpy=                  0.005219
 Thermal correction to Gibbs Free Energy=        -0.022837
 Sum of electronic and zero-point Energies=           -100.758643
 Sum of electronic and thermal Energies=              -100.754755
 Sum of electronic and thermal Enthalpies=            -100.753811
 Sum of electronic and thermal Free Energies=         -100.781867

                     E (Thermal)             CV                S
                      KCal/Mol        Cal/Mol-Kelvin    Cal/Mol-Kelvin
 Total                    2.683              8.887             59.050
 Electronic               0.000              0.000              1.377
 Translational            0.889              2.981             35.068
 Rotational               0.592              1.987             15.063
 Vibrational              1.202              3.919              7.541
 Vibration     1          0.601              1.960              3.770
 Vibration     2          0.601              1.960              3.770

 Normal termination of Gaussian 16 at Sat Aug 23 00:27:23 2025.
