 Gaussian 16, Revision C.01,
 Gaussian 16:  ES64L-G16RevC.01  3-Jul-2019

 -----------------------------------------
 # sp b3lyp/6-311g** Force nosymm scf=(qc)
 -----------------------------------------

 -------------------
 Title Card Required
 -------------------
 Symbolic Z-matrix:
 Charge =  0 Multiplicity = 2

                          Input orientation:
 ---------------------------------------------------------------------
 Center     Atomic      Atomic             Coordinates (Angstroms)
 Number     Number       Type             X           Y           Z
 ---------------------------------------------------------------------
      1          1           0        0.000000    0.000000    0.000000
      2          1           0       -3.600000    0.000000    0.000000
      3          9           0        3.800000    0.000000    0.000000
 ---------------------------------------------------------------------

 SCF Done:  E(UB3LYP) =  -100.758676156     a.u. after   36 cycles

 Alpha  occ. eigenvalues --  -24.75752  -1.21688  -0.54876  -0.46075  -0.46075
 Alpha  occ. eigenvalues --   -0.32270
 Alpha virt. eigenvalues --   -0.06576   0.24286   0.37580   0.86856   0.91252
 Alpha virt. eigenvalues --    0.91252   1.01265   1.25231   1.25231   1.25336
 Alpha virt. eigenvalues --    1.45653   1.45860   1.45860   2.14947   2.41489

  Beta  occ. eigenvalues --  -24.72614  -1.12668  -0.42929  -0.42929  -0.32547
  Beta virt. eigenvalues --   -0.25668  -0.06292   0.24096   0.38064   0.92749
  Beta virt. eigenvalues --    0.92749   0.96159   1.05360   1.24925   1.24925
  Beta virt. eigenvalues --    1.25013   1.46104   1.46312   1.46312   2.14984

 Mulliken charges and spin densities:
               1          2
     1  H    0.004667  -0.993081
     2  H    0.000075   0.998328
     3  F   -0.004742   0.994753
 Sum of Mulliken charges =  -0.00000   1.00000

 Dipole moment (field-independent basis, Debye):
    X=             -0.0943    Y=              0.0000    Z=             -0.0000  Tot=              0.0943
 Quadrupole moment (field-independent basis, Debye-Ang):
   XX=             -7.0514   YY=             -7.6221   ZZ=             -7.6221
   XY=              0.0000   XZ=             -0.0000   YZ=             -0.0000

  Exact polarizability:      15.221      -0.000       2.031      -0.000      -0.000       2.031
 Approx polarizability:      11.248       0.000       1.936      -0.000       0.000       1.936

 ******    2 imaginary frequencies (negative Signs) ******

                      1                      2                      3
                      A                      A                      A
 Frequencies --   -190.9858               -80.5421                62.1982
 Red. masses --      1.0179                 1.0966                 1.0173
 Frc consts  --      0.0219                 0.0042                 0.0023
 IR Inten    --      2.6713                 0.7086                 0.0212

                      4
                      A
 Frequencies --     62.1982
 Red. masses --      1.0173
 Frc consts  --      0.0023
 IR Inten    --      0.0212

 - Thermochemistry -
 -------------------
 Temperature   298.150 Kelvin.  Pressure   1.00000 Atm.
 Atom     1 has atomic number  1 and mass   1.00783

 Molecular mass:    21.01405 amu.
 Principal axes and moments of inertia in atomic units:
                           1         2         3
     Eigenvalues --     0.00000 227.39958 227.39958
           X            1.00000  -0.00000   0.00000
           Y            0.00000   1.00000   0.00000
           Z            0.00000   0.00000   1.00000
 This molecule is a prolate symmetric top.
 Rotational symmetry number  1.
 Rotational temperature (Kelvin)      0.38089
 Rotational constant (GHZ):           7.936432
    2 imaginary frequencies ignored.
 Zero-point vibrational energy        744.1 (Joules/Mol)
                                    0.17783 (Kcal/Mol)
 Warning -- explicit consideration of   2 degrees of freedom as
           vibrations may cause significant error
 Vibrational temperatures:     89.49    89.49
          (Kelvin)

 Zero-point correction=                           0.000283 (Hartree/Particle)
 Thermal correction to Energy=                    0.004263
 Thermal correction to Enthalpy=                  0.005207
 Thermal correction to Gibbs Free Energy=        -0.023512
 Sum of electronic and zero-point Energies=           -100.758393
 Sum of electronic and thermal Energies=              -100.754413
 Sum of electronic and thermal Enthalpies=            -100.753469
 Sum of electronic and thermal Free Energies=         -100.782189

                     E (Thermal)             CV                S
                      KCal/Mol        Cal/Mol-Kelvin    Cal/Mol-Kelvin
 Total                    2.675              8.913             60.445
 Electronic               0.000              0.000              1.377
 Translational            0.889              2.981             35.068
 Rotational               0.592              1.987             15.228
 Vibrational              1.194              3.945              8.772
 Vibration     1          0.597              1.972              4.386
 Vibration     2          0.597              1.972              4.386

 Normal termination of Gaussian 16 at Sat Aug 23 00:52:26 2025.
