 Gaussian 16, Revision C.01,
 Gaussian 16:  ES64L-G16RevC.01  3-Jul-2019

 -----------------------------------------
 # sp b3lyp/6-311g** Force nosymm scf=(qc)
 -----------------------------------------

 -------------------
 Title Card Required
 -------------------
 Symbolic Z-matrix:
 Charge =  0 Multiplicity = 2

                          Input orientation:
 ---------------------------------------------------------------------
 Center     Atomic      Atomic             Coordinates (Angstroms)
 Number     Number       Type             X           Y           Z
 ---------------------------------------------------------------------
      1          1           0        0.000000    0.000000    0.000000
      2          1           0       -3.850000    0.000000    0.000000
      3          9           0        3.250000    0.000000    0.000000
 ---------------------------------------------------------------------

 SCF Done:  E(UB3LYP) =  -100.759592269     a.u. after   27 cycles

 Alpha  occ. eigenvalues --  -24.74846  -1.20850  -0.53967  -0.45312  -0.45312
 Alpha  occ. eigenvalues --   -0.32372
 Alpha virt. eigenvalues --   -0.07016   0.24022   0.36693   0.88451   0.91814
 Alpha virt. eigenvalues --    0.91814   1.02646   1.25125   1.25125   1.25162
 Alpha virt. eigenvalues --    1.45396   1.45396   1.45735   2.14548   2.41627

  Beta  occ. eigenvalues --  -24.71767  -1.12012  -0.42228  -0.42228  -0.33189
  Beta virt. eigenvalues --   -0.25196  -0.06015   0.23783   0.38144   0.93292
  Beta virt. eigenvalues --    0.93292   0.97399   1.06534   1.24185   1.24185
  Beta virt. eigenvalues --    1.24250   1.46485   1.46636   1.46636   2.14788

 Mulliken charges and spin densities:
               1          2
     1  H    0.021725  -0.975208
     2  H    0.000118   0.999115
     3  F   -0.021842   0.976092
 Sum of Mulliken charges =  -0.00000   1.00000

 Dipole moment (field-independent basis, Debye):
    X=             -0.3669    Y=             -0.0000    Z=             -0.0000  Tot=              0.3669
 Quadrupole moment (field-independent basis, Debye-Ang):
   XX=             -7.8468   YY=             -7.6138   ZZ=             -7.6138
   XY=             -0.0000   XZ=             -0.0000   YZ=             -0.0000

  Exact polarizability:      28.333      -0.000       2.031      -0.000      -0.000       2.031
 Approx polarizability:      25.433      -0.000       1.931      -0.000       0.000       1.931

 ******    2 imaginary frequencies (negative Signs) ******

                      1                      2                      3
                      A                      A                      A
 Frequencies --   -283.2459               -79.8462                90.6043
 Red. masses --      1.0491                 1.0626                 1.0201
 Frc consts  --      0.0496                 0.0040                 0.0049
 IR Inten    --     23.5823                 0.2121                 0.4430

                      4
                      A
 Frequencies --     90.6044
 Red. masses --      1.0201
 Frc consts  --      0.0049
 IR Inten    --      0.4430

 - Thermochemistry -
 -------------------
 Temperature   298.150 Kelvin.  Pressure   1.00000 Atm.
 Atom     1 has atomic number  1 and mass   1.00783

 Molecular mass:    21.01405 amu.
 Principal axes and moments of inertia in atomic units:
                           1         2         3
     Eigenvalues --     0.00000 200.95046 200.95046
           X            1.00000  -0.00000   0.00000
           Y            0.00000   1.00000   0.00000
           Z            0.00000   0.00000   1.00000
 This molecule is a prolate symmetric top.
 Rotational symmetry number  1.
 Rotational temperature (Kelvin)      0.43102
 Rotational constant (GHZ):           8.981025
    2 imaginary frequencies ignored.
 Zero-point vibrational energy       1083.9 (Joules/Mol)
                                    0.25905 (Kcal/Mol)
 Warning -- explicit consideration of   2 degrees of freedom as
           vibrations may cause significant error
 Vibrational temperatures:    130.36   130.36
          (Kelvin)

 Zero-point correction=                           0.000413 (Hartree/Particle)
 Thermal correction to Energy=                    0.004279
 Thermal correction to Enthalpy=                  0.005223
 Thermal correction to Gibbs Free Energy=        -0.022677
 Sum of electronic and zero-point Energies=           -100.759179
 Sum of electronic and thermal Energies=              -100.755313
 Sum of electronic and thermal Enthalpies=            -100.754369
 Sum of electronic and thermal Free Energies=         -100.782270

                     E (Thermal)             CV                S
                      KCal/Mol        Cal/Mol-Kelvin    Cal/Mol-Kelvin
 Total                    2.685              8.880             58.721
 Electronic               0.000              0.000              1.377
 Translational            0.889              2.981             35.068
 Rotational               0.592              1.987             14.982
 Vibrational              1.204              3.912              7.294
 Vibration     1          0.602              1.956              3.647
 Vibration     2          0.602              1.956              3.647

 Normal termination of Gaussian 16 at Fri Aug 22 20:36:38 2025.
