 Gaussian 16, Revision C.01,
 Gaussian 16:  ES64L-G16RevC.01  3-Jul-2019

 -----------------------------------------
 # sp b3lyp/6-311g** Force nosymm scf=(qc)
 -----------------------------------------

 -------------------
 Title Card Required
 -------------------
 Symbolic Z-matrix:
 Charge =  0 Multiplicity = 2

                          Input orientation:
 ---------------------------------------------------------------------
 Center     Atomic      Atomic             Coordinates (Angstroms)
 Number     Number       Type             X           Y           Z
 ---------------------------------------------------------------------
      1          1           0        0.000000    0.000000    0.000000
      2          1           0       -1.400000    0.000000    0.000000
      3          9           0        0.650000    0.000000    0.000000
 ---------------------------------------------------------------------

 SCF Done:  E(UB3LYP) =  -100.791045534     a.u. after    7 cycles

 Alpha  occ. eigenvalues --  -24.63184  -1.31890  -0.61031  -0.42643  -0.42643
 Alpha  occ. eigenvalues --   -0.35773
 Alpha virt. eigenvalues --    0.14327   0.21314   0.58543   0.92097   0.92097
 Alpha virt. eigenvalues --    0.93486   1.15915   1.15915   1.41795   1.53348
 Alpha virt. eigenvalues --    1.53348   1.63576   1.96639   2.22992   3.43009

  Beta  occ. eigenvalues --  -24.63037  -1.31448  -0.60205  -0.42533  -0.42533
  Beta virt. eigenvalues --   -0.12315   0.15426   0.29228   0.63410   0.92378
  Beta virt. eigenvalues --    0.92378   0.93816   1.28553   1.28553   1.44694
  Beta virt. eigenvalues --    1.58049   1.58049   1.74628   1.96669   2.45245

 Mulliken charges and spin densities:
               1          2
     1  H    0.241399   0.014048
     2  H    0.009400   0.967411
     3  F   -0.250799   0.018541
 Sum of Mulliken charges =   0.00000   1.00000

 Dipole moment (field-independent basis, Debye):
    X=             -1.5010    Y=             -0.0000    Z=              0.0000  Tot=              1.5010
 Quadrupole moment (field-independent basis, Debye-Ang):
   XX=             -7.0213   YY=             -6.5099   ZZ=             -6.5099
   XY=              0.0000   XZ=              0.0000   YZ=              0.0000

  Exact polarizability:       6.894      -0.000       2.536       0.000      -0.000       2.536
 Approx polarizability:       6.643      -0.000       2.556       0.000      -0.000       2.556

 ******    2 imaginary frequencies (negative Signs) ******

                      1                      2                      3
                      A                      A                      A
 Frequencies --  -4476.6171             -4476.6171              1032.3582
 Red. masses --      1.0293                 1.0293                 1.0536
 Frc consts  --     12.1527                12.1527                 0.6616
 IR Inten    --    156.3158               156.3158                 9.6420

                      4
                      A
 Frequencies --  10860.5912
 Red. masses --      1.0579
 Frc consts  --     73.5228
 IR Inten    --    121.3886

 - Thermochemistry -
 -------------------
 Temperature   298.150 Kelvin.  Pressure   1.00000 Atm.
 Atom     1 has atomic number  1 and mass   1.00783

 Molecular mass:    21.01405 amu.
 Principal axes and moments of inertia in atomic units:
                           1         2         3
     Eigenvalues --     0.00000  15.38711  15.38711
           X            1.00000  -0.00000   0.00000
           Y            0.00000   1.00000   0.00000
           Z            0.00000   0.00000   1.00000
 This molecule is a prolate symmetric top.
 Rotational symmetry number  1.
 Rotational temperature (Kelvin)      5.62899
 Rotational constant (GHZ):         117.289159
    2 imaginary frequencies ignored.
 Zero-point vibrational energy      71135.6 (Joules/Mol)
                                   17.00182 (Kcal/Mol)
 Vibrational temperatures:   1485.33 15625.97
          (Kelvin)

 Zero-point correction=                           0.027094 (Hartree/Particle)
 Thermal correction to Energy=                    0.029487
 Thermal correction to Enthalpy=                  0.030431
 Thermal correction to Gibbs Free Energy=         0.008384
 Sum of electronic and zero-point Energies=           -100.763951
 Sum of electronic and thermal Energies=              -100.761558
 Sum of electronic and thermal Enthalpies=            -100.760614
 Sum of electronic and thermal Free Energies=         -100.782662

                     E (Thermal)             CV                S
                      KCal/Mol        Cal/Mol-Kelvin    Cal/Mol-Kelvin
 Total                   18.503              5.311             46.403
 Electronic               0.000              0.000              1.377
 Translational            0.889              2.981             35.068
 Rotational               0.592              1.987              9.876
 Vibrational             17.022              0.343              0.082

 Normal termination of Gaussian 16 at Fri Aug 22 15:43:39 2025.
