 Gaussian 16, Revision C.01,
 Gaussian 16:  ES64L-G16RevC.01  3-Jul-2019

 -----------------------------------------
 # sp b3lyp/6-311g** Force nosymm scf=(qc)
 -----------------------------------------

 -------------------
 Title Card Required
 -------------------
 Symbolic Z-matrix:
 Charge =  0 Multiplicity = 2

                          Input orientation:
 ---------------------------------------------------------------------
 Center     Atomic      Atomic             Coordinates (Angstroms)
 Number     Number       Type             X           Y           Z
 ---------------------------------------------------------------------
      1          1           0        0.000000    0.000000    0.000000
      2          1           0       -3.050000    0.000000    0.000000
      3          9           0        1.050000    0.000000    0.000000
 ---------------------------------------------------------------------

 SCF Done:  E(UB3LYP) =  -100.958387901     a.u. after    6 cycles

 Alpha  occ. eigenvalues --  -24.64215  -1.14849  -0.50593  -0.38406  -0.38406
 Alpha  occ. eigenvalues --   -0.34204
 Alpha virt. eigenvalues --   -0.00681   0.24410   0.32394   0.93837   0.93837
 Alpha virt. eigenvalues --    0.99084   1.22989   1.23325   1.23325   1.30863
 Alpha virt. eigenvalues --    1.35561   1.35561   1.84919   2.14322   2.33300

  Beta  occ. eigenvalues --  -24.64208  -1.14832  -0.50570  -0.38400  -0.38400
  Beta virt. eigenvalues --   -0.07705   0.00574   0.31902   0.38332   0.93837
  Beta virt. eigenvalues --    0.93837   0.99092   1.29865   1.35552   1.35552
  Beta virt. eigenvalues --    1.47678   1.47678   1.48698   1.85043   2.33271

 Mulliken charges and spin densities:
               1          2
     1  H    0.329503   0.001057
     2  H    0.002664   0.996694
     3  F   -0.332167   0.002249
 Sum of Mulliken charges =   0.00000   1.00000

 Dipole moment (field-independent basis, Debye):
    X=             -2.1305    Y=             -0.0000    Z=              0.0000  Tot=              2.1305
 Quadrupole moment (field-independent basis, Debye-Ang):
   XX=             -8.2909   YY=             -7.0055   ZZ=             -7.0055
   XY=             -0.0000   XZ=              0.0000   YZ=              0.0000

  Exact polarizability:       8.100       0.000       2.390      -0.000      -0.000       2.390
 Approx polarizability:       9.942       0.000       2.360      -0.000       0.000       2.360

 ******    1 imaginary frequencies (negative Signs) ******

                      1                      2                      3
                      A                      A                      A
 Frequencies --    -78.3353              1114.0239              1114.0239
 Red. masses --      1.0531                 1.0341                 1.0341
 Frc consts  --      0.0038                 0.7561                 0.7561
 IR Inten    --      0.2705               158.5520               158.5520

                      4
                      A
 Frequencies --   2448.6710
 Red. masses --      1.0585
 Frc consts  --      3.7394
 IR Inten    --     93.6393

 - Thermochemistry -
 -------------------
 Temperature   298.150 Kelvin.  Pressure   1.00000 Atm.
 Atom     1 has atomic number  1 and mass   1.00783

 Molecular mass:    21.01405 amu.
 Principal axes and moments of inertia in atomic units:
                           1         2         3
     Eigenvalues --     0.00000  59.88927  59.88927
           X            1.00000  -0.00000   0.00000
           Y            0.00000   1.00000   0.00000
           Z            0.00000   0.00000   1.00000
 This molecule is a prolate symmetric top.
 Rotational symmetry number  1.
 Rotational temperature (Kelvin)      1.44623
 Rotational constant (GHZ):          30.134632
    1 imaginary frequencies ignored.
 Zero-point vibrational energy      27973.0 (Joules/Mol)
                                    6.68571 (Kcal/Mol)
 Vibrational temperatures:   1602.83  1602.83  3523.09
          (Kelvin)

 Zero-point correction=                           0.010654 (Hartree/Particle)
 Thermal correction to Energy=                    0.013062
 Thermal correction to Enthalpy=                  0.014006
 Thermal correction to Gibbs Free Energy=        -0.009342
 Sum of electronic and zero-point Energies=           -100.947734
 Sum of electronic and thermal Energies=              -100.945326
 Sum of electronic and thermal Enthalpies=            -100.944382
 Sum of electronic and thermal Free Energies=         -100.967729

                     E (Thermal)             CV                S
                      KCal/Mol        Cal/Mol-Kelvin    Cal/Mol-Kelvin
 Total                    8.197              5.506             49.140
 Electronic               0.000              0.000              1.377
 Translational            0.889              2.981             35.068
 Rotational               0.592              1.987             12.576
 Vibrational              6.715              0.538              0.118

 Normal termination of Gaussian 16 at Fri Aug 22 16:03:38 2025.
