 Gaussian 16, Revision C.01,
 Gaussian 16:  ES64L-G16RevC.01  3-Jul-2019

 -----------------------------------------
 # sp b3lyp/6-311g** Force nosymm scf=(qc)
 -----------------------------------------

 -------------------
 Title Card Required
 -------------------
 Symbolic Z-matrix:
 Charge =  0 Multiplicity = 2

                          Input orientation:
 ---------------------------------------------------------------------
 Center     Atomic      Atomic             Coordinates (Angstroms)
 Number     Number       Type             X           Y           Z
 ---------------------------------------------------------------------
      1          1           0        0.000000    0.000000    0.000000
      2          1           0       -2.700000    0.000000    0.000000
      3          9           0        2.000000    0.000000    0.000000
 ---------------------------------------------------------------------

 SCF Done:  E(UB3LYP) =  -100.789215554     a.u. after   13 cycles

 Alpha  occ. eigenvalues --  -24.68167  -1.14484  -0.47152  -0.39698  -0.39698
 Alpha  occ. eigenvalues --   -0.34426
 Alpha virt. eigenvalues --   -0.13799   0.23597   0.31128   0.89526   0.94915
 Alpha virt. eigenvalues --    0.94915   1.06145   1.23164   1.23164   1.24979
 Alpha virt. eigenvalues --    1.35184   1.35184   1.60429   2.14190   2.29310

  Beta  occ. eigenvalues --  -24.65797  -1.07859  -0.37813  -0.37363  -0.37363
  Beta virt. eigenvalues --   -0.20791  -0.09148   0.24268   0.35558   0.91433
  Beta virt. eigenvalues --    0.95563   0.95563   1.08559   1.22189   1.22189
  Beta virt. eigenvalues --    1.42655   1.42655   1.42838   1.54188   2.13151

 Mulliken charges and spin densities:
               1          2
     1  H    0.181588  -0.727329
     2  H    0.011443   0.982008
     3  F   -0.193032   0.745321
 Sum of Mulliken charges =  -0.00000   1.00000

 Dipole moment (field-independent basis, Debye):
    X=             -2.0567    Y=              0.0000    Z=             -0.0000  Tot=              2.0567
 Quadrupole moment (field-independent basis, Debye-Ang):
   XX=             -9.6077   YY=             -7.5118   ZZ=             -7.5118
   XY=              0.0000   XZ=             -0.0000   YZ=             -0.0000

  Exact polarizability:      33.632      -0.000       2.059       0.000      -0.000       2.059
 Approx polarizability:      42.675      -0.000       1.949       0.000       0.000       1.949

 ******    2 imaginary frequencies (negative Signs) ******

                      1                      2                      3
                      A                      A                      A
 Frequencies --  -1173.6151              -314.0222               492.7007
 Red. masses --      1.0493                 1.0623                 1.0220
 Frc consts  --      0.8515                 0.0617                 0.1462
 IR Inten    --    104.9841                 7.6364                28.4210

                      4
                      A
 Frequencies --    492.7007
 Red. masses --      1.0220
 Frc consts  --      0.1462
 IR Inten    --     28.4210

 - Thermochemistry -
 -------------------
 Temperature   298.150 Kelvin.  Pressure   1.00000 Atm.
 Atom     1 has atomic number  1 and mass   1.00783

 Molecular mass:    21.01405 amu.
 Principal axes and moments of inertia in atomic units:
                           1         2         3
     Eigenvalues --     0.00000  86.14981  86.14981
           X            1.00000  -0.00000   0.00000
           Y            0.00000   1.00000   0.00000
           Z            0.00000   0.00000   1.00000
 This molecule is a prolate symmetric top.
 Rotational symmetry number  1.
 Rotational temperature (Kelvin)      1.00539
 Rotational constant (GHZ):          20.948871
    2 imaginary frequencies ignored.
 Zero-point vibrational energy       5894.0 (Joules/Mol)
                                    1.40870 (Kcal/Mol)
 Warning -- explicit consideration of   2 degrees of freedom as
           vibrations may cause significant error
 Vibrational temperatures:    708.89   708.89
          (Kelvin)

 Zero-point correction=                           0.002245 (Hartree/Particle)
 Thermal correction to Energy=                    0.005064
 Thermal correction to Enthalpy=                  0.006009
 Thermal correction to Gibbs Free Energy=        -0.018269
 Sum of electronic and zero-point Energies=           -100.786971
 Sum of electronic and thermal Energies=              -100.784151
 Sum of electronic and thermal Enthalpies=            -100.783207
 Sum of electronic and thermal Free Energies=         -100.807485

                     E (Thermal)             CV                S
                      KCal/Mol        Cal/Mol-Kelvin    Cal/Mol-Kelvin
 Total                    3.178              7.500             51.098
 Electronic               0.000              0.000              1.377
 Translational            0.889              2.981             35.068
 Rotational               0.592              1.987             13.299
 Vibrational              1.697              2.532              1.353
 Vibration     1          0.848              1.266              0.677
 Vibration     2          0.848              1.266              0.677

 Normal termination of Gaussian 16 at Fri Aug 22 16:57:05 2025.
