 Gaussian 16, Revision C.01,
 Gaussian 16:  ES64L-G16RevC.01  3-Jul-2019

 -----------------------------------------
 # sp b3lyp/6-311g** Force nosymm scf=(qc)
 -----------------------------------------

 -------------------
 Title Card Required
 -------------------
 Symbolic Z-matrix:
 Charge =  0 Multiplicity = 2

                          Input orientation:
 ---------------------------------------------------------------------
 Center     Atomic      Atomic             Coordinates (Angstroms)
 Number     Number       Type             X           Y           Z
 ---------------------------------------------------------------------
      1          1           0        0.000000    0.000000    0.000000
      2          1           0       -3.800000    0.000000    0.000000
      3          9           0        1.350000    0.000000    0.000000
 ---------------------------------------------------------------------

 SCF Done:  E(UB3LYP) =  -100.889129557     a.u. after    7 cycles

 Alpha  occ. eigenvalues --  -24.64384  -1.10669  -0.45294  -0.36888  -0.36888
 Alpha  occ. eigenvalues --   -0.33673
 Alpha virt. eigenvalues --   -0.10476   0.21069   0.27807   0.93011   0.93011
 Alpha virt. eigenvalues --    1.02644   1.18370   1.23809   1.23836   1.23836
 Alpha virt. eigenvalues --    1.33233   1.33233   1.70640   2.13241   2.22946

  Beta  occ. eigenvalues --  -24.64380  -1.10658  -0.45283  -0.36884  -0.36884
  Beta virt. eigenvalues --   -0.10747  -0.05928   0.24310   0.38471   0.93010
  Beta virt. eigenvalues --    0.93010   1.02656   1.18390   1.33218   1.33218
  Beta virt. eigenvalues --    1.46671   1.47031   1.47031   1.70661   2.22146

 Mulliken charges and spin densities:
               1          2
     1  H    0.358316  -0.000619
     2  H    0.000747   0.999206
     3  F   -0.359063   0.001413
 Sum of Mulliken charges =  -0.00000   1.00000

 Dipole moment (field-independent basis, Debye):
    X=             -2.4531    Y=              0.0000    Z=             -0.0000  Tot=              2.4531
 Quadrupole moment (field-independent basis, Debye-Ang):
   XX=             -9.4164   YY=             -7.2324   ZZ=             -7.2324
   XY=              0.0000   XZ=             -0.0000   YZ=             -0.0000

  Exact polarizability:      11.850       0.000       2.255      -0.000      -0.000       2.255
 Approx polarizability:      19.462       0.000       2.194      -0.000       0.000       2.194

 ******    2 imaginary frequencies (negative Signs) ******

                      1                      2                      3
                      A                      A                      A
 Frequencies --   -871.4075               -49.1887              1132.6592
 Red. masses --      1.0578                 1.0537                 1.0336
 Frc consts  --      0.4733                 0.0015                 0.7813
 IR Inten    --     50.8368                 0.0351               132.9652

                      4
                      A
 Frequencies --   1132.6592
 Red. masses --      1.0336
 Frc consts  --      0.7813
 IR Inten    --    132.9652

 - Thermochemistry -
 -------------------
 Temperature   298.150 Kelvin.  Pressure   1.00000 Atm.
 Atom     1 has atomic number  1 and mass   1.00783

 Molecular mass:    21.01405 amu.
 Principal axes and moments of inertia in atomic units:
                           1         2         3
     Eigenvalues --     0.00000  94.72125  94.72125
           X            1.00000  -0.00000   0.00000
           Y            0.00000   1.00000   0.00000
           Z            0.00000   0.00000   1.00000
 This molecule is a prolate symmetric top.
 Rotational symmetry number  1.
 Rotational temperature (Kelvin)      0.91441
 Rotational constant (GHZ):          19.053181
    2 imaginary frequencies ignored.
 Zero-point vibrational energy      13549.6 (Joules/Mol)
                                    3.23844 (Kcal/Mol)
 Vibrational temperatures:   1629.64  1629.64
          (Kelvin)

 Zero-point correction=                           0.005161 (Hartree/Particle)
 Thermal correction to Energy=                    0.007565
 Thermal correction to Enthalpy=                  0.008509
 Thermal correction to Gibbs Free Energy=        -0.015267
 Sum of electronic and zero-point Energies=           -100.883969
 Sum of electronic and thermal Energies=              -100.881564
 Sum of electronic and thermal Enthalpies=            -100.880620
 Sum of electronic and thermal Free Energies=         -100.904397

                     E (Thermal)             CV                S
                      KCal/Mol        Cal/Mol-Kelvin    Cal/Mol-Kelvin
 Total                    4.747              5.474             50.042
 Electronic               0.000              0.000              1.377
 Translational            0.889              2.981             35.068
 Rotational               0.592              1.987             13.487
 Vibrational              3.266              0.506              0.109

 Normal termination of Gaussian 16 at Fri Aug 22 16:18:49 2025.
