 Gaussian 16, Revision C.01,
 Gaussian 16:  ES64L-G16RevC.01  3-Jul-2019

 -----------------------------------------
 # sp b3lyp/6-311g** Force nosymm scf=(qc)
 -----------------------------------------

 -------------------
 Title Card Required
 -------------------
 Symbolic Z-matrix:
 Charge =  0 Multiplicity = 2

                          Input orientation:
 ---------------------------------------------------------------------
 Center     Atomic      Atomic             Coordinates (Angstroms)
 Number     Number       Type             X           Y           Z
 ---------------------------------------------------------------------
      1          1           0        0.000000    0.000000    0.000000
      2          1           0       -1.150000    0.000000    0.000000
      3          9           0        0.600000    0.000000    0.000000
 ---------------------------------------------------------------------

 SCF Done:  E(UB3LYP) =  -100.660164776     a.u. after    7 cycles

 Alpha  occ. eigenvalues --  -24.63921  -1.36770  -0.63892  -0.44177  -0.44177
 Alpha  occ. eigenvalues --   -0.34796
 Alpha virt. eigenvalues --    0.15841   0.20525   0.70782   0.89476   0.89476
 Alpha virt. eigenvalues --    0.90738   1.11740   1.11740   1.48651   1.65923
 Alpha virt. eigenvalues --    1.65923   1.76155   2.00867   2.36610   3.76677

  Beta  occ. eigenvalues --  -24.63667  -1.35951  -0.62549  -0.43983  -0.43983
  Beta virt. eigenvalues --   -0.12203   0.16683   0.27868   0.76404   0.90313
  Beta virt. eigenvalues --    0.90313   0.91334   1.21631   1.21631   1.49421
  Beta virt. eigenvalues --    1.71402   1.71402   1.83591   2.08218   2.55406

 Mulliken charges and spin densities:
               1          2
     1  H    0.239643   0.005841
     2  H   -0.010703   0.968133
     3  F   -0.228940   0.026026
 Sum of Mulliken charges =   0.00000   1.00000

 Dipole moment (field-independent basis, Debye):
    X=             -1.2122    Y=             -0.0000    Z=             -0.0000  Tot=              1.2122
 Quadrupole moment (field-independent basis, Debye-Ang):
   XX=             -7.1114   YY=             -6.4304   ZZ=             -6.4304
   XY=             -0.0000   XZ=             -0.0000   YZ=              0.0000

  Exact polarizability:       6.662      -0.000       2.529       0.000      -0.000       2.529
 Approx polarizability:       6.382       0.000       2.573       0.000      -0.000       2.573

 ******    2 imaginary frequencies (negative Signs) ******

                      1                      2                      3
                      A                      A                      A
 Frequencies --  -5715.7243             -5715.7243              1665.4092
 Red. masses --      1.0274                 1.0274                 1.0540
 Frc consts  --     19.7751                19.7751                 1.7224
 IR Inten    --    155.6110               155.6110                46.5883

                      4
                      A
 Frequencies --  13066.2491
 Red. masses --      1.0575
 Frc consts  --    106.3759
 IR Inten    --     74.3096

 - Thermochemistry -
 -------------------
 Temperature   298.150 Kelvin.  Pressure   1.00000 Atm.
 Atom     1 has atomic number  1 and mass   1.00783

 Molecular mass:    21.01405 amu.
 Principal axes and moments of inertia in atomic units:
                           1         2         3
     Eigenvalues --     0.00000  11.36439  11.36439
           X            1.00000  -0.00000   0.00000
           Y            0.00000   1.00000   0.00000
           Z            0.00000   0.00000   1.00000
 This molecule is a prolate symmetric top.
 Rotational symmetry number  1.
 Rotational temperature (Kelvin)      7.62152
 Rotational constant (GHZ):         158.806763
    2 imaginary frequencies ignored.
 Zero-point vibrational energy      88114.9 (Joules/Mol)
                                   21.05996 (Kcal/Mol)
 Vibrational temperatures:   2396.15 18799.42
          (Kelvin)

 Zero-point correction=                           0.033561 (Hartree/Particle)
 Thermal correction to Energy=                    0.035924
 Thermal correction to Enthalpy=                  0.036868
 Thermal correction to Gibbs Free Energy=         0.015143
 Sum of electronic and zero-point Energies=           -100.626604
 Sum of electronic and thermal Energies=              -100.624241
 Sum of electronic and thermal Enthalpies=            -100.623296
 Sum of electronic and thermal Free Energies=         -100.645022

                     E (Thermal)             CV                S
                      KCal/Mol        Cal/Mol-Kelvin    Cal/Mol-Kelvin
 Total                   22.543              5.010             45.725
 Electronic               0.000              0.000              1.377
 Translational            0.889              2.981             35.068
 Rotational               0.592              1.987              9.274
 Vibrational             21.062              0.042              0.006

 Normal termination of Gaussian 16 at Fri Aug 22 15:41:06 2025.
