 Gaussian 16, Revision C.01,
 Gaussian 16:  ES64L-G16RevC.01  3-Jul-2019

 -----------------------------------------
 # sp b3lyp/6-311g** Force nosymm scf=(qc)
 -----------------------------------------

 -------------------
 Title Card Required
 -------------------
 Symbolic Z-matrix:
 Charge =  0 Multiplicity = 2

                          Input orientation:
 ---------------------------------------------------------------------
 Center     Atomic      Atomic             Coordinates (Angstroms)
 Number     Number       Type             X           Y           Z
 ---------------------------------------------------------------------
      1          1           0        0.000000    0.000000    0.000000
      2          1           0       -3.750000    0.000000    0.000000
      3          9           0        2.350000    0.000000    0.000000
 ---------------------------------------------------------------------

 SCF Done:  E(UB3LYP) =  -100.771152633     a.u. after   14 cycles

 Alpha  occ. eigenvalues --  -24.70803  -1.17070  -0.49889  -0.41929  -0.41929
 Alpha  occ. eigenvalues --   -0.32931
 Alpha virt. eigenvalues --   -0.11183   0.23171   0.34478   0.88954   0.94076
 Alpha virt. eigenvalues --    0.94076   1.06195   1.24573   1.24573   1.24618
 Alpha virt. eigenvalues --    1.39055   1.39055   1.47186   2.14084   2.34873

  Beta  occ. eigenvalues --  -24.68054  -1.09275  -0.39195  -0.39195  -0.36019
  Beta virt. eigenvalues --   -0.22705  -0.06409   0.23517   0.38074   0.93606
  Beta virt. eigenvalues --    0.95342   0.95342   1.08290   1.21696   1.21696
  Beta virt. eigenvalues --    1.34987   1.46148   1.46376   1.46376   2.11837

 Mulliken charges and spin densities:
               1          2
     1  H    0.114290  -0.866172
     2  H    0.000569   0.998860
     3  F   -0.114859   0.867312
 Sum of Mulliken charges =  -0.00000   1.00000

 Dipole moment (field-independent basis, Debye):
    X=             -1.3738    Y=             -0.0000    Z=              0.0000  Tot=              1.3738
 Quadrupole moment (field-independent basis, Debye-Ang):
   XX=             -9.6013   YY=             -7.5491   ZZ=             -7.5491
   XY=             -0.0000   XZ=              0.0000   YZ=              0.0000

  Exact polarizability:      28.939      -0.000       2.031       0.000       0.000       2.031
 Approx polarizability:      38.593      -0.000       1.923       0.000      -0.000       1.923

 ******    2 imaginary frequencies (negative Signs) ******

                      1                      2                      3
                      A                      A                      A
 Frequencies --   -723.1177               -90.9558               293.7853
 Red. masses --      1.0566                 1.0549                 1.0245
 Frc consts  --      0.3255                 0.0051                 0.0521
 IR Inten    --     93.5444                 0.0860                12.6240

                      4
                      A
 Frequencies --    293.7853
 Red. masses --      1.0245
 Frc consts  --      0.0521
 IR Inten    --     12.6240

 - Thermochemistry -
 -------------------
 Temperature   298.150 Kelvin.  Pressure   1.00000 Atm.
 Atom     1 has atomic number  1 and mass   1.00783

 Molecular mass:    21.01405 amu.
 Principal axes and moments of inertia in atomic units:
                           1         2         3
     Eigenvalues --     0.00000 141.47007 141.47007
           X            1.00000  -0.00000   0.00000
           Y            0.00000   1.00000   0.00000
           Z            0.00000   0.00000   1.00000
 This molecule is a prolate symmetric top.
 Rotational symmetry number  1.
 Rotational temperature (Kelvin)      0.61224
 Rotational constant (GHZ):          12.757053
    2 imaginary frequencies ignored.
 Zero-point vibrational energy       3514.5 (Joules/Mol)
                                    0.83997 (Kcal/Mol)
 Warning -- explicit consideration of   2 degrees of freedom as
           vibrations may cause significant error
 Vibrational temperatures:    422.69   422.69
          (Kelvin)

 Zero-point correction=                           0.001339 (Hartree/Particle)
 Thermal correction to Energy=                    0.004555
 Thermal correction to Enthalpy=                  0.005499
 Thermal correction to Gibbs Free Energy=        -0.019984
 Sum of electronic and zero-point Energies=           -100.769814
 Sum of electronic and thermal Energies=              -100.766598
 Sum of electronic and thermal Enthalpies=            -100.765653
 Sum of electronic and thermal Free Energies=         -100.791137

                     E (Thermal)             CV                S
                      KCal/Mol        Cal/Mol-Kelvin    Cal/Mol-Kelvin
 Total                    2.858              8.339             53.634
 Electronic               0.000              0.000              1.377
 Translational            0.889              2.981             35.068
 Rotational               0.592              1.987             14.284
 Vibrational              1.377              3.371              2.904
 Vibration     1          0.689              1.685              1.452
 Vibration     2          0.689              1.685              1.452

 Normal termination of Gaussian 16 at Fri Aug 22 17:27:57 2025.
