 Gaussian 16, Revision C.01,
 Gaussian 16:  ES64L-G16RevC.01  3-Jul-2019

 -----------------------------------------
 # sp b3lyp/6-311g** Force nosymm scf=(qc)
 -----------------------------------------

 -------------------
 Title Card Required
 -------------------
 Symbolic Z-matrix:
 Charge =  0 Multiplicity = 2

                          Input orientation:
 ---------------------------------------------------------------------
 Center     Atomic      Atomic             Coordinates (Angstroms)
 Number     Number       Type             X           Y           Z
 ---------------------------------------------------------------------
      1          1           0        0.000000    0.000000    0.000000
      2          1           0       -3.950000    0.000000    0.000000
      3          9           0        3.050000    0.000000    0.000000
 ---------------------------------------------------------------------

 SCF Done:  E(UB3LYP) =  -100.760509709     a.u. after   23 cycles

 Alpha  occ. eigenvalues --  -24.74248  -1.20297  -0.53368  -0.44811  -0.44811
 Alpha  occ. eigenvalues --   -0.32435
 Alpha virt. eigenvalues --   -0.07564   0.23916   0.36323   0.89172   0.92178
 Alpha virt. eigenvalues --    0.92178   1.03595   1.25061   1.25061   1.25083
 Alpha virt. eigenvalues --    1.44656   1.44656   1.45277   2.14392   2.41047

  Beta  occ. eigenvalues --  -24.71209  -1.11585  -0.41769  -0.41769  -0.33601
  Beta virt. eigenvalues --   -0.24866  -0.05934   0.23753   0.38141   0.93643
  Beta virt. eigenvalues --    0.93643   0.97919   1.07349   1.23730   1.23730
  Beta virt. eigenvalues --    1.23990   1.46609   1.46732   1.46732   2.14503

 Mulliken charges and spin densities:
               1          2
     1  H    0.033635  -0.962346
     2  H    0.000128   0.999314
     3  F   -0.033762   0.963032
 Sum of Mulliken charges =  -0.00000   1.00000

 Dipole moment (field-independent basis, Debye):
    X=             -0.5312    Y=             -0.0000    Z=             -0.0000  Tot=              0.5312
 Quadrupole moment (field-independent basis, Debye-Ang):
   XX=             -8.2452   YY=             -7.6069   ZZ=             -7.6069
   XY=             -0.0000   XZ=             -0.0000   YZ=             -0.0000

  Exact polarizability:      30.522      -0.000       2.028      -0.000      -0.000       2.028
 Approx polarizability:      30.621      -0.000       1.928      -0.000       0.000       1.928

 ******    2 imaginary frequencies (negative Signs) ******

                      1                      2                      3
                      A                      A                      A
 Frequencies --   -345.7270               -72.8144               118.9368
 Red. masses --      1.0535                 1.0581                 1.0214
 Frc consts  --      0.0742                 0.0033                 0.0085
 IR Inten    --     36.2220                 0.0937                 1.0859

                      4
                      A
 Frequencies --    118.9368
 Red. masses --      1.0214
 Frc consts  --      0.0085
 IR Inten    --      1.0859

 - Thermochemistry -
 -------------------
 Temperature   298.150 Kelvin.  Pressure   1.00000 Atm.
 Atom     1 has atomic number  1 and mass   1.00783

 Molecular mass:    21.01405 amu.
 Principal axes and moments of inertia in atomic units:
                           1         2         3
     Eigenvalues --     0.00000 192.39747 192.39747
           X            1.00000  -0.00000   0.00000
           Y            0.00000   1.00000   0.00000
           Z            0.00000   0.00000   1.00000
 This molecule is a prolate symmetric top.
 Rotational symmetry number  1.
 Rotational temperature (Kelvin)      0.45018
 Rotational constant (GHZ):           9.380275
    2 imaginary frequencies ignored.
 Zero-point vibrational energy       1422.8 (Joules/Mol)
                                    0.34006 (Kcal/Mol)
 Warning -- explicit consideration of   2 degrees of freedom as
           vibrations may cause significant error
 Vibrational temperatures:    171.12   171.12
          (Kelvin)

 Zero-point correction=                           0.000542 (Hartree/Particle)
 Thermal correction to Energy=                    0.004300
 Thermal correction to Enthalpy=                  0.005245
 Thermal correction to Gibbs Free Energy=        -0.022112
 Sum of electronic and zero-point Energies=           -100.759968
 Sum of electronic and thermal Energies=              -100.756209
 Sum of electronic and thermal Enthalpies=            -100.755265
 Sum of electronic and thermal Free Energies=         -100.782621

                     E (Thermal)             CV                S
                      KCal/Mol        Cal/Mol-Kelvin    Cal/Mol-Kelvin
 Total                    2.699              8.835             57.576
 Electronic               0.000              0.000              1.377
 Translational            0.889              2.981             35.068
 Rotational               0.592              1.987             14.895
 Vibrational              1.217              3.867              6.235
 Vibration     1          0.609              1.934              3.118
 Vibration     2          0.609              1.934              3.118

 Normal termination of Gaussian 16 at Fri Aug 22 19:45:47 2025.
