 Gaussian 16, Revision C.01,
 Gaussian 16:  ES64L-G16RevC.01  3-Jul-2019

 -----------------------------------------
 # sp b3lyp/6-311g** Force nosymm scf=(qc)
 -----------------------------------------

 -------------------
 Title Card Required
 -------------------
 Symbolic Z-matrix:
 Charge =  0 Multiplicity = 2

                          Input orientation:
 ---------------------------------------------------------------------
 Center     Atomic      Atomic             Coordinates (Angstroms)
 Number     Number       Type             X           Y           Z
 ---------------------------------------------------------------------
      1          1           0        0.000000    0.000000    0.000000
      2          1           0       -1.000000    0.000000    0.000000
      3          9           0        3.300000    0.000000    0.000000
 ---------------------------------------------------------------------

 SCF Done:  E(UB3LYP) =  -100.906636236     a.u. after    7 cycles

 Alpha  occ. eigenvalues --  -24.76185  -1.22085  -0.55308  -0.46449  -0.46449
 Alpha  occ. eigenvalues --   -0.39170
 Alpha virt. eigenvalues --    0.00080   0.21188   0.38264   0.88553   0.90944
 Alpha virt. eigenvalues --    0.90944   1.02481   1.08931   1.08931   1.37386
 Alpha virt. eigenvalues --    1.65575   1.65575   2.22383   2.36150   2.58709

  Beta  occ. eigenvalues --  -24.73038  -1.13034  -0.43294  -0.43294  -0.39157
  Beta virt. eigenvalues --   -0.26092   0.00159   0.21255   0.38522   0.92439
  Beta virt. eigenvalues --    0.92439   0.97600   1.06641   1.08949   1.08949
  Beta virt. eigenvalues --    1.37422   1.65590   1.65590   2.22445   2.36182

 Mulliken charges and spin densities:
               1          2
     1  H   -0.006929  -0.001932
     2  H    0.006400   0.004365
     3  F    0.000528   0.997567
 Sum of Mulliken charges =  -0.00000   1.00000

 Dipole moment (field-independent basis, Debye):
    X=             -0.0273    Y=              0.0000    Z=              0.0000  Tot=              0.0273
 Quadrupole moment (field-independent basis, Debye-Ang):
   XX=             -5.5010   YY=             -7.2713   ZZ=             -7.2713
   XY=              0.0000   XZ=              0.0000   YZ=              0.0000

  Exact polarizability:      13.878      -0.000       2.058      -0.000      -0.000       2.058
 Approx polarizability:      17.551      -0.000       2.109       0.000      -0.000       2.109

 ******    1 imaginary frequencies (negative Signs) ******

                      1                      2                      3
                      A                      A                      A
 Frequencies --    -50.5231              1537.0887              1537.0887
 Red. masses --      1.1085                 1.0095                 1.0095
 Frc consts  --      0.0017                 1.4053                 1.4053
 IR Inten    --      0.1259                 0.0478                 0.0478

                      4
                      A
 Frequencies --   1789.2888
 Red. masses --      1.0078
 Frc consts  --      1.9011
 IR Inten    --      1.8415

 - Thermochemistry -
 -------------------
 Temperature   298.150 Kelvin.  Pressure   1.00000 Atm.
 Atom     1 has atomic number  1 and mass   1.00783

 Molecular mass:    21.01405 amu.
 Principal axes and moments of inertia in atomic units:
                           1         2         3
     Eigenvalues --     0.00000  95.76910  95.76910
           X            1.00000  -0.00000   0.00000
           Y            0.00000   1.00000   0.00000
           Z            0.00000   0.00000   1.00000
 This molecule is a prolate symmetric top.
 Rotational symmetry number  1.
 Rotational temperature (Kelvin)      0.90440
 Rotational constant (GHZ):          18.844714
    1 imaginary frequencies ignored.
 Zero-point vibrational energy      29090.0 (Joules/Mol)
                                    6.95267 (Kcal/Mol)
 Vibrational temperatures:   2211.53  2211.53  2574.39
          (Kelvin)

 Zero-point correction=                           0.011080 (Hartree/Particle)
 Thermal correction to Energy=                    0.013450
 Thermal correction to Enthalpy=                  0.014394
 Thermal correction to Gibbs Free Energy=        -0.009352
 Sum of electronic and zero-point Energies=           -100.895556
 Sum of electronic and thermal Energies=              -100.893186
 Sum of electronic and thermal Enthalpies=            -100.892242
 Sum of electronic and thermal Free Energies=         -100.915988

                     E (Thermal)             CV                S
                      KCal/Mol        Cal/Mol-Kelvin    Cal/Mol-Kelvin
 Total                    8.440              5.126             49.978
 Electronic               0.000              0.000              1.377
 Translational            0.889              2.981             35.068
 Rotational               0.592              1.987             13.509
 Vibrational              6.959              0.158              0.024

 Normal termination of Gaussian 16 at Fri Aug 22 20:40:13 2025.
