 Gaussian 16, Revision C.01,
 Gaussian 16:  ES64L-G16RevC.01  3-Jul-2019

 -----------------------------------------
 # sp b3lyp/6-311g** Force nosymm scf=(qc)
 -----------------------------------------

 -------------------
 Title Card Required
 -------------------
 Symbolic Z-matrix:
 Charge =  0 Multiplicity = 2

                          Input orientation:
 ---------------------------------------------------------------------
 Center     Atomic      Atomic             Coordinates (Angstroms)
 Number     Number       Type             X           Y           Z
 ---------------------------------------------------------------------
      1          1           0        0.000000    0.000000    0.000000
      2          1           0       -1.500000    0.000000    0.000000
      3          9           0        3.050000    0.000000    0.000000
 ---------------------------------------------------------------------

 SCF Done:  E(UB3LYP) =  -100.820625518     a.u. after  115 cycles

 Alpha  occ. eigenvalues --  -24.76673  -1.22507  -0.55697  -0.46937  -0.46848
 Alpha  occ. eigenvalues --   -0.33453
 Alpha virt. eigenvalues --   -0.09688   0.25078   0.30633   0.85748   0.90621
 Alpha virt. eigenvalues --    0.92950   1.02919   1.07722   1.20461   1.20466
 Alpha virt. eigenvalues --    1.41541   1.41547   1.82430   2.22662   2.47363

  Beta  occ. eigenvalues --  -24.73514  -1.13425  -0.43781  -0.43681  -0.33442
  Beta virt. eigenvalues --   -0.26326  -0.09691   0.25128   0.30684   0.92121
  Beta virt. eigenvalues --    0.94550   0.95208   1.06831   1.07751   1.20453
  Beta virt. eigenvalues --    1.20459   1.41538   1.41543   1.82467   2.22745

 Mulliken charges and spin densities:
               1          2
     1  H   -0.000185  -0.091803
     2  H   -0.006458   0.091065
     3  F    0.006643   1.000738
 Sum of Mulliken charges =   0.00000   1.00000

 Dipole moment (field-independent basis, Debye):
    X=              0.1067    Y=             -0.0000    Z=             -0.0000  Tot=              0.1067
 Quadrupole moment (field-independent basis, Debye-Ang):
   XX=             -6.1685   YY=             -7.5707   ZZ=             -7.1012
   XY=             -0.0000   XZ=              0.0000   YZ=             -0.3625

  Exact polarizability:      23.330      -0.000       2.146       0.000      -0.190       2.392
 Approx polarizability:      43.968      -0.000       2.173       0.000      -0.244       2.488

 ******    2 imaginary frequencies (negative Signs) ******

                      1                      2                      3
                      A                      A                      A
 Frequencies --  -2389.4961                -3.4295              1219.2817
 Red. masses --      1.0078                 1.1085                 1.0116
 Frc consts  --      3.3904                 0.0000                 0.8861
 IR Inten    --      0.0485                 0.7020                 0.0068

                      4
                      A
 Frequencies --   1223.6020
 Red. masses --      1.0116
 Frc consts  --      0.8924
 IR Inten    --      0.0003

 - Thermochemistry -
 -------------------
 Temperature   298.150 Kelvin.  Pressure   1.00000 Atm.
 Atom     1 has atomic number  1 and mass   1.00783

 Molecular mass:    21.01405 amu.
 Principal axes and moments of inertia in atomic units:
                           1         2         3
     Eigenvalues --     0.00000  98.01848  98.01848
           X            1.00000  -0.00000   0.00000
           Y            0.00000   1.00000   0.00000
           Z            0.00000   0.00000   1.00000
 This molecule is a prolate symmetric top.
 Rotational symmetry number  1.
 Rotational temperature (Kelvin)      0.88365
 Rotational constant (GHZ):          18.412255
    2 imaginary frequencies ignored.
 Zero-point vibrational energy      14611.7 (Joules/Mol)
                                    3.49228 (Kcal/Mol)
 Vibrational temperatures:   1754.27  1760.49
          (Kelvin)

 Zero-point correction=                           0.005565 (Hartree/Particle)
 Thermal correction to Energy=                    0.007957
 Thermal correction to Enthalpy=                  0.008901
 Thermal correction to Gibbs Free Energy=        -0.014892
 Sum of electronic and zero-point Energies=           -100.815060
 Sum of electronic and thermal Energies=              -100.812669
 Sum of electronic and thermal Enthalpies=            -100.811725
 Sum of electronic and thermal Free Energies=         -100.835518

                     E (Thermal)             CV                S
                      KCal/Mol        Cal/Mol-Kelvin    Cal/Mol-Kelvin
 Total                    4.993              5.351             50.076
 Electronic               0.000              0.000              1.377
 Translational            0.889              2.981             35.068
 Rotational               0.592              1.987             13.555
 Vibrational              3.512              0.383              0.076

 Normal termination of Gaussian 16 at Fri Aug 22 19:42:41 2025.
