 Gaussian 16, Revision C.01,
 Gaussian 16:  ES64L-G16RevC.01  3-Jul-2019

 -----------------------------------------
 # sp b3lyp/6-311g** Force nosymm scf=(qc)
 -----------------------------------------

 -------------------
 Title Card Required
 -------------------
 Symbolic Z-matrix:
 Charge =  0 Multiplicity = 2

                          Input orientation:
 ---------------------------------------------------------------------
 Center     Atomic      Atomic             Coordinates (Angstroms)
 Number     Number       Type             X           Y           Z
 ---------------------------------------------------------------------
      1          1           0        0.000000    0.000000    0.000000
      2          1           0       -2.000000    0.000000    0.000000
      3          9           0        1.950000    0.000000    0.000000
 ---------------------------------------------------------------------

 SCF Done:  E(UB3LYP) =  -100.803607255     a.u. after   12 cycles

 Alpha  occ. eigenvalues --  -24.67700  -1.14033  -0.46794  -0.39290  -0.39290
 Alpha  occ. eigenvalues --   -0.36581
 Alpha virt. eigenvalues --   -0.13519   0.23810   0.30539   0.88659   0.95020
 Alpha virt. eigenvalues --    0.95020   1.04892   1.21294   1.21294   1.28437
 Alpha virt. eigenvalues --    1.33931   1.33931   1.62415   2.11052   2.30954

  Beta  occ. eigenvalues --  -24.65390  -1.07589  -0.37690  -0.37016  -0.37016
  Beta virt. eigenvalues --   -0.21156  -0.11407   0.25922   0.31718   0.91181
  Beta virt. eigenvalues --    0.95623   0.95623   1.08369   1.23359   1.23359
  Beta virt. eigenvalues --    1.36263   1.36263   1.39365   1.59428   2.12152

 Mulliken charges and spin densities:
               1          2
     1  H    0.155803  -0.613918
     2  H    0.045582   0.887908
     3  F   -0.201385   0.726010
 Sum of Mulliken charges =   0.00000   1.00000

 Dipole moment (field-independent basis, Debye):
    X=             -2.3803    Y=             -0.0000    Z=              0.0000  Tot=              2.3803
 Quadrupole moment (field-independent basis, Debye-Ang):
   XX=             -8.7603   YY=             -7.5324   ZZ=             -7.5324
   XY=              0.0000   XZ=             -0.0000   YZ=             -0.0000

  Exact polarizability:      48.061       0.000       2.073      -0.000      -0.000       2.073
 Approx polarizability:      58.473      -0.000       1.979       0.000      -0.000       1.979

 ******    2 imaginary frequencies (negative Signs) ******

                      1                      2                      3
                      A                      A                      A
 Frequencies --  -1611.7145              -581.6173               666.6174
 Red. masses --      1.0220                 1.0918                 1.0183
 Frc consts  --      1.5642                 0.2176                 0.2666
 IR Inten    --    121.7315                30.4773                15.3552

                      4
                      A
 Frequencies --    666.6174
 Red. masses --      1.0183
 Frc consts  --      0.2666
 IR Inten    --     15.3552

 - Thermochemistry -
 -------------------
 Temperature   298.150 Kelvin.  Pressure   1.00000 Atm.
 Atom     1 has atomic number  1 and mass   1.00783

 Molecular mass:    21.01405 amu.
 Principal axes and moments of inertia in atomic units:
                           1         2         3
     Eigenvalues --     0.00000  63.83031  63.83031
           X            1.00000  -0.00000   0.00000
           Y            0.00000   1.00000   0.00000
           Z            0.00000   0.00000   1.00000
 This molecule is a prolate symmetric top.
 Rotational symmetry number  1.
 Rotational temperature (Kelvin)      1.35694
 Rotational constant (GHZ):          28.274046
    2 imaginary frequencies ignored.
 Zero-point vibrational energy       7974.5 (Joules/Mol)
                                    1.90595 (Kcal/Mol)
 Vibrational temperatures:    959.11   959.11
          (Kelvin)

 Zero-point correction=                           0.003037 (Hartree/Particle)
 Thermal correction to Energy=                    0.005651
 Thermal correction to Enthalpy=                  0.006596
 Thermal correction to Gibbs Free Energy=        -0.017087
 Sum of electronic and zero-point Energies=           -100.800570
 Sum of electronic and thermal Energies=              -100.797956
 Sum of electronic and thermal Enthalpies=            -100.797012
 Sum of electronic and thermal Free Energies=         -100.820694

                     E (Thermal)             CV                S
                      KCal/Mol        Cal/Mol-Kelvin    Cal/Mol-Kelvin
 Total                    3.546              6.757             49.845
 Electronic               0.000              0.000              1.377
 Translational            0.889              2.981             35.068
 Rotational               0.592              1.987             12.703
 Vibrational              2.065              1.789              0.696

 Normal termination of Gaussian 16 at Fri Aug 22 16:53:18 2025.
