 Gaussian 16, Revision C.01,
 Gaussian 16:  ES64L-G16RevC.01  3-Jul-2019

 -----------------------------------------
 # sp b3lyp/6-311g** Force nosymm scf=(qc)
 -----------------------------------------

 -------------------
 Title Card Required
 -------------------
 Symbolic Z-matrix:
 Charge =  0 Multiplicity = 2

                          Input orientation:
 ---------------------------------------------------------------------
 Center     Atomic      Atomic             Coordinates (Angstroms)
 Number     Number       Type             X           Y           Z
 ---------------------------------------------------------------------
      1          1           0        0.000000    0.000000    0.000000
      2          1           0       -0.700000    0.000000    0.000000
      3          9           0        1.100000    0.000000    0.000000
 ---------------------------------------------------------------------

 SCF Done:  E(UB3LYP) =  -100.929330600     a.u. after    6 cycles

 Alpha  occ. eigenvalues --  -24.67526  -1.18532  -0.62202  -0.41236  -0.41236
 Alpha  occ. eigenvalues --   -0.37068
 Alpha virt. eigenvalues --    0.12791   0.18645   0.54090   0.87364   0.87364
 Alpha virt. eigenvalues --    0.95593   1.10363   1.10363   1.47016   1.68508
 Alpha virt. eigenvalues --    1.80048   1.80048   1.97364   2.39781   3.64810

  Beta  occ. eigenvalues --  -24.65639  -1.13723  -0.54037  -0.39501  -0.39501
  Beta virt. eigenvalues --   -0.19168   0.14641   0.19707   0.58851   0.89081
  Beta virt. eigenvalues --    0.89081   0.99496   1.14220   1.14220   1.49495
  Beta virt. eigenvalues --    1.75328   1.83442   1.83442   1.98178   2.46281

 Mulliken charges and spin densities:
               1          2
     1  H    0.267485  -0.021266
     2  H   -0.026533   0.514407
     3  F   -0.240952   0.506859
 Sum of Mulliken charges =   0.00000   1.00000

 Dipole moment (field-independent basis, Debye):
    X=             -1.5113    Y=             -0.0000    Z=              0.0000  Tot=              1.5113
 Quadrupole moment (field-independent basis, Debye-Ang):
   XX=             -7.3584   YY=             -6.5538   ZZ=             -6.5538
   XY=             -0.0000   XZ=              0.0000   YZ=             -0.0000

  Exact polarizability:      14.784      -0.000       2.492       0.000       0.000       2.492
 Approx polarizability:      18.377      -0.000       2.542       0.000       0.000       2.542

 ******    2 imaginary frequencies (negative Signs) ******

                      1                      2                      3
                      A                      A                      A
 Frequencies --  -2066.9378             -2066.9378              1394.1740
 Red. masses --      1.0134                 1.0134                 1.1074
 Frc consts  --      2.5509                 2.5509                 1.2682
 IR Inten    --     16.8982                16.8982                 3.4640

                      4
                      A
 Frequencies --   4467.1692
 Red. masses --      1.0087
 Frc consts  --     11.8603
 IR Inten    --    293.4746

 - Thermochemistry -
 -------------------
 Temperature   298.150 Kelvin.  Pressure   1.00000 Atm.
 Atom     1 has atomic number  1 and mass   1.00783

 Molecular mass:    21.01405 amu.
 Principal axes and moments of inertia in atomic units:
                           1         2         3
     Eigenvalues --     0.00000  14.56396  14.56396
           X            1.00000  -0.00000   0.00000
           Y            0.00000   1.00000   0.00000
           Z            0.00000   0.00000   1.00000
 This molecule is a prolate symmetric top.
 Rotational symmetry number  1.
 Rotational temperature (Kelvin)      5.94714
 Rotational constant (GHZ):         123.918270
    2 imaginary frequencies ignored.
 Zero-point vibrational energy      35058.6 (Joules/Mol)
                                    8.37921 (Kcal/Mol)
 Vibrational temperatures:   2005.91  6427.26
          (Kelvin)

 Zero-point correction=                           0.013353 (Hartree/Particle)
 Thermal correction to Energy=                    0.015721
 Thermal correction to Enthalpy=                  0.016665
 Thermal correction to Gibbs Free Energy=        -0.005300
 Sum of electronic and zero-point Energies=           -100.915977
 Sum of electronic and thermal Energies=              -100.913609
 Sum of electronic and thermal Enthalpies=            -100.912665
 Sum of electronic and thermal Free Energies=         -100.934631

                     E (Thermal)             CV                S
                      KCal/Mol        Cal/Mol-Kelvin    Cal/Mol-Kelvin
 Total                    9.865              5.076             46.230
 Electronic               0.000              0.000              1.377
 Translational            0.889              2.981             35.068
 Rotational               0.592              1.987              9.766
 Vibrational              8.384              0.108              0.018

 Normal termination of Gaussian 16 at Fri Aug 22 16:04:25 2025.
