 Gaussian 16, Revision C.01,
 Gaussian 16:  ES64L-G16RevC.01  3-Jul-2019

 -----------------------------------------
 # sp b3lyp/6-311g** Force nosymm scf=(qc)
 -----------------------------------------

 -------------------
 Title Card Required
 -------------------
 Symbolic Z-matrix:
 Charge =  0 Multiplicity = 2

                          Input orientation:
 ---------------------------------------------------------------------
 Center     Atomic      Atomic             Coordinates (Angstroms)
 Number     Number       Type             X           Y           Z
 ---------------------------------------------------------------------
      1          1           0        0.000000    0.000000    0.000000
      2          1           0       -3.650000    0.000000    0.000000
      3          9           0        3.250000    0.000000    0.000000
 ---------------------------------------------------------------------

 SCF Done:  E(UB3LYP) =  -100.759693943     a.u. after   22 cycles

 Alpha  occ. eigenvalues --  -24.74849  -1.20853  -0.53971  -0.45315  -0.45315
 Alpha  occ. eigenvalues --   -0.32399
 Alpha virt. eigenvalues --   -0.07248   0.24082   0.36641   0.88463   0.91812
 Alpha virt. eigenvalues --    0.91812   1.02651   1.25102   1.25102   1.25189
 Alpha virt. eigenvalues --    1.45018   1.45018   1.45286   2.14746   2.41295

  Beta  occ. eigenvalues --  -24.71770  -1.12014  -0.42231  -0.42231  -0.33196
  Beta virt. eigenvalues --   -0.25199  -0.06283   0.23865   0.38047   0.93290
  Beta virt. eigenvalues --    0.93290   0.97412   1.06543   1.24183   1.24183
  Beta virt. eigenvalues --    1.24292   1.46148   1.46363   1.46363   2.15023

 Mulliken charges and spin densities:
               1          2
     1  H    0.021584  -0.974695
     2  H    0.000199   0.998558
     3  F   -0.021783   0.976138
 Sum of Mulliken charges =  -0.00000   1.00000

 Dipole moment (field-independent basis, Debye):
    X=             -0.3673    Y=              0.0000    Z=              0.0000  Tot=              0.3673
 Quadrupole moment (field-independent basis, Debye-Ang):
   XX=             -7.8313   YY=             -7.6157   ZZ=             -7.6157
   XY=             -0.0000   XZ=             -0.0000   YZ=              0.0000

  Exact polarizability:      28.721      -0.000       2.030      -0.000      -0.000       2.030
 Approx polarizability:      25.676      -0.000       1.930      -0.000      -0.000       1.930

 ******    2 imaginary frequencies (negative Signs) ******

                      1                      2                      3
                      A                      A                      A
 Frequencies --   -291.7264               -98.2273                94.9969
 Red. masses --      1.0438                 1.0680                 1.0194
 Frc consts  --      0.0523                 0.0061                 0.0054
 IR Inten    --     23.3133                 0.5322                 0.4315

                      4
                      A
 Frequencies --     94.9969
 Red. masses --      1.0194
 Frc consts  --      0.0054
 IR Inten    --      0.4315

 - Thermochemistry -
 -------------------
 Temperature   298.150 Kelvin.  Pressure   1.00000 Atm.
 Atom     1 has atomic number  1 and mass   1.00783

 Molecular mass:    21.01405 amu.
 Principal axes and moments of inertia in atomic units:
                           1         2         3
     Eigenvalues --     0.00000 191.58093 191.58093
           X            1.00000  -0.00000   0.00000
           Y            0.00000   1.00000   0.00000
           Z            0.00000   0.00000   1.00000
 This molecule is a prolate symmetric top.
 Rotational symmetry number  1.
 Rotational temperature (Kelvin)      0.45210
 Rotational constant (GHZ):           9.420255
    2 imaginary frequencies ignored.
 Zero-point vibrational energy       1136.4 (Joules/Mol)
                                    0.27161 (Kcal/Mol)
 Warning -- explicit consideration of   2 degrees of freedom as
           vibrations may cause significant error
 Vibrational temperatures:    136.68   136.68
          (Kelvin)

 Zero-point correction=                           0.000433 (Hartree/Particle)
 Thermal correction to Energy=                    0.004282
 Thermal correction to Enthalpy=                  0.005226
 Thermal correction to Gibbs Free Energy=        -0.022541
 Sum of electronic and zero-point Energies=           -100.759261
 Sum of electronic and thermal Energies=              -100.755412
 Sum of electronic and thermal Enthalpies=            -100.754468
 Sum of electronic and thermal Free Energies=         -100.782235

                     E (Thermal)             CV                S
                      KCal/Mol        Cal/Mol-Kelvin    Cal/Mol-Kelvin
 Total                    2.687              8.874             58.441
 Electronic               0.000              0.000              1.377
 Translational            0.889              2.981             35.068
 Rotational               0.592              1.987             14.887
 Vibrational              1.206              3.906              7.109
 Vibration     1          0.603              1.953              3.554
 Vibration     2          0.603              1.953              3.554

 Normal termination of Gaussian 16 at Fri Aug 22 20:36:23 2025.
