 Gaussian 16, Revision C.01,
 Gaussian 16:  ES64L-G16RevC.01  3-Jul-2019

 -----------------------------------------
 # sp b3lyp/6-311g** Force nosymm scf=(qc)
 -----------------------------------------

 -------------------
 Title Card Required
 -------------------
 Symbolic Z-matrix:
 Charge =  0 Multiplicity = 2

                          Input orientation:
 ---------------------------------------------------------------------
 Center     Atomic      Atomic             Coordinates (Angstroms)
 Number     Number       Type             X           Y           Z
 ---------------------------------------------------------------------
      1          1           0        0.000000    0.000000    0.000000
      2          1           0       -3.600000    0.000000    0.000000
      3          9           0        4.000000    0.000000    0.000000
 ---------------------------------------------------------------------

 SCF Done:  E(UB3LYP) =  -100.758558355     a.u. after   41 cycles

 Alpha  occ. eigenvalues --  -24.75879  -1.21806  -0.55004  -0.46183  -0.46183
 Alpha  occ. eigenvalues --   -0.32249
 Alpha virt. eigenvalues --   -0.06482   0.24315   0.37805   0.86562   0.91171
 Alpha virt. eigenvalues --    0.91171   1.01082   1.25252   1.25252   1.25356
 Alpha virt. eigenvalues --    1.45797   1.46019   1.46019   2.14969   2.41507

  Beta  occ. eigenvalues --  -24.72734  -1.12761  -0.43029  -0.43029  -0.32442
  Beta virt. eigenvalues --   -0.25731  -0.06283   0.24164   0.38077   0.92670
  Beta virt. eigenvalues --    0.92670   0.95940   1.05209   1.25045   1.25045
  Beta virt. eigenvalues --    1.25136   1.46111   1.46316   1.46316   2.14944

 Mulliken charges and spin densities:
               1          2
     1  H    0.002370  -0.995624
     2  H    0.000051   0.998319
     3  F   -0.002421   0.997305
 Sum of Mulliken charges =   0.00000   1.00000

 Dipole moment (field-independent basis, Debye):
    X=             -0.0512    Y=              0.0000    Z=             -0.0000  Tot=              0.0512
 Quadrupole moment (field-independent basis, Debye-Ang):
   XX=             -6.9069   YY=             -7.6225   ZZ=             -7.6225
   XY=              0.0000   XZ=             -0.0000   YZ=             -0.0000

  Exact polarizability:      10.624      -0.000       2.031      -0.000      -0.000       2.031
 Approx polarizability:       7.970       0.000       1.937      -0.000       0.000       1.937

 ******    2 imaginary frequencies (negative Signs) ******

                      1                      2                      3
                      A                      A                      A
 Frequencies --   -175.9096               -67.9039                58.4501
 Red. masses --      1.0122                 1.1032                 1.0167
 Frc consts  --      0.0185                 0.0030                 0.0020
 IR Inten    --      0.7942                 0.3602                 0.0056

                      4
                      A
 Frequencies --     58.4501
 Red. masses --      1.0167
 Frc consts  --      0.0020
 IR Inten    --      0.0056

 - Thermochemistry -
 -------------------
 Temperature   298.150 Kelvin.  Pressure   1.00000 Atm.
 Atom     1 has atomic number  1 and mass   1.00783

 Molecular mass:    21.01405 amu.
 Principal axes and moments of inertia in atomic units:
                           1         2         3
     Eigenvalues --     0.00000 242.23688 242.23688
           X            1.00000  -0.00000   0.00000
           Y            0.00000   1.00000   0.00000
           Z            0.00000   0.00000   1.00000
 This molecule is a prolate symmetric top.
 Rotational symmetry number  1.
 Rotational temperature (Kelvin)      0.35756
 Rotational constant (GHZ):           7.450315
    2 imaginary frequencies ignored.
 Zero-point vibrational energy        699.2 (Joules/Mol)
                                    0.16712 (Kcal/Mol)
 Warning -- explicit consideration of   2 degrees of freedom as
           vibrations may cause significant error
 Vibrational temperatures:     84.10    84.10
          (Kelvin)

 Zero-point correction=                           0.000266 (Hartree/Particle)
 Thermal correction to Energy=                    0.004261
 Thermal correction to Enthalpy=                  0.005206
 Thermal correction to Gibbs Free Energy=        -0.023690
 Sum of electronic and zero-point Energies=           -100.758292
 Sum of electronic and thermal Energies=              -100.754297
 Sum of electronic and thermal Enthalpies=            -100.753353
 Sum of electronic and thermal Free Energies=         -100.782249

                     E (Thermal)             CV                S
                      KCal/Mol        Cal/Mol-Kelvin    Cal/Mol-Kelvin
 Total                    2.674              8.916             60.816
 Electronic               0.000              0.000              1.377
 Translational            0.889              2.981             35.068
 Rotational               0.592              1.987             15.353
 Vibrational              1.193              3.948              9.018
 Vibration     1          0.596              1.974              4.509
 Vibration     2          0.596              1.974              4.509

 Normal termination of Gaussian 16 at Sat Aug 23 01:58:32 2025.
