 Gaussian 16, Revision C.01,
 Gaussian 16:  ES64L-G16RevC.01  3-Jul-2019

 -----------------------------------------
 # sp b3lyp/6-311g** Force nosymm scf=(qc)
 -----------------------------------------

 -------------------
 Title Card Required
 -------------------
 Symbolic Z-matrix:
 Charge =  0 Multiplicity = 2

                          Input orientation:
 ---------------------------------------------------------------------
 Center     Atomic      Atomic             Coordinates (Angstroms)
 Number     Number       Type             X           Y           Z
 ---------------------------------------------------------------------
      1          1           0        0.000000    0.000000    0.000000
      2          1           0       -1.400000    0.000000    0.000000
      3          9           0        1.650000    0.000000    0.000000
 ---------------------------------------------------------------------

 SCF Done:  E(UB3LYP) =  -100.868078230     a.u. after   14 cycles

 Alpha  occ. eigenvalues --  -24.67092  -1.13697  -0.48172  -0.39160  -0.38977
 Alpha  occ. eigenvalues --   -0.38977
 Alpha virt. eigenvalues --   -0.07091   0.21015   0.30141   0.92903   0.93144
 Alpha virt. eigenvalues --    0.93144   1.03512   1.13660   1.13660   1.42863
 Alpha virt. eigenvalues --    1.42863   1.44716   1.93480   2.21139   2.46806

  Beta  occ. eigenvalues --  -24.65046  -1.08081  -0.40253  -0.36986  -0.36986
  Beta virt. eigenvalues --   -0.22888  -0.04271   0.23536   0.30750   0.93571
  Beta virt. eigenvalues --    0.93571   0.97401   1.07112   1.17849   1.17849
  Beta virt. eigenvalues --    1.44180   1.44180   1.49436   1.96791   2.23316

 Mulliken charges and spin densities:
               1          2
     1  H    0.170769  -0.254722
     2  H    0.072193   0.618429
     3  F   -0.242962   0.636293
 Sum of Mulliken charges =   0.00000   1.00000

 Dipole moment (field-independent basis, Debye):
    X=             -2.4382    Y=              0.0000    Z=              0.0000  Tot=              2.4382
 Quadrupole moment (field-independent basis, Debye-Ang):
   XX=             -7.9125   YY=             -7.3142   ZZ=             -7.3142
   XY=             -0.0000   XZ=             -0.0000   YZ=              0.0000

  Exact polarizability:      40.859      -0.000       2.254      -0.000       0.000       2.254
 Approx polarizability:      63.013       0.000       2.200       0.000       0.000       2.200

 ******    2 imaginary frequencies (negative Signs) ******

                      1                      2                      3
                      A                      A                      A
 Frequencies --  -2506.4920              -438.8422              1128.5023
 Red. masses --      1.0194                 1.0948                 1.0161
 Frc consts  --      3.7735                 0.1242                 0.7624
 IR Inten    --    825.2717                 1.2502                10.1282

                      4
                      A
 Frequencies --   1128.5023
 Red. masses --      1.0161
 Frc consts  --      0.7624
 IR Inten    --     10.1282

 - Thermochemistry -
 -------------------
 Temperature   298.150 Kelvin.  Pressure   1.00000 Atm.
 Atom     1 has atomic number  1 and mass   1.00783

 Molecular mass:    21.01405 amu.
 Principal axes and moments of inertia in atomic units:
                           1         2         3
     Eigenvalues --     0.00000  39.46519  39.46519
           X            1.00000  -0.00000   0.00000
           Y            0.00000   1.00000   0.00000
           Z            0.00000   0.00000   1.00000
 This molecule is a prolate symmetric top.
 Rotational symmetry number  1.
 Rotational temperature (Kelvin)      2.19469
 Rotational constant (GHZ):          45.729950
    2 imaginary frequencies ignored.
 Zero-point vibrational energy      13499.9 (Joules/Mol)
                                    3.22655 (Kcal/Mol)
 Vibrational temperatures:   1623.66  1623.66
          (Kelvin)

 Zero-point correction=                           0.005142 (Hartree/Particle)
 Thermal correction to Energy=                    0.007547
 Thermal correction to Enthalpy=                  0.008491
 Thermal correction to Gibbs Free Energy=        -0.014460
 Sum of electronic and zero-point Energies=           -100.862936
 Sum of electronic and thermal Energies=              -100.860531
 Sum of electronic and thermal Enthalpies=            -100.859587
 Sum of electronic and thermal Free Energies=         -100.882538

                     E (Thermal)             CV                S
                      KCal/Mol        Cal/Mol-Kelvin    Cal/Mol-Kelvin
 Total                    4.736              5.481             48.304
 Electronic               0.000              0.000              1.377
 Translational            0.889              2.981             35.068
 Rotational               0.592              1.987             11.747
 Vibrational              3.255              0.513              0.111

 Normal termination of Gaussian 16 at Fri Aug 22 16:33:44 2025.
