 Gaussian 16, Revision C.01,
 Gaussian 16:  ES64L-G16RevC.01  3-Jul-2019

 -----------------------------------------
 # sp b3lyp/6-311g** Force nosymm scf=(qc)
 -----------------------------------------

 -------------------
 Title Card Required
 -------------------
 Symbolic Z-matrix:
 Charge =  0 Multiplicity = 2

                          Input orientation:
 ---------------------------------------------------------------------
 Center     Atomic      Atomic             Coordinates (Angstroms)
 Number     Number       Type             X           Y           Z
 ---------------------------------------------------------------------
      1          1           0        0.000000    0.000000    0.000000
      2          1           0       -2.800000    0.000000    0.000000
      3          9           0        0.800000    0.000000    0.000000
 ---------------------------------------------------------------------

 SCF Done:  E(UB3LYP) =  -100.950460859     a.u. after    6 cycles

 Alpha  occ. eigenvalues --  -24.63642  -1.23005  -0.56171  -0.40616  -0.40616
 Alpha  occ. eigenvalues --   -0.34210
 Alpha virt. eigenvalues --    0.05730   0.25444   0.45796   0.94237   0.94237
 Alpha virt. eigenvalues --    0.96985   1.21172   1.23327   1.23327   1.35602
 Alpha virt. eigenvalues --    1.39854   1.39854   2.03086   2.14534   2.53124

  Beta  occ. eigenvalues --  -24.63637  -1.22991  -0.56153  -0.40612  -0.40612
  Beta virt. eigenvalues --   -0.07391   0.07000   0.38457   0.46095   0.94238
  Beta virt. eigenvalues --    0.94238   0.96993   1.30197   1.39851   1.39851
  Beta virt. eigenvalues --    1.48625   1.48625   1.51603   2.03086   2.43330

 Mulliken charges and spin densities:
               1          2
     1  H    0.272549   0.002069
     2  H    0.003016   0.995746
     3  F   -0.275566   0.002186
 Sum of Mulliken charges =   0.00000   1.00000

 Dipole moment (field-independent basis, Debye):
    X=             -1.7757    Y=             -0.0000    Z=              0.0000  Tot=              1.7757
 Quadrupole moment (field-independent basis, Debye-Ang):
   XX=             -7.4784   YY=             -6.7667   ZZ=             -6.7667
   XY=             -0.0000   XZ=              0.0000   YZ=              0.0000

  Exact polarizability:       5.697      -0.000       2.459      -0.000       0.000       2.459
 Approx polarizability:       6.119       0.000       2.442      -0.000       0.000       2.442

 ******    3 imaginary frequencies (negative Signs) ******

                      1                      2                      3
                      A                      A                      A
 Frequencies --  -1967.5547             -1967.5547               -31.0352
 Red. masses --      1.0370                 1.0370                 1.0532
 Frc consts  --      2.3652                 2.3652                 0.0006
 IR Inten    --    188.1328               188.1328                 0.2088

                      4
                      A
 Frequencies --   6348.4902
 Red. masses --      1.0583
 Frc consts  --     25.1311
 IR Inten    --    117.3460

 - Thermochemistry -
 -------------------
 Temperature   298.150 Kelvin.  Pressure   1.00000 Atm.
 Atom     1 has atomic number  1 and mass   1.00783

 Molecular mass:    21.01405 amu.
 Principal axes and moments of inertia in atomic units:
                           1         2         3
     Eigenvalues --     0.00000  45.60485  45.60485
           X            1.00000  -0.00000   0.00000
           Y            0.00000   1.00000   0.00000
           Z            0.00000   0.00000   1.00000
 This molecule is a prolate symmetric top.
 Rotational symmetry number  1.
 Rotational temperature (Kelvin)      1.89923
 Rotational constant (GHZ):          39.573452
    3 imaginary frequencies ignored.
 Zero-point vibrational energy      37972.4 (Joules/Mol)
                                    9.07562 (Kcal/Mol)
 Vibrational temperatures:   9134.06
          (Kelvin)

 Zero-point correction=                           0.014463 (Hartree/Particle)
 Thermal correction to Energy=                    0.016823
 Thermal correction to Enthalpy=                  0.017768
 Thermal correction to Gibbs Free Energy=        -0.005267
 Sum of electronic and zero-point Energies=           -100.935998
 Sum of electronic and thermal Energies=              -100.933637
 Sum of electronic and thermal Enthalpies=            -100.932693
 Sum of electronic and thermal Free Energies=         -100.955728

                     E (Thermal)             CV                S
                      KCal/Mol        Cal/Mol-Kelvin    Cal/Mol-Kelvin
 Total                   10.557              4.968             48.480
 Electronic               0.000              0.000              1.377
 Translational            0.889              2.981             35.068
 Rotational               0.592              1.987             12.035
 Vibrational              9.076              0.000              0.000

 Normal termination of Gaussian 16 at Fri Aug 22 15:51:37 2025.
