 Gaussian 16, Revision C.01,
 Gaussian 16:  ES64L-G16RevC.01  3-Jul-2019

 -----------------------------------------
 # sp b3lyp/6-311g** Force nosymm scf=(qc)
 -----------------------------------------

 -------------------
 Title Card Required
 -------------------
 Symbolic Z-matrix:
 Charge =  0 Multiplicity = 2

                          Input orientation:
 ---------------------------------------------------------------------
 Center     Atomic      Atomic             Coordinates (Angstroms)
 Number     Number       Type             X           Y           Z
 ---------------------------------------------------------------------
      1          1           0        0.000000    0.000000    0.000000
      2          1           0       -3.900000    0.000000    0.000000
      3          9           0        3.350000    0.000000    0.000000
 ---------------------------------------------------------------------

 SCF Done:  E(UB3LYP) =  -100.759249713     a.u. after   25 cycles

 Alpha  occ. eigenvalues --  -24.75086  -1.21071  -0.54208  -0.45514  -0.45514
 Alpha  occ. eigenvalues --   -0.32335
 Alpha virt. eigenvalues --   -0.06680   0.24065   0.36926   0.88085   0.91667
 Alpha virt. eigenvalues --    0.91667   1.02264   1.25161   1.25161   1.25191
 Alpha virt. eigenvalues --    1.45846   1.45846   1.46236   2.14544   2.42013

  Beta  occ. eigenvalues --  -24.71991  -1.12184  -0.42413  -0.42413  -0.33019
  Beta virt. eigenvalues --   -0.25324  -0.05940   0.23797   0.38166   0.93150
  Beta virt. eigenvalues --    0.93150   0.97114   1.06204   1.24376   1.24376
  Beta virt. eigenvalues --    1.24405   1.46572   1.46701   1.46701   2.14761

 Mulliken charges and spin densities:
               1          2
     1  H    0.017114  -0.980377
     2  H    0.000085   0.999213
     3  F   -0.017199   0.981164
 Sum of Mulliken charges =  -0.00000   1.00000

 Dipole moment (field-independent basis, Debye):
    X=             -0.2977    Y=              0.0000    Z=              0.0000  Tot=              0.2977
 Quadrupole moment (field-independent basis, Debye-Ang):
   XX=             -7.6692   YY=             -7.6154   ZZ=             -7.6154
   XY=              0.0000   XZ=              0.0000   YZ=              0.0000

  Exact polarizability:      26.375       0.000       2.033       0.000      -0.000       2.033
 Approx polarizability:      22.496       0.000       1.932       0.000      -0.000       1.932

 ******    2 imaginary frequencies (negative Signs) ******

                      1                      2                      3
                      A                      A                      A
 Frequencies --   -254.0295               -75.0989                77.0872
 Red. masses --      1.0480                 1.0637                 1.0199
 Frc consts  --      0.0398                 0.0035                 0.0036
 IR Inten    --     18.1771                 0.2012                 0.2731

                      4
                      A
 Frequencies --     77.0872
 Red. masses --      1.0199
 Frc consts  --      0.0036
 IR Inten    --      0.2731

 - Thermochemistry -
 -------------------
 Temperature   298.150 Kelvin.  Pressure   1.00000 Atm.
 Atom     1 has atomic number  1 and mass   1.00783

 Molecular mass:    21.01405 amu.
 Principal axes and moments of inertia in atomic units:
                           1         2         3
     Eigenvalues --     0.00000 210.16865 210.16865
           X            1.00000  -0.00000   0.00000
           Y            0.00000   1.00000   0.00000
           Z            0.00000   0.00000   1.00000
 This molecule is a prolate symmetric top.
 Rotational symmetry number  1.
 Rotational temperature (Kelvin)      0.41212
 Rotational constant (GHZ):           8.587110
    2 imaginary frequencies ignored.
 Zero-point vibrational energy        922.2 (Joules/Mol)
                                    0.22040 (Kcal/Mol)
 Warning -- explicit consideration of   2 degrees of freedom as
           vibrations may cause significant error
 Vibrational temperatures:    110.91   110.91
          (Kelvin)

 Zero-point correction=                           0.000351 (Hartree/Particle)
 Thermal correction to Energy=                    0.004271
 Thermal correction to Enthalpy=                  0.005215
 Thermal correction to Gibbs Free Energy=        -0.023029
 Sum of electronic and zero-point Energies=           -100.758898
 Sum of electronic and thermal Energies=              -100.754979
 Sum of electronic and thermal Enthalpies=            -100.754035
 Sum of electronic and thermal Free Energies=         -100.782279

                     E (Thermal)             CV                S
                      KCal/Mol        Cal/Mol-Kelvin    Cal/Mol-Kelvin
 Total                    2.680              8.897             59.444
 Electronic               0.000              0.000              1.377
 Translational            0.889              2.981             35.068
 Rotational               0.592              1.987             15.071
 Vibrational              1.199              3.929              7.927
 Vibration     1          0.599              1.964              3.964
 Vibration     2          0.599              1.964              3.964

 Normal termination of Gaussian 16 at Fri Aug 22 21:03:41 2025.
