 Gaussian 16, Revision C.01,
 Gaussian 16:  ES64L-G16RevC.01  3-Jul-2019

 -----------------------------------------
 # sp b3lyp/6-311g** Force nosymm scf=(qc)
 -----------------------------------------

 -------------------
 Title Card Required
 -------------------
 Symbolic Z-matrix:
 Charge =  0 Multiplicity = 2

                          Input orientation:
 ---------------------------------------------------------------------
 Center     Atomic      Atomic             Coordinates (Angstroms)
 Number     Number       Type             X           Y           Z
 ---------------------------------------------------------------------
      1          1           0        0.000000    0.000000    0.000000
      2          1           0       -3.000000    0.000000    0.000000
      3          9           0        3.600000    0.000000    0.000000
 ---------------------------------------------------------------------

 SCF Done:  E(UB3LYP) =  -100.759831803     a.u. after   32 cycles

 Alpha  occ. eigenvalues --  -24.75553  -1.21504  -0.54676  -0.45907  -0.45907
 Alpha  occ. eigenvalues --   -0.32414
 Alpha virt. eigenvalues --   -0.07939   0.24988   0.36088   0.87315   0.91376
 Alpha virt. eigenvalues --    0.91376   1.01577   1.25122   1.25122   1.25836
 Alpha virt. eigenvalues --    1.44005   1.44028   1.44028   2.15749   2.39530

  Beta  occ. eigenvalues --  -24.72429  -1.12524  -0.42775  -0.42775  -0.32767
  Beta virt. eigenvalues --   -0.25572  -0.07495   0.24772   0.36778   0.92868
  Beta virt. eigenvalues --    0.92868   0.96529   1.05631   1.24717   1.24717
  Beta virt. eigenvalues --    1.25397   1.44697   1.44729   1.44729   2.15983

 Mulliken charges and spin densities:
               1          2
     1  H    0.007945  -0.983011
     2  H    0.000543   0.992425
     3  F   -0.008488   0.990586
 Sum of Mulliken charges =  -0.00000   1.00000

 Dipole moment (field-independent basis, Debye):
    X=             -0.1650    Y=              0.0000    Z=              0.0000  Tot=              0.1650
 Quadrupole moment (field-independent basis, Debye-Ang):
   XX=             -7.1797   YY=             -7.6352   ZZ=             -7.6352
   XY=             -0.0000   XZ=             -0.0000   YZ=              0.0000

  Exact polarizability:      23.432      -0.000       2.045      -0.000       0.000       2.045
 Approx polarizability:      17.690      -0.000       1.932      -0.000      -0.000       1.932

 ******    2 imaginary frequencies (negative Signs) ******

                      1                      2                      3
                      A                      A                      A
 Frequencies --   -352.8178              -118.9989               116.4140
 Red. masses --      1.0098                 1.1061                 1.0159
 Frc consts  --      0.0741                 0.0092                 0.0081
 IR Inten    --      4.9630                 3.1267                 0.0411

                      4
                      A
 Frequencies --    116.4141
 Red. masses --      1.0159
 Frc consts  --      0.0081
 IR Inten    --      0.0411

 - Thermochemistry -
 -------------------
 Temperature   298.150 Kelvin.  Pressure   1.00000 Atm.
 Atom     1 has atomic number  1 and mass   1.00783

 Molecular mass:    21.01405 amu.
 Principal axes and moments of inertia in atomic units:
                           1         2         3
     Eigenvalues --     0.00000 185.45794 185.45794
           X            1.00000  -0.00000   0.00000
           Y            0.00000   1.00000   0.00000
           Z            0.00000   0.00000   1.00000
 This molecule is a prolate symmetric top.
 Rotational symmetry number  1.
 Rotational temperature (Kelvin)      0.46703
 Rotational constant (GHZ):           9.731270
    2 imaginary frequencies ignored.
 Zero-point vibrational energy       1392.6 (Joules/Mol)
                                    0.33284 (Kcal/Mol)
 Warning -- explicit consideration of   2 degrees of freedom as
           vibrations may cause significant error
 Vibrational temperatures:    167.49   167.49
          (Kelvin)

 Zero-point correction=                           0.000530 (Hartree/Particle)
 Thermal correction to Energy=                    0.004298
 Thermal correction to Enthalpy=                  0.005242
 Thermal correction to Gibbs Free Energy=        -0.022119
 Sum of electronic and zero-point Energies=           -100.759301
 Sum of electronic and thermal Energies=              -100.755534
 Sum of electronic and thermal Enthalpies=            -100.754589
 Sum of electronic and thermal Free Energies=         -100.781950

                     E (Thermal)             CV                S
                      KCal/Mol        Cal/Mol-Kelvin    Cal/Mol-Kelvin
 Total                    2.697              8.840             57.586
 Electronic               0.000              0.000              1.377
 Translational            0.889              2.981             35.068
 Rotational               0.592              1.987             14.822
 Vibrational              1.216              3.872              6.318
 Vibration     1          0.608              1.936              3.159
 Vibration     2          0.608              1.936              3.159

 Normal termination of Gaussian 16 at Fri Aug 22 23:07:08 2025.
