 Gaussian 16, Revision C.01,
 Gaussian 16:  ES64L-G16RevC.01  3-Jul-2019

 -----------------------------------------
 # sp b3lyp/6-311g** Force nosymm scf=(qc)
 -----------------------------------------

 -------------------
 Title Card Required
 -------------------
 Symbolic Z-matrix:
 Charge =  0 Multiplicity = 2

                          Input orientation:
 ---------------------------------------------------------------------
 Center     Atomic      Atomic             Coordinates (Angstroms)
 Number     Number       Type             X           Y           Z
 ---------------------------------------------------------------------
      1          1           0        0.000000    0.000000    0.000000
      2          1           0       -1.650000    0.000000    0.000000
      3          9           0        1.000000    0.000000    0.000000
 ---------------------------------------------------------------------

 SCF Done:  E(UB3LYP) =  -100.967208319     a.u. after    6 cycles

 Alpha  occ. eigenvalues --  -24.63553  -1.15689  -0.52250  -0.38319  -0.38319
 Alpha  occ. eigenvalues --   -0.36919
 Alpha virt. eigenvalues --    0.06428   0.22030   0.33764   0.94357   0.94357
 Alpha virt. eigenvalues --    0.99033   1.14200   1.18196   1.18196   1.38811
 Alpha virt. eigenvalues --    1.38811   1.52453   1.93698   2.31463   2.36238

  Beta  occ. eigenvalues --  -24.63356  -1.15198  -0.50996  -0.38146  -0.38146
  Beta virt. eigenvalues --   -0.14869   0.08918   0.28652   0.36670   0.94438
  Beta virt. eigenvalues --    0.94438   0.99514   1.23408   1.30438   1.30438
  Beta virt. eigenvalues --    1.43781   1.43781   1.56201   2.03847   2.33446

 Mulliken charges and spin densities:
               1          2
     1  H    0.295653   0.001953
     2  H    0.029225   0.945856
     3  F   -0.324878   0.052191
 Sum of Mulliken charges =   0.00000   1.00000

 Dipole moment (field-independent basis, Debye):
    X=             -2.2915    Y=              0.0000    Z=             -0.0000  Tot=              2.2915
 Quadrupole moment (field-independent basis, Debye-Ang):
   XX=             -7.6643   YY=             -6.8666   ZZ=             -6.8666
   XY=              0.0000   XZ=             -0.0000   YZ=             -0.0000

  Exact polarizability:      12.253      -0.000       2.495      -0.000      -0.000       2.495
 Approx polarizability:      13.343      -0.000       2.485       0.000      -0.000       2.485

                      1                      2                      3
                      A                      A                      A
 Frequencies --    235.2702               889.6852               889.6852
 Red. masses --      1.0492                 1.0250                 1.0250
 Frc consts  --      0.0342                 0.4780                 0.4780
 IR Inten    --      2.1021               111.8373               111.8373

                      4
                      A
 Frequencies --   2875.7156
 Red. masses --      1.0624
 Frc consts  --      5.1766
 IR Inten    --    218.6456

 - Thermochemistry -
 -------------------
 Temperature   298.150 Kelvin.  Pressure   1.00000 Atm.
 Atom     1 has atomic number  1 and mass   1.00783

 Molecular mass:    21.01405 amu.
 Principal axes and moments of inertia in atomic units:
                           1         2         3
     Eigenvalues --     0.00000  26.57349  26.57349
           X            1.00000  -0.00000   0.00000
           Y            0.00000   1.00000   0.00000
           Z            0.00000   0.00000   1.00000
 This molecule is a prolate symmetric top.
 Rotational symmetry number  1.
 Rotational temperature (Kelvin)      3.25941
 Rotational constant (GHZ):          67.915098
 Zero-point vibrational energy      29250.8 (Joules/Mol)
                                    6.99112 (Kcal/Mol)
 Warning -- explicit consideration of   1 degrees of freedom as
           vibrations may cause significant error
 Vibrational temperatures:    338.50  1280.06  1280.06  4137.51
          (Kelvin)

 Zero-point correction=                           0.011141 (Hartree/Particle)
 Thermal correction to Energy=                    0.014121
 Thermal correction to Enthalpy=                  0.015065
 Thermal correction to Gibbs Free Energy=        -0.008471
 Sum of electronic and zero-point Energies=           -100.956067
 Sum of electronic and thermal Energies=              -100.953087
 Sum of electronic and thermal Enthalpies=            -100.952143
 Sum of electronic and thermal Free Energies=         -100.975679

                     E (Thermal)             CV                S
                      KCal/Mol        Cal/Mol-Kelvin    Cal/Mol-Kelvin
 Total                    8.861              7.784             49.536
 Electronic               0.000              0.000              1.377
 Translational            0.889              2.981             35.068
 Rotational               0.592              1.987             10.962
 Vibrational              7.380              2.816              2.129
 Vibration     1          0.655              1.787              1.838

 Normal termination of Gaussian 16 at Fri Aug 22 16:00:18 2025.
