 Gaussian 16, Revision C.01,
 Gaussian 16:  ES64L-G16RevC.01  3-Jul-2019

 -----------------------------------------
 # sp b3lyp/6-311g** Force nosymm scf=(qc)
 -----------------------------------------

 -------------------
 Title Card Required
 -------------------
 Symbolic Z-matrix:
 Charge =  0 Multiplicity = 2

                          Input orientation:
 ---------------------------------------------------------------------
 Center     Atomic      Atomic             Coordinates (Angstroms)
 Number     Number       Type             X           Y           Z
 ---------------------------------------------------------------------
      1          1           0        0.000000    0.000000    0.000000
      2          1           0       -1.000000    0.000000    0.000000
      3          9           0        1.450000    0.000000    0.000000
 ---------------------------------------------------------------------

 SCF Done:  E(UB3LYP) =  -100.926769852     a.u. after    8 cycles

 Alpha  occ. eigenvalues --  -24.68445  -1.15729  -0.53175  -0.40516  -0.40516
 Alpha  occ. eigenvalues --   -0.40305
 Alpha virt. eigenvalues --    0.03966   0.19851   0.34959   0.89835   0.89835
 Alpha virt. eigenvalues --    0.98758   1.07693   1.07693   1.20956   1.63551
 Alpha virt. eigenvalues --    1.63551   1.64038   2.21866   2.32058   2.48146

  Beta  occ. eigenvalues --  -24.66258  -1.09805  -0.44785  -0.38409  -0.38409
  Beta virt. eigenvalues --   -0.23073   0.06425   0.21480   0.37249   0.90806
  Beta virt. eigenvalues --    0.90806   1.04006   1.11112   1.11112   1.24740
  Beta virt. eigenvalues --    1.65572   1.65572   1.67702   2.24769   2.36302

 Mulliken charges and spin densities:
               1          2
     1  H    0.176321  -0.097360
     2  H    0.048418   0.436128
     3  F   -0.224739   0.661232
 Sum of Mulliken charges =   0.00000   1.00000

 Dipole moment (field-independent basis, Debye):
    X=             -1.8399    Y=             -0.0000    Z=             -0.0000  Tot=              1.8399
 Quadrupole moment (field-independent basis, Debye-Ang):
   XX=             -7.4083   YY=             -6.9850   ZZ=             -6.9850
   XY=             -0.0000   XZ=             -0.0000   YZ=             -0.0000

  Exact polarizability:      27.139       0.000       2.394      -0.000       0.000       2.394
 Approx polarizability:      39.215       0.000       2.388       0.000       0.000       2.388

 ******    1 imaginary frequencies (negative Signs) ******

                      1                      2                      3
                      A                      A                      A
 Frequencies --  -1864.8798              1070.1017              1210.8684
 Red. masses --      1.0449                 1.0669                 1.0141
 Frc consts  --      2.1410                 0.7198                 0.8760
 IR Inten    --    847.5998               166.6823                 6.2911

                      4
                      A
 Frequencies --   1210.8684
 Red. masses --      1.0141
 Frc consts  --      0.8760
 IR Inten    --      6.2911

 - Thermochemistry -
 -------------------
 Temperature   298.150 Kelvin.  Pressure   1.00000 Atm.
 Atom     1 has atomic number  1 and mass   1.00783

 Molecular mass:    21.01405 amu.
 Principal axes and moments of inertia in atomic units:
                           1         2         3
     Eigenvalues --     0.00000  26.54461  26.54461
           X            1.00000  -0.00000   0.00000
           Y            0.00000   1.00000   0.00000
           Z            0.00000   0.00000   1.00000
 This molecule is a prolate symmetric top.
 Rotational symmetry number  1.
 Rotational temperature (Kelvin)      3.26296
 Rotational constant (GHZ):          67.988981
    1 imaginary frequencies ignored.
 Zero-point vibrational energy      20885.8 (Joules/Mol)
                                    4.99183 (Kcal/Mol)
 Vibrational temperatures:   1539.64  1742.17  1742.17
          (Kelvin)

 Zero-point correction=                           0.007955 (Hartree/Particle)
 Thermal correction to Energy=                    0.010376
 Thermal correction to Enthalpy=                  0.011320
 Thermal correction to Gibbs Free Energy=        -0.011275
 Sum of electronic and zero-point Energies=           -100.918815
 Sum of electronic and thermal Energies=              -100.916394
 Sum of electronic and thermal Enthalpies=            -100.915450
 Sum of electronic and thermal Free Energies=         -100.938045

                     E (Thermal)             CV                S
                      KCal/Mol        Cal/Mol-Kelvin    Cal/Mol-Kelvin
 Total                    6.511              5.670             47.554
 Electronic               0.000              0.000              1.377
 Translational            0.889              2.981             35.068
 Rotational               0.592              1.987             10.959
 Vibrational              5.030              0.702              0.149

 Normal termination of Gaussian 16 at Fri Aug 22 16:21:55 2025.
