 Gaussian 16, Revision C.01,
 Gaussian 16:  ES64L-G16RevC.01  3-Jul-2019

 -----------------------------------------
 # sp b3lyp/6-311g** Force nosymm scf=(qc)
 -----------------------------------------

 -------------------
 Title Card Required
 -------------------
 Symbolic Z-matrix:
 Charge =  0 Multiplicity = 2

                          Input orientation:
 ---------------------------------------------------------------------
 Center     Atomic      Atomic             Coordinates (Angstroms)
 Number     Number       Type             X           Y           Z
 ---------------------------------------------------------------------
      1          1           0        0.000000    0.000000    0.000000
      2          1           0       -2.300000    0.000000    0.000000
      3          9           0        2.250000    0.000000    0.000000
 ---------------------------------------------------------------------

 SCF Done:  E(UB3LYP) =  -100.780800020     a.u. after   15 cycles

 Alpha  occ. eigenvalues --  -24.70063  -1.16349  -0.49132  -0.41288  -0.41288
 Alpha  occ. eigenvalues --   -0.34752
 Alpha virt. eigenvalues --   -0.13132   0.24558   0.32164   0.89158   0.94439
 Alpha virt. eigenvalues --    0.94439   1.06421   1.23003   1.23003   1.27228
 Alpha virt. eigenvalues --    1.35677   1.35677   1.48647   2.12898   2.30840

  Beta  occ. eigenvalues --  -24.67393  -1.08800  -0.38637  -0.38637  -0.36291
  Beta virt. eigenvalues --   -0.22320  -0.10638   0.26041   0.33656   0.93774
  Beta virt. eigenvalues --    0.95611   0.95611   1.09016   1.22083   1.22083
  Beta virt. eigenvalues --    1.39211   1.39600   1.39600   1.43285   2.12656

 Mulliken charges and spin densities:
               1          2
     1  H    0.109571  -0.789502
     2  H    0.022061   0.947984
     3  F   -0.131632   0.841517
 Sum of Mulliken charges =   0.00000   1.00000

 Dipole moment (field-independent basis, Debye):
    X=             -1.7332    Y=             -0.0000    Z=              0.0000  Tot=              1.7332
 Quadrupole moment (field-independent basis, Debye-Ang):
   XX=             -8.9414   YY=             -7.5894   ZZ=             -7.5894
   XY=             -0.0000   XZ=              0.0000   YZ=              0.0000

  Exact polarizability:      46.655      -0.000       2.026       0.000       0.000       2.026
 Approx polarizability:      51.774      -0.000       1.927       0.000      -0.000       1.927

 ******    2 imaginary frequencies (negative Signs) ******

                      1                      2                      3
                      A                      A                      A
 Frequencies --  -1081.0829              -438.7866               443.1173
 Red. masses --      1.0213                 1.0927                 1.0182
 Frc consts  --      0.7032                 0.1240                 0.1178
 IR Inten    --     64.7538                35.5870                 9.0648

                      4
                      A
 Frequencies --    443.1173
 Red. masses --      1.0182
 Frc consts  --      0.1178
 IR Inten    --      9.0648

 - Thermochemistry -
 -------------------
 Temperature   298.150 Kelvin.  Pressure   1.00000 Atm.
 Atom     1 has atomic number  1 and mass   1.00783

 Molecular mass:    21.01405 amu.
 Principal axes and moments of inertia in atomic units:
                           1         2         3
     Eigenvalues --     0.00000  84.74711  84.74711
           X            1.00000  -0.00000   0.00000
           Y            0.00000   1.00000   0.00000
           Z            0.00000   0.00000   1.00000
 This molecule is a prolate symmetric top.
 Rotational symmetry number  1.
 Rotational temperature (Kelvin)      1.02203
 Rotational constant (GHZ):          21.295607
    2 imaginary frequencies ignored.
 Zero-point vibrational energy       5300.9 (Joules/Mol)
                                    1.26694 (Kcal/Mol)
 Warning -- explicit consideration of   2 degrees of freedom as
           vibrations may cause significant error
 Vibrational temperatures:    637.55   637.55
          (Kelvin)

 Zero-point correction=                           0.002019 (Hartree/Particle)
 Thermal correction to Energy=                    0.004919
 Thermal correction to Enthalpy=                  0.005863
 Thermal correction to Gibbs Free Energy=        -0.018533
 Sum of electronic and zero-point Energies=           -100.778781
 Sum of electronic and thermal Energies=              -100.775881
 Sum of electronic and thermal Enthalpies=            -100.774937
 Sum of electronic and thermal Free Energies=         -100.799333

                     E (Thermal)             CV                S
                      KCal/Mol        Cal/Mol-Kelvin    Cal/Mol-Kelvin
 Total                    3.087              7.720             51.345
 Electronic               0.000              0.000              1.377
 Translational            0.889              2.981             35.068
 Rotational               0.592              1.987             13.266
 Vibrational              1.605              2.752              1.634
 Vibration     1          0.803              1.376              0.817
 Vibration     2          0.803              1.376              0.817

 Normal termination of Gaussian 16 at Fri Aug 22 17:16:42 2025.
