 Gaussian 16, Revision C.01,
 Gaussian 16:  ES64L-G16RevC.01  3-Jul-2019

 -----------------------------------------
 # sp b3lyp/6-311g** Force nosymm scf=(qc)
 -----------------------------------------

 -------------------
 Title Card Required
 -------------------
 Symbolic Z-matrix:
 Charge =  0 Multiplicity = 2

                          Input orientation:
 ---------------------------------------------------------------------
 Center     Atomic      Atomic             Coordinates (Angstroms)
 Number     Number       Type             X           Y           Z
 ---------------------------------------------------------------------
      1          1           0        0.000000    0.000000    0.000000
      2          1           0       -3.100000    0.000000    0.000000
      3          9           0        0.950000    0.000000    0.000000
 ---------------------------------------------------------------------

 SCF Done:  E(UB3LYP) =  -100.971100743     a.u. after    6 cycles

 Alpha  occ. eigenvalues --  -24.64084  -1.17423  -0.52727  -0.39193  -0.39193
 Alpha  occ. eigenvalues --   -0.34038
 Alpha virt. eigenvalues --    0.02137   0.24831   0.36656   0.94241   0.94241
 Alpha virt. eigenvalues --    0.98154   1.22982   1.23489   1.23489   1.31288
 Alpha virt. eigenvalues --    1.36499   1.36499   1.96226   2.14480   2.35052

  Beta  occ. eigenvalues --  -24.64080  -1.17412  -0.52714  -0.39190  -0.39190
  Beta virt. eigenvalues --   -0.06908   0.03186   0.36477   0.38828   0.94241
  Beta virt. eigenvalues --    0.94241   0.98149   1.30050   1.36496   1.36496
  Beta virt. eigenvalues --    1.49279   1.49279   1.49813   1.96326   2.35007

 Mulliken charges and spin densities:
               1          2
     1  H    0.306784   0.001181
     2  H    0.002083   0.997331
     3  F   -0.308866   0.001488
 Sum of Mulliken charges =   0.00000   1.00000

 Dipole moment (field-independent basis, Debye):
    X=             -1.9847    Y=             -0.0000    Z=              0.0000  Tot=              1.9847
 Quadrupole moment (field-independent basis, Debye-Ang):
   XX=             -7.9955   YY=             -6.9156   ZZ=             -6.9156
   XY=             -0.0000   XZ=              0.0000   YZ=             -0.0000

  Exact polarizability:       6.689      -0.000       2.420       0.000       0.000       2.420
 Approx polarizability:       7.794       0.000       2.397      -0.000       0.000       2.397

 ******    1 imaginary frequencies (negative Signs) ******

                      1                      2                      3
                      A                      A                      A
 Frequencies --    -64.0427               672.0682               672.0682
 Red. masses --      1.0532                 1.0359                 1.0359
 Frc consts  --      0.0025                 0.2757                 0.2757
 IR Inten    --      0.1587               171.3318               171.3318

                      4
                      A
 Frequencies --   3678.0667
 Red. masses --      1.0584
 Frc consts  --      8.4358
 IR Inten    --    101.8905

 - Thermochemistry -
 -------------------
 Temperature   298.150 Kelvin.  Pressure   1.00000 Atm.
 Atom     1 has atomic number  1 and mass   1.00783

 Molecular mass:    21.01405 amu.
 Principal axes and moments of inertia in atomic units:
                           1         2         3
     Eigenvalues --     0.00000  57.96567  57.96567
           X            1.00000  -0.00000   0.00000
           Y            0.00000   1.00000   0.00000
           Z            0.00000   0.00000   1.00000
 This molecule is a prolate symmetric top.
 Rotational symmetry number  1.
 Rotational temperature (Kelvin)      1.49423
 Rotational constant (GHZ):          31.134656
    1 imaginary frequencies ignored.
 Zero-point vibrational energy      30039.4 (Joules/Mol)
                                    7.17960 (Kcal/Mol)
 Vibrational temperatures:    966.96   966.96  5291.92
          (Kelvin)

 Zero-point correction=                           0.011441 (Hartree/Particle)
 Thermal correction to Energy=                    0.014051
 Thermal correction to Enthalpy=                  0.014995
 Thermal correction to Gibbs Free Energy=        -0.008590
 Sum of electronic and zero-point Energies=           -100.959659
 Sum of electronic and thermal Energies=              -100.957050
 Sum of electronic and thermal Enthalpies=            -100.956106
 Sum of electronic and thermal Free Energies=         -100.979691

                     E (Thermal)             CV                S
                      KCal/Mol        Cal/Mol-Kelvin    Cal/Mol-Kelvin
 Total                    8.817              6.735             49.639
 Electronic               0.000              0.000              1.377
 Translational            0.889              2.981             35.068
 Rotational               0.592              1.987             12.511
 Vibrational              7.336              1.767              0.682

 Normal termination of Gaussian 16 at Fri Aug 22 15:58:53 2025.
