 Gaussian 16, Revision C.01,
 Gaussian 16:  ES64L-G16RevC.01  3-Jul-2019

 -----------------------------------------
 # sp b3lyp/6-311g** Force nosymm scf=(qc)
 -----------------------------------------

 -------------------
 Title Card Required
 -------------------
 Symbolic Z-matrix:
 Charge =  0 Multiplicity = 2

                          Input orientation:
 ---------------------------------------------------------------------
 Center     Atomic      Atomic             Coordinates (Angstroms)
 Number     Number       Type             X           Y           Z
 ---------------------------------------------------------------------
      1          1           0        0.000000    0.000000    0.000000
      2          1           0       -4.000000    0.000000    0.000000
      3          9           0        1.450000    0.000000    0.000000
 ---------------------------------------------------------------------

 SCF Done:  E(UB3LYP) =  -100.865746138     a.u. after    8 cycles

 Alpha  occ. eigenvalues --  -24.64379  -1.09963  -0.43880  -0.36574  -0.36574
 Alpha  occ. eigenvalues --   -0.33567
 Alpha virt. eigenvalues --   -0.13279   0.20757   0.26980   0.93258   0.93258
 Alpha virt. eigenvalues --    1.03518   1.12045   1.23899   1.23939   1.23939
 Alpha virt. eigenvalues --    1.31868   1.31868   1.72152   2.12834   2.19957

  Beta  occ. eigenvalues --  -24.64373  -1.09947  -0.43866  -0.36568  -0.36568
  Beta virt. eigenvalues --   -0.13385  -0.05949   0.23404   0.38339   0.93255
  Beta virt. eigenvalues --    0.93255   1.03533   1.12050   1.31842   1.31842
  Beta virt. eigenvalues --    1.46741   1.47009   1.47009   1.72162   2.18870

 Mulliken charges and spin densities:
               1          2
     1  H    0.353892  -0.001408
     2  H    0.000505   0.999468
     3  F   -0.354397   0.001940
 Sum of Mulliken charges =  -0.00000   1.00000

 Dipole moment (field-independent basis, Debye):
    X=             -2.5462    Y=              0.0000    Z=              0.0000  Tot=              2.5462
 Quadrupole moment (field-independent basis, Debye-Ang):
   XX=             -9.7939   YY=             -7.2929   ZZ=             -7.2929
   XY=              0.0000   XZ=              0.0000   YZ=              0.0000

  Exact polarizability:      13.573      -0.000       2.209      -0.000      -0.000       2.209
 Approx polarizability:      24.880       0.000       2.137      -0.000      -0.000       2.137

 ******    2 imaginary frequencies (negative Signs) ******

                      1                      2                      3
                      A                      A                      A
 Frequencies --  -1095.5292               -39.0560              1061.7811
 Red. masses --      1.0581                 1.0534                 1.0333
 Frc consts  --      0.7482                 0.0009                 0.6863
 IR Inten    --     41.1788                 0.0258               124.6670

                      4
                      A
 Frequencies --   1061.7811
 Red. masses --      1.0333
 Frc consts  --      0.6863
 IR Inten    --    124.6670

 - Thermochemistry -
 -------------------
 Temperature   298.150 Kelvin.  Pressure   1.00000 Atm.
 Atom     1 has atomic number  1 and mass   1.00783

 Molecular mass:    21.01405 amu.
 Principal axes and moments of inertia in atomic units:
                           1         2         3
     Eigenvalues --     0.00000 106.24865 106.24865
           X            1.00000  -0.00000   0.00000
           Y            0.00000   1.00000   0.00000
           Z            0.00000   0.00000   1.00000
 This molecule is a prolate symmetric top.
 Rotational symmetry number  1.
 Rotational temperature (Kelvin)      0.81520
 Rotational constant (GHZ):          16.986015
    2 imaginary frequencies ignored.
 Zero-point vibrational energy      12701.7 (Joules/Mol)
                                    3.03578 (Kcal/Mol)
 Vibrational temperatures:   1527.67  1527.67
          (Kelvin)

 Zero-point correction=                           0.004838 (Hartree/Particle)
 Thermal correction to Energy=                    0.007256
 Thermal correction to Enthalpy=                  0.008200
 Thermal correction to Gibbs Free Energy=        -0.015702
 Sum of electronic and zero-point Energies=           -100.860908
 Sum of electronic and thermal Energies=              -100.858490
 Sum of electronic and thermal Enthalpies=            -100.857546
 Sum of electronic and thermal Free Energies=         -100.881448

                     E (Thermal)             CV                S
                      KCal/Mol        Cal/Mol-Kelvin    Cal/Mol-Kelvin
 Total                    4.553              5.597             50.307
 Electronic               0.000              0.000              1.377
 Translational            0.889              2.981             35.068
 Rotational               0.592              1.987             13.716
 Vibrational              3.072              0.629              0.146

 Normal termination of Gaussian 16 at Fri Aug 22 16:24:12 2025.
