 Gaussian 16, Revision C.01,
 Gaussian 16:  ES64L-G16RevC.01  3-Jul-2019

 -----------------------------------------
 # sp b3lyp/6-311g** Force nosymm scf=(qc)
 -----------------------------------------

 -------------------
 Title Card Required
 -------------------
 Symbolic Z-matrix:
 Charge =  0 Multiplicity = 2

                          Input orientation:
 ---------------------------------------------------------------------
 Center     Atomic      Atomic             Coordinates (Angstroms)
 Number     Number       Type             X           Y           Z
 ---------------------------------------------------------------------
      1          1           0        0.000000    0.000000    0.000000
      2          1           0       -1.850000    0.000000    0.000000
      3          9           0        2.650000    0.000000    0.000000
 ---------------------------------------------------------------------

 SCF Done:  E(UB3LYP) =  -100.787287039     a.u. after   23 cycles

 Alpha  occ. eigenvalues --  -24.72963  -1.19094  -0.52084  -0.43728  -0.43728
 Alpha  occ. eigenvalues --   -0.34722
 Alpha virt. eigenvalues --   -0.12382   0.24862   0.31335   0.90138   0.92934
 Alpha virt. eigenvalues --    0.92934   1.04932   1.13884   1.23031   1.23031
 Alpha virt. eigenvalues --    1.35439   1.35439   1.56502   2.12390   2.37963

  Beta  occ. eigenvalues --  -24.70028  -1.10708  -0.40796  -0.40796  -0.34696
  Beta virt. eigenvalues --   -0.24302  -0.11693   0.26328   0.31160   0.94353
  Beta virt. eigenvalues --    0.94353   0.97708   1.07703   1.16159   1.23128
  Beta virt. eigenvalues --    1.23128   1.36408   1.36408   1.57209   2.13414

 Mulliken charges and spin densities:
               1          2
     1  H    0.032687  -0.712210
     2  H    0.028912   0.783401
     3  F   -0.061599   0.928810
 Sum of Mulliken charges =   0.00000   1.00000

 Dipole moment (field-independent basis, Debye):
    X=             -1.0895    Y=             -0.0000    Z=              0.0000  Tot=              1.0895
 Quadrupole moment (field-independent basis, Debye-Ang):
   XX=             -7.6278   YY=             -7.6976   ZZ=             -7.6976
   XY=             -0.0000   XZ=              0.0000   YZ=              0.0000

  Exact polarizability:      63.082      -0.000       2.008       0.000       0.000       2.008
 Approx polarizability:      69.425      -0.000       1.944       0.000       0.000       1.944

 ******    2 imaginary frequencies (negative Signs) ******

                      1                      2                      3
                      A                      A                      A
 Frequencies --  -1654.3473              -332.9966               700.4413
 Red. masses --      1.0083                 1.1080                 1.0142
 Frc consts  --      1.6258                 0.0724                 0.2932
 IR Inten    --    112.6984                46.0091                 0.3554

                      4
                      A
 Frequencies --    700.4413
 Red. masses --      1.0142
 Frc consts  --      0.2932
 IR Inten    --      0.3554

 - Thermochemistry -
 -------------------
 Temperature   298.150 Kelvin.  Pressure   1.00000 Atm.
 Atom     1 has atomic number  1 and mass   1.00783

 Molecular mass:    21.01405 amu.
 Principal axes and moments of inertia in atomic units:
                           1         2         3
     Eigenvalues --     0.00000  89.32986  89.32986
           X            1.00000  -0.00000   0.00000
           Y            0.00000   1.00000   0.00000
           Z            0.00000   0.00000   1.00000
 This molecule is a prolate symmetric top.
 Rotational symmetry number  1.
 Rotational temperature (Kelvin)      0.96960
 Rotational constant (GHZ):          20.203112
    2 imaginary frequencies ignored.
 Zero-point vibrational energy       8379.1 (Joules/Mol)
                                    2.00266 (Kcal/Mol)
 Vibrational temperatures:   1007.78  1007.78
          (Kelvin)

 Zero-point correction=                           0.003191 (Hartree/Particle)
 Thermal correction to Energy=                    0.005777
 Thermal correction to Enthalpy=                  0.006721
 Thermal correction to Gibbs Free Energy=        -0.017239
 Sum of electronic and zero-point Energies=           -100.784096
 Sum of electronic and thermal Energies=              -100.781510
 Sum of electronic and thermal Enthalpies=            -100.780566
 Sum of electronic and thermal Free Energies=         -100.804526

                     E (Thermal)             CV                S
                      KCal/Mol        Cal/Mol-Kelvin    Cal/Mol-Kelvin
 Total                    3.625              6.625             50.427
 Electronic               0.000              0.000              1.377
 Translational            0.889              2.981             35.068
 Rotational               0.592              1.987             13.371
 Vibrational              2.144              1.657              0.611

 Normal termination of Gaussian 16 at Fri Aug 22 18:14:09 2025.
