 Gaussian 16, Revision C.01,
 Gaussian 16:  ES64L-G16RevC.01  3-Jul-2019

 -----------------------------------------
 # sp b3lyp/6-311g** Force nosymm scf=(qc)
 -----------------------------------------

 -------------------
 Title Card Required
 -------------------
 Symbolic Z-matrix:
 Charge =  0 Multiplicity = 2

                          Input orientation:
 ---------------------------------------------------------------------
 Center     Atomic      Atomic             Coordinates (Angstroms)
 Number     Number       Type             X           Y           Z
 ---------------------------------------------------------------------
      1          1           0        0.000000    0.000000    0.000000
      2          1           0       -3.800000    0.000000    0.000000
      3          9           0        3.900000    0.000000    0.000000
 ---------------------------------------------------------------------

 SCF Done:  E(UB3LYP) =  -100.758492757     a.u. after   33 cycles

 Alpha  occ. eigenvalues --  -24.75823  -1.21754  -0.54948  -0.46135  -0.46135
 Alpha  occ. eigenvalues --   -0.32243
 Alpha virt. eigenvalues --   -0.06236   0.24208   0.37802   0.86690   0.91207
 Alpha virt. eigenvalues --    0.91207   1.01160   1.25254   1.25254   1.25303
 Alpha virt. eigenvalues --    1.46099   1.46248   1.46248   2.14738   2.41982

  Beta  occ. eigenvalues --  -24.72681  -1.12720  -0.42985  -0.42985  -0.32478
  Beta virt. eigenvalues --   -0.25702  -0.06013   0.24031   0.38191   0.92705
  Beta virt. eigenvalues --    0.92705   0.96036   1.05274   1.24998   1.24998
  Beta virt. eigenvalues --    1.25032   1.46453   1.46603   1.46603   2.14731

 Mulliken charges and spin densities:
               1          2
     1  H    0.003389  -0.995177
     2  H    0.000036   0.998973
     3  F   -0.003424   0.996204
 Sum of Mulliken charges =  -0.00000   1.00000

 Dipole moment (field-independent basis, Debye):
    X=             -0.0698    Y=              0.0000    Z=             -0.0000  Tot=              0.0698
 Quadrupole moment (field-independent basis, Debye-Ang):
   XX=             -6.9826   YY=             -7.6203   ZZ=             -7.6203
   XY=              0.0000   XZ=             -0.0000   YZ=              0.0000

  Exact polarizability:      12.389       0.000       2.034      -0.000      -0.000       2.034
 Approx polarizability:       9.150       0.000       1.937      -0.000      -0.000       1.937

 ******    2 imaginary frequencies (negative Signs) ******

                      1                      2                      3
                      A                      A                      A
 Frequencies --   -155.0228               -66.0209                50.2121
 Red. masses --      1.0197                 1.0945                 1.0176
 Frc consts  --      0.0144                 0.0028                 0.0015
 IR Inten    --      1.6358                 0.3735                 0.0112

                      4
                      A
 Frequencies --     50.2121
 Red. masses --      1.0176
 Frc consts  --      0.0015
 IR Inten    --      0.0112

 - Thermochemistry -
 -------------------
 Temperature   298.150 Kelvin.  Pressure   1.00000 Atm.
 Atom     1 has atomic number  1 and mass   1.00783

 Molecular mass:    21.01405 amu.
 Principal axes and moments of inertia in atomic units:
                           1         2         3
     Eigenvalues --     0.00000 244.90015 244.90015
           X            1.00000  -0.00000   0.00000
           Y            0.00000   1.00000   0.00000
           Z            0.00000   0.00000   1.00000
 This molecule is a prolate symmetric top.
 Rotational symmetry number  1.
 Rotational temperature (Kelvin)      0.35367
 Rotational constant (GHZ):           7.369294
    2 imaginary frequencies ignored.
 Zero-point vibrational energy        600.7 (Joules/Mol)
                                    0.14356 (Kcal/Mol)
 Warning -- explicit consideration of   2 degrees of freedom as
           vibrations may cause significant error
 Vibrational temperatures:     72.24    72.24
          (Kelvin)

 Zero-point correction=                           0.000229 (Hartree/Particle)
 Thermal correction to Energy=                    0.004258
 Thermal correction to Enthalpy=                  0.005202
 Thermal correction to Gibbs Free Energy=        -0.023989
 Sum of electronic and zero-point Energies=           -100.758264
 Sum of electronic and thermal Energies=              -100.754235
 Sum of electronic and thermal Enthalpies=            -100.753291
 Sum of electronic and thermal Free Energies=         -100.782482

                     E (Thermal)             CV                S
                      KCal/Mol        Cal/Mol-Kelvin    Cal/Mol-Kelvin
 Total                    2.672              8.923             61.438
 Electronic               0.000              0.000              1.377
 Translational            0.889              2.981             35.068
 Rotational               0.592              1.987             15.375
 Vibrational              1.191              3.955              9.618
 Vibration     1          0.595              1.978              4.809
 Vibration     2          0.595              1.978              4.809

 Normal termination of Gaussian 16 at Sat Aug 23 01:27:48 2025.
