 Gaussian 16, Revision C.01,
 Gaussian 16:  ES64L-G16RevC.01  3-Jul-2019

 -----------------------------------------
 # sp b3lyp/6-311g** Force nosymm scf=(qc)
 -----------------------------------------

 -------------------
 Title Card Required
 -------------------
 Symbolic Z-matrix:
 Charge =  0 Multiplicity = 2

                          Input orientation:
 ---------------------------------------------------------------------
 Center     Atomic      Atomic             Coordinates (Angstroms)
 Number     Number       Type             X           Y           Z
 ---------------------------------------------------------------------
      1          1           0        0.000000    0.000000    0.000000
      2          1           0       -3.400000    0.000000    0.000000
      3          9           0        0.650000    0.000000    0.000000
 ---------------------------------------------------------------------

 SCF Done:  E(UB3LYP) =  -100.800699257     a.u. after    6 cycles

 Alpha  occ. eigenvalues --  -24.62934  -1.31313  -0.59801  -0.42355  -0.42355
 Alpha  occ. eigenvalues --   -0.33447
 Alpha virt. eigenvalues --    0.06998   0.25097   0.55391   0.92883   0.92883
 Alpha virt. eigenvalues --    0.94693   1.23695   1.24066   1.24066   1.33169
 Alpha virt. eigenvalues --    1.46913   1.46913   1.96074   2.14790   3.09634

  Beta  occ. eigenvalues --  -24.62933  -1.31311  -0.59800  -0.42355  -0.42355
  Beta virt. eigenvalues --   -0.05379   0.07570   0.39481   0.55433   0.92883
  Beta virt. eigenvalues --    0.92883   0.94686   1.32276   1.46914   1.46914
  Beta virt. eigenvalues --    1.50689   1.50689   1.51312   1.96059   2.44847

 Mulliken charges and spin densities:
               1          2
     1  H    0.254425   0.000650
     2  H    0.000901   0.998879
     3  F   -0.255326   0.000470
 Sum of Mulliken charges =   0.00000   1.00000

 Dipole moment (field-independent basis, Debye):
    X=             -1.5177    Y=              0.0000    Z=              0.0000  Tot=              1.5177
 Quadrupole moment (field-independent basis, Debye-Ang):
   XX=             -7.1148   YY=             -6.6079   ZZ=             -6.6079
   XY=              0.0000   XZ=              0.0000   YZ=              0.0000

  Exact polarizability:       3.785       0.000       2.446      -0.000       0.000       2.446
 Approx polarizability:       4.056       0.000       2.427      -0.000       0.000       2.427

 ******    3 imaginary frequencies (negative Signs) ******

                      1                      2                      3
                      A                      A                      A
 Frequencies --  -4595.7105             -4595.7105               -37.8059
 Red. masses --      1.0425                 1.0425                 1.0532
 Frc consts  --     12.9733                12.9733                 0.0009
 IR Inten    --    225.2909               225.2909                 0.0341

                      4
                      A
 Frequencies --  10873.4901
 Red. masses --      1.0583
 Frc consts  --     73.7228
 IR Inten    --    103.8339

 - Thermochemistry -
 -------------------
 Temperature   298.150 Kelvin.  Pressure   1.00000 Atm.
 Atom     1 has atomic number  1 and mass   1.00783

 Molecular mass:    21.01405 amu.
 Principal axes and moments of inertia in atomic units:
                           1         2         3
     Eigenvalues --     0.00000  56.74043  56.74043
           X            1.00000  -0.00000   0.00000
           Y            0.00000   1.00000   0.00000
           Z            0.00000   0.00000   1.00000
 This molecule is a prolate symmetric top.
 Rotational symmetry number  1.
 Rotational temperature (Kelvin)      1.52649
 Rotational constant (GHZ):          31.806970
    3 imaginary frequencies ignored.
 Zero-point vibrational energy      65037.9 (Joules/Mol)
                                   15.54443 (Kcal/Mol)
 Vibrational temperatures:  15644.53
          (Kelvin)

 Zero-point correction=                           0.024772 (Hartree/Particle)
 Thermal correction to Energy=                    0.027132
 Thermal correction to Enthalpy=                  0.028076
 Thermal correction to Gibbs Free Energy=         0.004835
 Sum of electronic and zero-point Energies=           -100.775928
 Sum of electronic and thermal Energies=              -100.773567
 Sum of electronic and thermal Enthalpies=            -100.772623
 Sum of electronic and thermal Free Energies=         -100.795864

                     E (Thermal)             CV                S
                      KCal/Mol        Cal/Mol-Kelvin    Cal/Mol-Kelvin
 Total                   17.026              4.968             48.914
 Electronic               0.000              0.000              1.377
 Translational            0.889              2.981             35.068
 Rotational               0.592              1.987             12.469
 Vibrational             15.544              0.000              0.000

 Normal termination of Gaussian 16 at Fri Aug 22 15:44:58 2025.
