 Gaussian 16, Revision C.01,
 Gaussian 16:  ES64L-G16RevC.01  3-Jul-2019

 -----------------------------------------
 # sp b3lyp/6-311g** Force nosymm scf=(qc)
 -----------------------------------------

 -------------------
 Title Card Required
 -------------------
 Symbolic Z-matrix:
 Charge =  0 Multiplicity = 2

                          Input orientation:
 ---------------------------------------------------------------------
 Center     Atomic      Atomic             Coordinates (Angstroms)
 Number     Number       Type             X           Y           Z
 ---------------------------------------------------------------------
      1          1           0        0.000000    0.000000    0.000000
      2          1           0       -3.600000    0.000000    0.000000
      3          9           0        2.200000    0.000000    0.000000
 ---------------------------------------------------------------------

 SCF Done:  E(UB3LYP) =  -100.776129115     a.u. after   16 cycles

 Alpha  occ. eigenvalues --  -24.67087  -1.08626  -0.38413  -0.38413  -0.36789
 Alpha  occ. eigenvalues --   -0.33067
 Alpha virt. eigenvalues --   -0.21920   0.20577   0.27827   0.91365   0.95614
 Alpha virt. eigenvalues --    0.95614   1.08206   1.21508   1.21508   1.24389
 Alpha virt. eigenvalues --    1.24389   1.24425   1.42071   2.10640   2.15623

  Beta  occ. eigenvalues --  -24.69707  -1.16019  -0.48762  -0.41011  -0.41011
  Beta virt. eigenvalues --   -0.12547  -0.04605   0.30959   0.40167   0.88434
  Beta virt. eigenvalues --    0.94533   0.94533   1.06038   1.37584   1.37584
  Beta virt. eigenvalues --    1.47911   1.47911   1.48025   1.51923   2.32279

 Mulliken charges and spin densities:
               1          2
     1  H    0.144624   0.826138
     2  H    0.000882   0.999137
     3  F   -0.145507  -0.825275
 Sum of Mulliken charges =   0.00000   1.00000

 Dipole moment (field-independent basis, Debye):
    X=             -1.6188    Y=             -0.0000    Z=             -0.0000  Tot=              1.6188
 Quadrupole moment (field-independent basis, Debye-Ang):
   XX=             -9.8676   YY=             -7.5175   ZZ=             -7.5175
   XY=             -0.0000   XZ=             -0.0000   YZ=              0.0000

  Exact polarizability:      28.225      -0.000       2.041      -0.000      -0.000       2.041
 Approx polarizability:      39.283      -0.000       1.929      -0.000       0.000       1.929

 ******    1 imaginary frequencies (negative Signs) ******

                      1                      2                      3
                      A                      A                      A
 Frequencies --   -854.2038                65.2594               357.4569
 Red. masses --      1.0592                 1.0524                 1.0249
 Frc consts  --      0.4554                 0.0026                 0.0772
 IR Inten    --    100.2818                 0.1177                19.9307

                      4
                      A
 Frequencies --    357.4569
 Red. masses --      1.0249
 Frc consts  --      0.0772
 IR Inten    --     19.9307

 - Thermochemistry -
 -------------------
 Temperature   298.150 Kelvin.  Pressure   1.00000 Atm.
 Atom     1 has atomic number  1 and mass   1.00783

 Molecular mass:    21.01405 amu.
 Principal axes and moments of inertia in atomic units:
                           1         2         3
     Eigenvalues --     0.00000 127.44301 127.44301
           X            1.00000  -0.00000   0.00000
           Y            0.00000   1.00000   0.00000
           Z            0.00000   0.00000   1.00000
 This molecule is a prolate symmetric top.
 Rotational symmetry number  1.
 Rotational temperature (Kelvin)      0.67963
 Rotational constant (GHZ):          14.161163
    1 imaginary frequencies ignored.
 Zero-point vibrational energy       4666.5 (Joules/Mol)
                                    1.11531 (Kcal/Mol)
 Warning -- explicit consideration of   3 degrees of freedom as
           vibrations may cause significant error
 Vibrational temperatures:     93.89   514.30   514.30
          (Kelvin)

 Zero-point correction=                           0.001777 (Hartree/Particle)
 Thermal correction to Energy=                    0.005647
 Thermal correction to Enthalpy=                  0.006592
 Thermal correction to Gibbs Free Energy=        -0.020529
 Sum of electronic and zero-point Energies=           -100.774352
 Sum of electronic and thermal Energies=              -100.770482
 Sum of electronic and thermal Enthalpies=            -100.769538
 Sum of electronic and thermal Free Energies=         -100.796658

                     E (Thermal)             CV                S
                      KCal/Mol        Cal/Mol-Kelvin    Cal/Mol-Kelvin
 Total                    3.544             10.059             57.080
 Electronic               0.000              0.000              1.377
 Translational            0.889              2.981             35.068
 Rotational               0.592              1.987             14.077
 Vibrational              2.063              5.091              6.558
 Vibration     1          0.597              1.971              4.291
 Vibration     2          0.733              1.560              1.133
 Vibration     3          0.733              1.560              1.133

 Normal termination of Gaussian 16 at Fri Aug 22 17:13:10 2025.
