 Gaussian 16, Revision C.01,
 Gaussian 16:  ES64L-G16RevC.01  3-Jul-2019

 -----------------------------------------
 # sp b3lyp/6-311g** Force nosymm scf=(qc)
 -----------------------------------------

 -------------------
 Title Card Required
 -------------------
 Symbolic Z-matrix:
 Charge =  0 Multiplicity = 2

                          Input orientation:
 ---------------------------------------------------------------------
 Center     Atomic      Atomic             Coordinates (Angstroms)
 Number     Number       Type             X           Y           Z
 ---------------------------------------------------------------------
      1          1           0        0.000000    0.000000    0.000000
      2          1           0       -1.300000    0.000000    0.000000
      3          9           0        1.600000    0.000000    0.000000
 ---------------------------------------------------------------------

 SCF Done:  E(UB3LYP) =  -100.882939373     a.u. after   12 cycles

 Alpha  occ. eigenvalues --  -24.67361  -1.14090  -0.49163  -0.39466  -0.39284
 Alpha  occ. eigenvalues --   -0.39284
 Alpha virt. eigenvalues --   -0.04736   0.20636   0.30654   0.92407   0.92407
 Alpha virt. eigenvalues --    0.96392   1.04525   1.11666   1.11666   1.47007
 Alpha virt. eigenvalues --    1.47007   1.49936   2.00182   2.23003   2.49718

  Beta  occ. eigenvalues --  -24.65297  -1.08441  -0.41094  -0.37280  -0.37280
  Beta virt. eigenvalues --   -0.23104  -0.01804   0.22956   0.31590   0.92934
  Beta virt. eigenvalues --    0.92934   1.01736   1.07574   1.15663   1.15663
  Beta virt. eigenvalues --    1.48616   1.48616   1.54333   2.03642   2.26108

 Mulliken charges and spin densities:
               1          2
     1  H    0.170984  -0.204954
     2  H    0.070238   0.566280
     3  F   -0.241221   0.638674
 Sum of Mulliken charges =   0.00000   1.00000

 Dipole moment (field-independent basis, Debye):
    X=             -2.3148    Y=              0.0000    Z=             -0.0000  Tot=              2.3148
 Quadrupole moment (field-independent basis, Debye-Ang):
   XX=             -7.7749   YY=             -7.2461   ZZ=             -7.2461
   XY=              0.0000   XZ=             -0.0000   YZ=              0.0000

  Exact polarizability:      37.712       0.000       2.298      -0.000       0.000       2.298
 Approx polarizability:      58.366       0.000       2.253      -0.000      -0.000       2.253

 ******    2 imaginary frequencies (negative Signs) ******

                      1                      2                      3
                      A                      A                      A
 Frequencies --  -2513.2416              -267.8183              1193.9623
 Red. masses --      1.0207                 1.0933                 1.0156
 Frc consts  --      3.7986                 0.0462                 0.8530
 IR Inten    --    960.3994                 7.2548                 9.0443

                      4
                      A
 Frequencies --   1193.9623
 Red. masses --      1.0156
 Frc consts  --      0.8530
 IR Inten    --      9.0443

 - Thermochemistry -
 -------------------
 Temperature   298.150 Kelvin.  Pressure   1.00000 Atm.
 Atom     1 has atomic number  1 and mass   1.00783

 Molecular mass:    21.01405 amu.
 Principal axes and moments of inertia in atomic units:
                           1         2         3
     Eigenvalues --     0.00000  35.98583  35.98583
           X            1.00000  -0.00000   0.00000
           Y            0.00000   1.00000   0.00000
           Z            0.00000   0.00000   1.00000
 This molecule is a prolate symmetric top.
 Rotational symmetry number  1.
 Rotational temperature (Kelvin)      2.40689
 Rotational constant (GHZ):          50.151435
    2 imaginary frequencies ignored.
 Zero-point vibrational energy      14283.0 (Joules/Mol)
                                    3.41371 (Kcal/Mol)
 Vibrational temperatures:   1717.85  1717.85
          (Kelvin)

 Zero-point correction=                           0.005440 (Hartree/Particle)
 Thermal correction to Energy=                    0.007835
 Thermal correction to Enthalpy=                  0.008779
 Thermal correction to Gibbs Free Energy=        -0.014072
 Sum of electronic and zero-point Energies=           -100.877499
 Sum of electronic and thermal Energies=              -100.875104
 Sum of electronic and thermal Enthalpies=            -100.874160
 Sum of electronic and thermal Free Energies=         -100.897011

                     E (Thermal)             CV                S
                      KCal/Mol        Cal/Mol-Kelvin    Cal/Mol-Kelvin
 Total                    4.916              5.386             48.094
 Electronic               0.000              0.000              1.377
 Translational            0.889              2.981             35.068
 Rotational               0.592              1.987             11.564
 Vibrational              3.435              0.418              0.085

 Normal termination of Gaussian 16 at Fri Aug 22 16:30:31 2025.
