 Gaussian 16, Revision C.01,
 Gaussian 16:  ES64L-G16RevC.01  3-Jul-2019

 -----------------------------------------
 # sp b3lyp/6-311g** Force nosymm scf=(qc)
 -----------------------------------------

 -------------------
 Title Card Required
 -------------------
 Symbolic Z-matrix:
 Charge =  0 Multiplicity = 2

                          Input orientation:
 ---------------------------------------------------------------------
 Center     Atomic      Atomic             Coordinates (Angstroms)
 Number     Number       Type             X           Y           Z
 ---------------------------------------------------------------------
      1          1           0        0.000000    0.000000    0.000000
      2          1           0       -1.650000    0.000000    0.000000
      3          9           0        3.350000    0.000000    0.000000
 ---------------------------------------------------------------------

 SCF Done:  E(UB3LYP) =  -100.800334246     a.u. after   34 cycles

 Alpha  occ. eigenvalues --  -24.76024  -1.21931  -0.55118  -0.46334  -0.46311
 Alpha  occ. eigenvalues --   -0.33406
 Alpha virt. eigenvalues --   -0.10646   0.25433   0.30472   0.86815   0.91043
 Alpha virt. eigenvalues --    0.91994   1.01856   1.06692   1.22944   1.22945
 Alpha virt. eigenvalues --    1.38535   1.38538   1.70983   2.17935   2.43039

  Beta  occ. eigenvalues --  -24.72888  -1.12916  -0.43200  -0.43167  -0.33358
  Beta virt. eigenvalues --   -0.25931  -0.10600   0.25469   0.30672   0.92539
  Beta virt. eigenvalues --    0.93176   0.96398   1.05887   1.06732   1.22976
  Beta virt. eigenvalues --    1.22979   1.38591   1.38592   1.71115   2.18373

 Mulliken charges and spin densities:
               1          2
     1  H   -0.000153  -0.539624
     2  H    0.003140   0.545504
     3  F   -0.002987   0.994120
 Sum of Mulliken charges =  -0.00000   1.00000

 Dipole moment (field-independent basis, Debye):
    X=             -0.0882    Y=              0.0013    Z=              0.0004  Tot=              0.0883
 Quadrupole moment (field-independent basis, Debye-Ang):
   XX=             -6.3241   YY=             -7.3478   ZZ=             -7.7180
   XY=              0.4053   XZ=              0.1391   YZ=              0.1440

  Exact polarizability:     -11.450       0.198       2.246      -0.033       0.078       2.045
 Approx polarizability:      48.144       0.212       2.273       0.073       0.097       2.024

 ******    1 imaginary frequencies (negative Signs) ******

                      1                      2                      3
                      A                      A                      A
 Frequencies --  -1930.4786                58.7102               975.4727
 Red. masses --      1.0078                 1.1085                 1.0116
 Frc consts  --      2.2129                 0.0023                 0.5672
 IR Inten    --    288.7044                14.2042                 0.2077

                      4
                      A
 Frequencies --    975.5083
 Red. masses --      1.0116
 Frc consts  --      0.5672
 IR Inten    --      0.6182

 - Thermochemistry -
 -------------------
 Temperature   298.150 Kelvin.  Pressure   1.00000 Atm.
 Atom     1 has atomic number  1 and mass   1.00783

 Molecular mass:    21.01405 amu.
 Principal axes and moments of inertia in atomic units:
                           1         2         3
     Eigenvalues --     0.00000 118.33050 118.33050
           X            1.00000  -0.00000   0.00000
           Y            0.00000   1.00000   0.00000
           Z            0.00000   0.00000   1.00000
 This molecule is a prolate symmetric top.
 Rotational symmetry number  1.
 Rotational temperature (Kelvin)      0.73197
 Rotational constant (GHZ):          15.251699
    1 imaginary frequencies ignored.
 Zero-point vibrational energy      12020.6 (Joules/Mol)
                                    2.87300 (Kcal/Mol)
 Warning -- explicit consideration of   1 degrees of freedom as
           vibrations may cause significant error
 Vibrational temperatures:     84.47  1403.49  1403.54
          (Kelvin)

 Zero-point correction=                           0.004578 (Hartree/Particle)
 Thermal correction to Energy=                    0.007837
 Thermal correction to Enthalpy=                  0.008781
 Thermal correction to Gibbs Free Energy=        -0.017390
 Sum of electronic and zero-point Energies=           -100.795756
 Sum of electronic and thermal Energies=              -100.792498
 Sum of electronic and thermal Enthalpies=            -100.791553
 Sum of electronic and thermal Free Energies=         -100.817724

                     E (Thermal)             CV                S
                      KCal/Mol        Cal/Mol-Kelvin    Cal/Mol-Kelvin
 Total                    4.918              7.752             55.082
 Electronic               0.000              0.000              1.377
 Translational            0.889              2.981             35.068
 Rotational               0.592              1.987             13.930
 Vibrational              3.436              2.784              4.707
 Vibration     1          0.596              1.974              4.500

 Normal termination of Gaussian 16 at Fri Aug 22 21:00:19 2025.
