 Gaussian 16, Revision C.01,
 Gaussian 16:  ES64L-G16RevC.01  3-Jul-2019

 -----------------------------------------
 # sp b3lyp/6-311g** Force nosymm scf=(qc)
 -----------------------------------------

 -------------------
 Title Card Required
 -------------------
 Symbolic Z-matrix:
 Charge =  0 Multiplicity = 2

                          Input orientation:
 ---------------------------------------------------------------------
 Center     Atomic      Atomic             Coordinates (Angstroms)
 Number     Number       Type             X           Y           Z
 ---------------------------------------------------------------------
      1          1           0        0.000000    0.000000    0.000000
      2          1           0       -1.650000    0.000000    0.000000
      3          9           0        2.600000    0.000000    0.000000
 ---------------------------------------------------------------------

 SCF Done:  E(UB3LYP) =  -100.804321880     a.u. after   21 cycles

 Alpha  occ. eigenvalues --  -24.73217  -1.19336  -0.52361  -0.43952  -0.43952
 Alpha  occ. eigenvalues --   -0.35236
 Alpha virt. eigenvalues --   -0.11804   0.24316   0.30805   0.89679   0.92746
 Alpha virt. eigenvalues --    0.92746   1.03418   1.11551   1.21057   1.21057
 Alpha virt. eigenvalues --    1.36784   1.36784   1.69046   2.15992   2.42328

  Beta  occ. eigenvalues --  -24.70272  -1.10923  -0.41010  -0.41010  -0.34912
  Beta virt. eigenvalues --   -0.24610  -0.11229   0.25720   0.30569   0.94162
  Beta virt. eigenvalues --    0.94162   0.96637   1.05810   1.14969   1.21528
  Beta virt. eigenvalues --    1.21528   1.37310   1.37310   1.69668   2.17016

 Mulliken charges and spin densities:
               1          2
     1  H    0.023677  -0.526408
     2  H    0.034531   0.594946
     3  F   -0.058208   0.931461
 Sum of Mulliken charges =  -0.00000   1.00000

 Dipole moment (field-independent basis, Debye):
    X=             -1.0427    Y=             -0.0000    Z=             -0.0000  Tot=              1.0427
 Quadrupole moment (field-independent basis, Debye-Ang):
   XX=             -7.1991   YY=             -7.7017   ZZ=             -7.7017
   XY=             -0.0000   XZ=              0.0000   YZ=              0.0000

  Exact polarizability:      62.528      -0.000       2.025       0.000       0.000       2.025
 Approx polarizability:      78.978      -0.000       1.983      -0.000      -0.000       1.983

 ******    2 imaginary frequencies (negative Signs) ******

                      1                      2                      3
                      A                      A                      A
 Frequencies --  -1991.0859              -320.4896               943.9669
 Red. masses --      1.0082                 1.1081                 1.0134
 Frc consts  --      2.3549                 0.0671                 0.5320
 IR Inten    --    280.0403                41.7237                 0.0609

                      4
                      A
 Frequencies --    943.9669
 Red. masses --      1.0134
 Frc consts  --      0.5320
 IR Inten    --      0.0609

 - Thermochemistry -
 -------------------
 Temperature   298.150 Kelvin.  Pressure   1.00000 Atm.
 Atom     1 has atomic number  1 and mass   1.00783

 Molecular mass:    21.01405 amu.
 Principal axes and moments of inertia in atomic units:
                           1         2         3
     Eigenvalues --     0.00000  81.23724  81.23724
           X            1.00000  -0.00000   0.00000
           Y            0.00000   1.00000   0.00000
           Z            0.00000   0.00000   1.00000
 This molecule is a prolate symmetric top.
 Rotational symmetry number  1.
 Rotational temperature (Kelvin)      1.06618
 Rotational constant (GHZ):          22.215688
    2 imaginary frequencies ignored.
 Zero-point vibrational energy      11292.4 (Joules/Mol)
                                    2.69894 (Kcal/Mol)
 Vibrational temperatures:   1358.16  1358.16
          (Kelvin)

 Zero-point correction=                           0.004301 (Hartree/Particle)
 Thermal correction to Energy=                    0.006753
 Thermal correction to Enthalpy=                  0.007697
 Thermal correction to Gibbs Free Energy=        -0.015994
 Sum of electronic and zero-point Energies=           -100.800021
 Sum of electronic and thermal Energies=              -100.797569
 Sum of electronic and thermal Enthalpies=            -100.796625
 Sum of electronic and thermal Free Energies=         -100.820316

                     E (Thermal)             CV                S
                      KCal/Mol        Cal/Mol-Kelvin    Cal/Mol-Kelvin
 Total                    4.237              5.853             49.862
 Electronic               0.000              0.000              1.377
 Translational            0.889              2.981             35.068
 Rotational               0.592              1.987             13.182
 Vibrational              2.756              0.885              0.234

 Normal termination of Gaussian 16 at Fri Aug 22 18:03:20 2025.
