 Gaussian 16, Revision C.01,
 Gaussian 16:  ES64L-G16RevC.01  3-Jul-2019

 -----------------------------------------
 # sp b3lyp/6-311g** Force nosymm scf=(qc)
 -----------------------------------------

 -------------------
 Title Card Required
 -------------------
 Symbolic Z-matrix:
 Charge =  0 Multiplicity = 2

                          Input orientation:
 ---------------------------------------------------------------------
 Center     Atomic      Atomic             Coordinates (Angstroms)
 Number     Number       Type             X           Y           Z
 ---------------------------------------------------------------------
      1          1           0        0.000000    0.000000    0.000000
      2          1           0       -0.850000    0.000000    0.000000
      3          9           0        1.950000    0.000000    0.000000
 ---------------------------------------------------------------------

 SCF Done:  E(UB3LYP) =  -100.930115321     a.u. after    7 cycles

 Alpha  occ. eigenvalues --  -24.74133  -1.20305  -0.54200  -0.44810  -0.44810
 Alpha  occ. eigenvalues --   -0.42971
 Alpha virt. eigenvalues --    0.04851   0.20638   0.41438   0.90780   0.90780
 Alpha virt. eigenvalues --    0.91951   1.06818   1.06818   1.13214   1.59535
 Alpha virt. eigenvalues --    1.73950   1.73950   2.10316   2.37501   2.88771

  Beta  occ. eigenvalues --  -24.71168  -1.11883  -0.43282  -0.41860  -0.41860
  Beta virt. eigenvalues --   -0.25370   0.05876   0.21279   0.42032   0.92097
  Beta virt. eigenvalues --    0.92097   0.99686   1.07716   1.07716   1.16437
  Beta virt. eigenvalues --    1.61372   1.74475   1.74475   2.11164   2.38436

 Mulliken charges and spin densities:
               1          2
     1  H    0.019093  -0.037422
     2  H    0.034195   0.109145
     3  F   -0.053288   0.928277
 Sum of Mulliken charges =   0.00000   1.00000

 Dipole moment (field-independent basis, Debye):
    X=             -0.6330    Y=             -0.0000    Z=             -0.0000  Tot=              0.6330
 Quadrupole moment (field-independent basis, Debye-Ang):
   XX=             -6.2881   YY=             -7.0262   ZZ=             -7.0262
   XY=              0.0000   XZ=             -0.0000   YZ=             -0.0000

  Exact polarizability:      22.926       0.000       2.143      -0.000      -0.000       2.143
 Approx polarizability:      27.257       0.000       2.189       0.000      -0.000       2.189

 ******    1 imaginary frequencies (negative Signs) ******

                      1                      2                      3
                      A                      A                      A
 Frequencies --   -301.6866              1195.3634              1195.3634
 Red. masses --      1.1083                 1.0110                 1.0110
 Frc consts  --      0.0594                 0.8511                 0.8511
 IR Inten    --     54.8035                 0.0776                 0.0776

                      4
                      A
 Frequencies --   2992.0322
 Red. masses --      1.0080
 Frc consts  --      5.3166
 IR Inten    --    416.6866

 - Thermochemistry -
 -------------------
 Temperature   298.150 Kelvin.  Pressure   1.00000 Atm.
 Atom     1 has atomic number  1 and mass   1.00783

 Molecular mass:    21.01405 amu.
 Principal axes and moments of inertia in atomic units:
                           1         2         3
     Eigenvalues --     0.00000  38.00701  38.00701
           X            1.00000  -0.00000   0.00000
           Y            0.00000   1.00000   0.00000
           Z            0.00000   0.00000   1.00000
 This molecule is a prolate symmetric top.
 Rotational symmetry number  1.
 Rotational temperature (Kelvin)      2.27889
 Rotational constant (GHZ):          47.484426
    1 imaginary frequencies ignored.
 Zero-point vibrational energy      32196.0 (Joules/Mol)
                                    7.69504 (Kcal/Mol)
 Vibrational temperatures:   1719.86  1719.86  4304.87
          (Kelvin)

 Zero-point correction=                           0.012263 (Hartree/Particle)
 Thermal correction to Energy=                    0.014657
 Thermal correction to Enthalpy=                  0.015602
 Thermal correction to Gibbs Free Energy=        -0.007301
 Sum of electronic and zero-point Energies=           -100.917852
 Sum of electronic and thermal Energies=              -100.915458
 Sum of electronic and thermal Enthalpies=            -100.914514
 Sum of electronic and thermal Free Energies=         -100.937416

                     E (Thermal)             CV                S
                      KCal/Mol        Cal/Mol-Kelvin    Cal/Mol-Kelvin
 Total                    9.198              5.384             48.202
 Electronic               0.000              0.000              1.377
 Translational            0.889              2.981             35.068
 Rotational               0.592              1.987             11.673
 Vibrational              7.716              0.416              0.084

 Normal termination of Gaussian 16 at Fri Aug 22 16:52:15 2025.
