 Gaussian 16, Revision C.01,
 Gaussian 16:  ES64L-G16RevC.01  3-Jul-2019

 -----------------------------------------
 # sp b3lyp/6-311g** Force nosymm scf=(qc)
 -----------------------------------------

 -------------------
 Title Card Required
 -------------------
 Symbolic Z-matrix:
 Charge =  0 Multiplicity = 2

                          Input orientation:
 ---------------------------------------------------------------------
 Center     Atomic      Atomic             Coordinates (Angstroms)
 Number     Number       Type             X           Y           Z
 ---------------------------------------------------------------------
      1          1           0        0.000000    0.000000    0.000000
      2          1           0       -2.550000    0.000000    0.000000
      3          9           0        0.550000    0.000000    0.000000
 ---------------------------------------------------------------------

 SCF Done:  E(UB3LYP) =  -100.519316315     a.u. after    6 cycles

 Alpha  occ. eigenvalues --  -24.62670  -1.38401  -0.62252  -0.43604  -0.43604
 Alpha  occ. eigenvalues --   -0.34170
 Alpha virt. eigenvalues --    0.09063   0.25684   0.60241   0.91249   0.91249
 Alpha virt. eigenvalues --    0.91293   1.18770   1.23376   1.23376   1.46561
 Alpha virt. eigenvalues --    1.54156   1.54156   1.96146   2.15261   3.65646

  Beta  occ. eigenvalues --  -24.62664  -1.38383  -0.62239  -0.43601  -0.43601
  Beta virt. eigenvalues --   -0.07553   0.10340   0.38627   0.59761   0.91237
  Beta virt. eigenvalues --    0.91237   0.91389   1.31728   1.46671   1.46671
  Beta virt. eigenvalues --    1.54151   1.54151   1.57883   1.96418   2.44812

 Mulliken charges and spin densities:
               1          2
     1  H    0.193975   0.003118
     2  H    0.004151   0.994684
     3  F   -0.198126   0.002198
 Sum of Mulliken charges =   0.00000   1.00000

 Dipole moment (field-independent basis, Debye):
    X=             -1.4072    Y=              0.0000    Z=             -0.0000  Tot=              1.4072
 Quadrupole moment (field-independent basis, Debye-Ang):
   XX=             -6.6665   YY=             -6.4902   ZZ=             -6.4902
   XY=              0.0000   XZ=             -0.0000   YZ=             -0.0000

  Exact polarizability:       4.475      -0.000       2.448      -0.000      -0.000       2.448
 Approx polarizability:       4.479      -0.000       2.431       0.000       0.000       2.431

 ******    2 imaginary frequencies (negative Signs) ******

                      1                      2                      3
                      A                      A                      A
 Frequencies --  -7462.9127             -7462.9127               118.5079
 Red. masses --      1.0410                 1.0410                 1.0532
 Frc consts  --     34.1591                34.1591                 0.0087
 IR Inten    --    243.8208               243.8208                 0.1303

                      4
                      A
 Frequencies --  15777.8019
 Red. masses --      1.0583
 Frc consts  --    155.2229
 IR Inten    --     96.8879

 - Thermochemistry -
 -------------------
 Temperature   298.150 Kelvin.  Pressure   1.00000 Atm.
 Atom     1 has atomic number  1 and mass   1.00783

 Molecular mass:    21.01405 amu.
 Principal axes and moments of inertia in atomic units:
                           1         2         3
     Eigenvalues --     0.00000  33.37562  33.37562
           X            1.00000  -0.00000   0.00000
           Y            0.00000   1.00000   0.00000
           Z            0.00000   0.00000   1.00000
 This molecule is a prolate symmetric top.
 Rotational symmetry number  1.
 Rotational temperature (Kelvin)      2.59513
 Rotational constant (GHZ):          54.073644
    2 imaginary frequencies ignored.
 Zero-point vibrational energy      95081.0 (Joules/Mol)
                                   22.72492 (Kcal/Mol)
 Warning -- explicit consideration of   1 degrees of freedom as
           vibrations may cause significant error
 Vibrational temperatures:    170.51 22700.74
          (Kelvin)

 Zero-point correction=                           0.036214 (Hartree/Particle)
 Thermal correction to Energy=                    0.039275
 Thermal correction to Enthalpy=                  0.040219
 Thermal correction to Gibbs Free Energy=         0.015995
 Sum of electronic and zero-point Energies=           -100.483102
 Sum of electronic and thermal Energies=              -100.480042
 Sum of electronic and thermal Enthalpies=            -100.479097
 Sum of electronic and thermal Free Energies=         -100.503322

                     E (Thermal)             CV                S
                      KCal/Mol        Cal/Mol-Kelvin    Cal/Mol-Kelvin
 Total                   24.645              6.902             50.984
 Electronic               0.000              0.000              1.377
 Translational            0.889              2.981             35.068
 Rotational               0.592              1.987             11.414
 Vibrational             23.164              1.934              3.125
 Vibration     1          0.609              1.934              3.125

 Normal termination of Gaussian 16 at Fri Aug 22 15:39:42 2025.
