 Gaussian 16, Revision C.01,
 Gaussian 16:  ES64L-G16RevC.01  3-Jul-2019

 -----------------------------------------
 # sp b3lyp/6-311g** Force nosymm scf=(qc)
 -----------------------------------------

 -------------------
 Title Card Required
 -------------------
 Symbolic Z-matrix:
 Charge =  0 Multiplicity = 2

                          Input orientation:
 ---------------------------------------------------------------------
 Center     Atomic      Atomic             Coordinates (Angstroms)
 Number     Number       Type             X           Y           Z
 ---------------------------------------------------------------------
      1          1           0        0.000000    0.000000    0.000000
      2          1           0       -2.700000    0.000000    0.000000
      3          9           0        1.150000    0.000000    0.000000
 ---------------------------------------------------------------------

 SCF Done:  E(UB3LYP) =  -100.937741391     a.u. after    6 cycles

 Alpha  occ. eigenvalues --  -24.64210  -1.12915  -0.48608  -0.37699  -0.37699
 Alpha  occ. eigenvalues --   -0.34846
 Alpha virt. eigenvalues --   -0.03521   0.24484   0.29388   0.93450   0.93450
 Alpha virt. eigenvalues --    1.00253   1.21839   1.22693   1.22693   1.31614
 Alpha virt. eigenvalues --    1.35048   1.35048   1.76533   2.13941   2.31014

  Beta  occ. eigenvalues --  -24.64187  -1.12856  -0.48517  -0.37678  -0.37678
  Beta virt. eigenvalues --   -0.10095  -0.01513   0.29147   0.37113   0.93450
  Beta virt. eigenvalues --    0.93450   1.00300   1.28722   1.35003   1.35003
  Beta virt. eigenvalues --    1.44687   1.44687   1.45932   1.76820   2.30895

 Mulliken charges and spin densities:
               1          2
     1  H    0.343498   0.000731
     2  H    0.006406   0.991989
     3  F   -0.349904   0.007280
 Sum of Mulliken charges =   0.00000   1.00000

 Dipole moment (field-independent basis, Debye):
    X=             -2.3073    Y=              0.0000    Z=              0.0000  Tot=              2.3073
 Quadrupole moment (field-independent basis, Debye-Ang):
   XX=             -8.4817   YY=             -7.0867   ZZ=             -7.0867
   XY=              0.0000   XZ=              0.0000   YZ=             -0.0000

  Exact polarizability:      10.804       0.000       2.361       0.000       0.000       2.361
 Approx polarizability:      13.701       0.000       2.324      -0.000       0.000       2.324

 ******    1 imaginary frequencies (negative Signs) ******

                      1                      2                      3
                      A                      A                      A
 Frequencies --   -128.8990              1189.6638              1189.6638
 Red. masses --      1.0515                 1.0307                 1.0307
 Frc consts  --      0.0103                 0.8594                 0.8594
 IR Inten    --      1.5081               141.3073               141.3073

                      4
                      A
 Frequencies --   1443.9398
 Red. masses --      1.0601
 Frc consts  --      1.3022
 IR Inten    --    103.8863

 - Thermochemistry -
 -------------------
 Temperature   298.150 Kelvin.  Pressure   1.00000 Atm.
 Atom     1 has atomic number  1 and mass   1.00783

 Molecular mass:    21.01405 amu.
 Principal axes and moments of inertia in atomic units:
                           1         2         3
     Eigenvalues --     0.00000  53.79082  53.79082
           X            1.00000  -0.00000   0.00000
           Y            0.00000   1.00000   0.00000
           Z            0.00000   0.00000   1.00000
 This molecule is a prolate symmetric top.
 Rotational symmetry number  1.
 Rotational temperature (Kelvin)      1.61020
 Rotational constant (GHZ):          33.551100
    1 imaginary frequencies ignored.
 Zero-point vibrational energy      22868.2 (Joules/Mol)
                                    5.46564 (Kcal/Mol)
 Vibrational temperatures:   1711.66  1711.66  2077.51
          (Kelvin)

 Zero-point correction=                           0.008710 (Hartree/Particle)
 Thermal correction to Energy=                    0.011112
 Thermal correction to Enthalpy=                  0.012056
 Thermal correction to Gibbs Free Energy=        -0.011183
 Sum of electronic and zero-point Energies=           -100.929031
 Sum of electronic and thermal Energies=              -100.926630
 Sum of electronic and thermal Enthalpies=            -100.925686
 Sum of electronic and thermal Free Energies=         -100.948924

                     E (Thermal)             CV                S
                      KCal/Mol        Cal/Mol-Kelvin    Cal/Mol-Kelvin
 Total                    6.973              5.482             48.910
 Electronic               0.000              0.000              1.377
 Translational            0.889              2.981             35.068
 Rotational               0.592              1.987             12.363
 Vibrational              5.491              0.514              0.101

 Normal termination of Gaussian 16 at Fri Aug 22 16:08:13 2025.
