 Gaussian 16, Revision C.01,
 Gaussian 16:  ES64L-G16RevC.01  3-Jul-2019

 -----------------------------------------
 # sp b3lyp/6-311g** Force nosymm scf=(qc)
 -----------------------------------------

 -------------------
 Title Card Required
 -------------------
 Symbolic Z-matrix:
 Charge =  0 Multiplicity = 2

                          Input orientation:
 ---------------------------------------------------------------------
 Center     Atomic      Atomic             Coordinates (Angstroms)
 Number     Number       Type             X           Y           Z
 ---------------------------------------------------------------------
      1          1           0        0.000000    0.000000    0.000000
      2          1           0       -3.950000    0.000000    0.000000
      3          9           0        1.050000    0.000000    0.000000
 ---------------------------------------------------------------------

 SCF Done:  E(UB3LYP) =  -100.958242217     a.u. after    6 cycles

 Alpha  occ. eigenvalues --  -24.64259  -1.14886  -0.50620  -0.38445  -0.38445
 Alpha  occ. eigenvalues --   -0.33418
 Alpha virt. eigenvalues --   -0.00946   0.23198   0.32610   0.93798   0.93798
 Alpha virt. eigenvalues --    0.99053   1.24032   1.24088   1.24088   1.28755
 Alpha virt. eigenvalues --    1.35513   1.35513   1.84269   2.13773   2.32858

  Beta  occ. eigenvalues --  -24.64258  -1.14884  -0.50618  -0.38445  -0.38445
  Beta virt. eigenvalues --   -0.05183  -0.00619   0.31112   0.39538   0.93798
  Beta virt. eigenvalues --    0.93798   0.99055   1.28738   1.35512   1.35512
  Beta virt. eigenvalues --    1.50197   1.50475   1.50475   1.84304   2.32351

 Mulliken charges and spin densities:
               1          2
     1  H    0.331376   0.000185
     2  H    0.000393   0.999571
     3  F   -0.331770   0.000244
 Sum of Mulliken charges =   0.00000   1.00000

 Dipole moment (field-independent basis, Debye):
    X=             -2.0943    Y=              0.0000    Z=             -0.0000  Tot=              2.0943
 Quadrupole moment (field-independent basis, Debye-Ang):
   XX=             -8.4327   YY=             -7.0063   ZZ=             -7.0063
   XY=              0.0000   XZ=             -0.0000   YZ=              0.0000

  Exact polarizability:       6.962      -0.000       2.379       0.000      -0.000       2.379
 Approx polarizability:       8.953       0.000       2.347      -0.000      -0.000       2.347

 ******    1 imaginary frequencies (negative Signs) ******

                      1                      2                      3
                      A                      A                      A
 Frequencies --    -30.8514              1126.3613              1126.3613
 Red. masses --      1.0532                 1.0380                 1.0380
 Frc consts  --      0.0006                 0.7759                 0.7759
 IR Inten    --      0.0144               165.2665               165.2665

                      4
                      A
 Frequencies --   2453.4494
 Red. masses --      1.0583
 Frc consts  --      3.7534
 IR Inten    --     80.2427

 - Thermochemistry -
 -------------------
 Temperature   298.150 Kelvin.  Pressure   1.00000 Atm.
 Atom     1 has atomic number  1 and mass   1.00783

 Molecular mass:    21.01405 amu.
 Principal axes and moments of inertia in atomic units:
                           1         2         3
     Eigenvalues --     0.00000  87.62528  87.62528
           X            1.00000  -0.00000   0.00000
           Y            0.00000   1.00000   0.00000
           Z            0.00000   0.00000   1.00000
 This molecule is a prolate symmetric top.
 Rotational symmetry number  1.
 Rotational temperature (Kelvin)      0.98846
 Rotational constant (GHZ):          20.596126
    1 imaginary frequencies ignored.
 Zero-point vibrational energy      28149.2 (Joules/Mol)
                                    6.72781 (Kcal/Mol)
 Vibrational temperatures:   1620.58  1620.58  3529.97
          (Kelvin)

 Zero-point correction=                           0.010721 (Hartree/Particle)
 Thermal correction to Energy=                    0.013127
 Thermal correction to Enthalpy=                  0.014071
 Thermal correction to Gibbs Free Energy=        -0.009633
 Sum of electronic and zero-point Energies=           -100.947521
 Sum of electronic and thermal Energies=              -100.945115
 Sum of electronic and thermal Enthalpies=            -100.944171
 Sum of electronic and thermal Free Energies=         -100.967876

                     E (Thermal)             CV                S
                      KCal/Mol        Cal/Mol-Kelvin    Cal/Mol-Kelvin
 Total                    8.237              5.486             49.890
 Electronic               0.000              0.000              1.377
 Translational            0.889              2.981             35.068
 Rotational               0.592              1.987             13.333
 Vibrational              6.756              0.518              0.112

 Normal termination of Gaussian 16 at Fri Aug 22 16:04:12 2025.
