 Gaussian 16, Revision C.01,
 Gaussian 16:  ES64L-G16RevC.01  3-Jul-2019

 -----------------------------------------
 # sp b3lyp/6-311g** Force nosymm scf=(qc)
 -----------------------------------------

 -------------------
 Title Card Required
 -------------------
 Symbolic Z-matrix:
 Charge =  0 Multiplicity = 2

                          Input orientation:
 ---------------------------------------------------------------------
 Center     Atomic      Atomic             Coordinates (Angstroms)
 Number     Number       Type             X           Y           Z
 ---------------------------------------------------------------------
      1          1           0        0.000000    0.000000    0.000000
      2          1           0       -2.950000    0.000000    0.000000
      3          9           0        2.600000    0.000000    0.000000
 ---------------------------------------------------------------------

 SCF Done:  E(UB3LYP) =  -100.766544202     a.u. after   19 cycles

 Alpha  occ. eigenvalues --  -24.72312  -1.18491  -0.51420  -0.43188  -0.43188
 Alpha  occ. eigenvalues --   -0.33123
 Alpha virt. eigenvalues --   -0.10528   0.24315   0.34489   0.90066   0.93308
 Alpha virt. eigenvalues --    0.93308   1.06175   1.24424   1.24424   1.25471
 Alpha virt. eigenvalues --    1.40579   1.40579   1.43082   2.15194   2.35892

  Beta  occ. eigenvalues --  -24.69421  -1.10246  -0.40302  -0.40302  -0.34971
  Beta virt. eigenvalues --   -0.23717  -0.07958   0.24848   0.36508   0.94707
  Beta virt. eigenvalues --    0.94707   0.97449   1.09073   1.22448   1.22448
  Beta virt. eigenvalues --    1.27442   1.44328   1.44328   1.44432   2.14502

 Mulliken charges and spin densities:
               1          2
     1  H    0.073013  -0.905916
     2  H    0.003205   0.991531
     3  F   -0.076218   0.914385
 Sum of Mulliken charges =  -0.00000   1.00000

 Dipole moment (field-independent basis, Debye):
    X=             -1.0566    Y=             -0.0000    Z=             -0.0000  Tot=              1.0566
 Quadrupole moment (field-independent basis, Debye-Ang):
   XX=             -8.9557   YY=             -7.5960   ZZ=             -7.5960
   XY=             -0.0000   XZ=             -0.0000   YZ=              0.0000

  Exact polarizability:      35.562      -0.000       2.020      -0.000      -0.000       2.020
 Approx polarizability:      40.858      -0.000       1.919      -0.000       0.000       1.919

 ******    2 imaginary frequencies (negative Signs) ******

                      1                      2                      3
                      A                      A                      A
 Frequencies --   -605.7660              -221.9592               234.2282
 Red. masses --      1.0394                 1.0727                 1.0195
 Frc consts  --      0.2247                 0.0311                 0.0330
 IR Inten    --     66.2842                 4.5526                 4.8221

                      4
                      A
 Frequencies --    234.2282
 Red. masses --      1.0195
 Frc consts  --      0.0330
 IR Inten    --      4.8221

 - Thermochemistry -
 -------------------
 Temperature   298.150 Kelvin.  Pressure   1.00000 Atm.
 Atom     1 has atomic number  1 and mass   1.00783

 Molecular mass:    21.01405 amu.
 Principal axes and moments of inertia in atomic units:
                           1         2         3
     Eigenvalues --     0.00000 123.72278 123.72278
           X            1.00000  -0.00000   0.00000
           Y            0.00000   1.00000   0.00000
           Z            0.00000   0.00000   1.00000
 This molecule is a prolate symmetric top.
 Rotational symmetry number  1.
 Rotational temperature (Kelvin)      0.70006
 Rotational constant (GHZ):          14.586976
    2 imaginary frequencies ignored.
 Zero-point vibrational energy       2802.0 (Joules/Mol)
                                    0.66969 (Kcal/Mol)
 Warning -- explicit consideration of   2 degrees of freedom as
           vibrations may cause significant error
 Vibrational temperatures:    337.00   337.00
          (Kelvin)

 Zero-point correction=                           0.001067 (Hartree/Particle)
 Thermal correction to Energy=                    0.004446
 Thermal correction to Enthalpy=                  0.005390
 Thermal correction to Gibbs Free Energy=        -0.020341
 Sum of electronic and zero-point Energies=           -100.765477
 Sum of electronic and thermal Energies=              -100.762098
 Sum of electronic and thermal Enthalpies=            -100.761154
 Sum of electronic and thermal Free Energies=         -100.786886

                     E (Thermal)             CV                S
                      KCal/Mol        Cal/Mol-Kelvin    Cal/Mol-Kelvin
 Total                    2.790              8.545             54.156
 Electronic               0.000              0.000              1.377
 Translational            0.889              2.981             35.068
 Rotational               0.592              1.987             14.018
 Vibrational              1.309              3.577              3.693
 Vibration     1          0.654              1.788              1.846
 Vibration     2          0.654              1.788              1.846

 Normal termination of Gaussian 16 at Fri Aug 22 18:04:41 2025.
