 Gaussian 16, Revision C.01,
 Gaussian 16:  ES64L-G16RevC.01  3-Jul-2019

 -----------------------------------------
 # sp b3lyp/6-311g** Force nosymm scf=(qc)
 -----------------------------------------

 -------------------
 Title Card Required
 -------------------
 Symbolic Z-matrix:
 Charge =  0 Multiplicity = 2

                          Input orientation:
 ---------------------------------------------------------------------
 Center     Atomic      Atomic             Coordinates (Angstroms)
 Number     Number       Type             X           Y           Z
 ---------------------------------------------------------------------
      1          1           0        0.000000    0.000000    0.000000
      2          1           0       -3.700000    0.000000    0.000000
      3          9           0        2.350000    0.000000    0.000000
 ---------------------------------------------------------------------

 SCF Done:  E(UB3LYP) =  -100.771177085     a.u. after   15 cycles

 Alpha  occ. eigenvalues --  -24.70803  -1.17070  -0.49890  -0.41929  -0.41929
 Alpha  occ. eigenvalues --   -0.32952
 Alpha virt. eigenvalues --   -0.11182   0.23169   0.34510   0.88967   0.94076
 Alpha virt. eigenvalues --    0.94076   1.06209   1.24554   1.24554   1.24613
 Alpha virt. eigenvalues --    1.39059   1.39059   1.47207   2.14130   2.34866

  Beta  occ. eigenvalues --  -24.68054  -1.09275  -0.39195  -0.39195  -0.36019
  Beta virt. eigenvalues --   -0.22705  -0.06485   0.23540   0.38054   0.93626
  Beta virt. eigenvalues --    0.95342   0.95342   1.08301   1.21697   1.21697
  Beta virt. eigenvalues --    1.34983   1.46060   1.46300   1.46300   2.11899

 Mulliken charges and spin densities:
               1          2
     1  H    0.114190  -0.866032
     2  H    0.000647   0.998709
     3  F   -0.114837   0.867324
 Sum of Mulliken charges =  -0.00000   1.00000

 Dipole moment (field-independent basis, Debye):
    X=             -1.3749    Y=              0.0000    Z=              0.0000  Tot=              1.3749
 Quadrupole moment (field-independent basis, Debye-Ang):
   XX=             -9.5945   YY=             -7.5495   ZZ=             -7.5495
   XY=              0.0000   XZ=              0.0000   YZ=             -0.0000

  Exact polarizability:      29.059       0.000       2.031       0.000       0.000       2.031
 Approx polarizability:      38.674       0.000       1.923       0.000       0.000       1.923

 ******    2 imaginary frequencies (negative Signs) ******

                      1                      2                      3
                      A                      A                      A
 Frequencies --   -723.8032               -96.4338               293.8022
 Red. masses --      1.0564                 1.0551                 1.0243
 Frc consts  --      0.3261                 0.0058                 0.0521
 IR Inten    --     93.4785                 0.1075                12.5681

                      4
                      A
 Frequencies --    293.8022
 Red. masses --      1.0243
 Frc consts  --      0.0521
 IR Inten    --     12.5681

 - Thermochemistry -
 -------------------
 Temperature   298.150 Kelvin.  Pressure   1.00000 Atm.
 Atom     1 has atomic number  1 and mass   1.00783

 Molecular mass:    21.01405 amu.
 Principal axes and moments of inertia in atomic units:
                           1         2         3
     Eigenvalues --     0.00000 139.42909 139.42909
           X            1.00000  -0.00000   0.00000
           Y            0.00000   1.00000   0.00000
           Z            0.00000   0.00000   1.00000
 This molecule is a prolate symmetric top.
 Rotational symmetry number  1.
 Rotational temperature (Kelvin)      0.62120
 Rotational constant (GHZ):          12.943792
    2 imaginary frequencies ignored.
 Zero-point vibrational energy       3514.7 (Joules/Mol)
                                    0.84002 (Kcal/Mol)
 Warning -- explicit consideration of   2 degrees of freedom as
           vibrations may cause significant error
 Vibrational temperatures:    422.72   422.72
          (Kelvin)

 Zero-point correction=                           0.001339 (Hartree/Particle)
 Thermal correction to Energy=                    0.004555
 Thermal correction to Enthalpy=                  0.005499
 Thermal correction to Gibbs Free Energy=        -0.019970
 Sum of electronic and zero-point Energies=           -100.769838
 Sum of electronic and thermal Energies=              -100.766622
 Sum of electronic and thermal Enthalpies=            -100.765678
 Sum of electronic and thermal Free Energies=         -100.791147

                     E (Thermal)             CV                S
                      KCal/Mol        Cal/Mol-Kelvin    Cal/Mol-Kelvin
 Total                    2.858              8.339             53.605
 Electronic               0.000              0.000              1.377
 Translational            0.889              2.981             35.068
 Rotational               0.592              1.987             14.256
 Vibrational              1.377              3.371              2.904
 Vibration     1          0.689              1.685              1.452
 Vibration     2          0.689              1.685              1.452

 Normal termination of Gaussian 16 at Fri Aug 22 17:27:54 2025.
