 Gaussian 16, Revision C.01,
 Gaussian 16:  ES64L-G16RevC.01  3-Jul-2019

 -----------------------------------------
 # sp b3lyp/6-311g** Force nosymm scf=(qc)
 -----------------------------------------

 -------------------
 Title Card Required
 -------------------
 Symbolic Z-matrix:
 Charge =  0 Multiplicity = 2

                          Input orientation:
 ---------------------------------------------------------------------
 Center     Atomic      Atomic             Coordinates (Angstroms)
 Number     Number       Type             X           Y           Z
 ---------------------------------------------------------------------
      1          1           0        0.000000    0.000000    0.000000
      2          1           0       -1.200000    0.000000    0.000000
      3          9           0        3.050000    0.000000    0.000000
 ---------------------------------------------------------------------

 SCF Done:  E(UB3LYP) =  -100.872207545     a.u. after   84 cycles

 Alpha  occ. eigenvalues --  -24.76651  -1.22477  -0.55668  -0.46911  -0.46818
 Alpha  occ. eigenvalues --   -0.36194
 Alpha virt. eigenvalues --   -0.03878   0.22986   0.34524   0.85783   0.90656
 Alpha virt. eigenvalues --    0.93301   1.03552   1.13024   1.13030   1.22314
 Alpha virt. eigenvalues --    1.54526   1.54532   2.08470   2.32278   2.55349

  Beta  occ. eigenvalues --  -24.73491  -1.13393  -0.43751  -0.43650  -0.36182
  Beta virt. eigenvalues --   -0.26295  -0.03862   0.23006   0.34597   0.92155
  Beta virt. eigenvalues --    0.94965   0.95242   1.07441   1.13023   1.13029
  Beta virt. eigenvalues --    1.22322   1.54525   1.54531   2.08480   2.32282

 Mulliken charges and spin densities:
               1          2
     1  H   -0.001347  -0.000282
     2  H   -0.005959  -0.000672
     3  F    0.007306   1.000955
 Sum of Mulliken charges =   0.00000   1.00000

 Dipole moment (field-independent basis, Debye):
    X=              0.0984    Y=             -0.0000    Z=              0.0000  Tot=              0.0984
 Quadrupole moment (field-independent basis, Debye-Ang):
   XX=             -6.1575   YY=             -7.0720   ZZ=             -7.0671
   XY=              0.0000   XZ=             -0.0000   YZ=             -0.4318

  Exact polarizability:      16.472       0.000       2.310      -0.000      -0.231       2.313
 Approx polarizability:      24.488       0.000       2.397      -0.000      -0.290       2.401

 ******    1 imaginary frequencies (negative Signs) ******

                      1                      2                      3
                      A                      A                      A
 Frequencies --   -452.4136                35.5314              1469.7027
 Red. masses --      1.0078                 1.1085                 1.0105
 Frc consts  --      0.1215                 0.0008                 1.2860
 IR Inten    --      0.8308                 0.4934                 0.0016

                      4
                      A
 Frequencies --   1469.9132
 Red. masses --      1.0105
 Frc consts  --      1.2864
 IR Inten    --      0.0018

 - Thermochemistry -
 -------------------
 Temperature   298.150 Kelvin.  Pressure   1.00000 Atm.
 Atom     1 has atomic number  1 and mass   1.00783

 Molecular mass:    21.01405 amu.
 Principal axes and moments of inertia in atomic units:
                           1         2         3
     Eigenvalues --     0.00000  89.28865  89.28865
           X            1.00000  -0.00000   0.00000
           Y            0.00000   1.00000   0.00000
           Z            0.00000   0.00000   1.00000
 This molecule is a prolate symmetric top.
 Rotational symmetry number  1.
 Rotational temperature (Kelvin)      0.97004
 Rotational constant (GHZ):          20.212438
    1 imaginary frequencies ignored.
 Zero-point vibrational energy      17795.3 (Joules/Mol)
                                    4.25319 (Kcal/Mol)
 Warning -- explicit consideration of   1 degrees of freedom as
           vibrations may cause significant error
 Vibrational temperatures:     51.12  2114.57  2114.88
          (Kelvin)

 Zero-point correction=                           0.006778 (Hartree/Particle)
 Thermal correction to Energy=                    0.010015
 Thermal correction to Enthalpy=                  0.010959
 Thermal correction to Gibbs Free Energy=        -0.015333
 Sum of electronic and zero-point Energies=           -100.865430
 Sum of electronic and thermal Energies=              -100.862193
 Sum of electronic and thermal Enthalpies=            -100.861248
 Sum of electronic and thermal Free Energies=         -100.887540

                     E (Thermal)             CV                S
                      KCal/Mol        Cal/Mol-Kelvin    Cal/Mol-Kelvin
 Total                    6.285              7.117             55.336
 Electronic               0.000              0.000              1.377
 Translational            0.889              2.981             35.068
 Rotational               0.592              1.987             13.370
 Vibrational              4.803              2.149              5.521
 Vibration     1          0.594              1.982              5.494

 Normal termination of Gaussian 16 at Fri Aug 22 19:40:40 2025.
