 Gaussian 16, Revision C.01,
 Gaussian 16:  ES64L-G16RevC.01  3-Jul-2019

 -----------------------------------------
 # sp b3lyp/6-311g** Force nosymm scf=(qc)
 -----------------------------------------

 -------------------
 Title Card Required
 -------------------
 Symbolic Z-matrix:
 Charge =  0 Multiplicity = 2

                          Input orientation:
 ---------------------------------------------------------------------
 Center     Atomic      Atomic             Coordinates (Angstroms)
 Number     Number       Type             X           Y           Z
 ---------------------------------------------------------------------
      1          1           0        0.000000    0.000000    0.000000
      2          1           0       -0.550000    0.000000    0.000000
      3          9           0        0.750000    0.000000    0.000000
 ---------------------------------------------------------------------

 SCF Done:  E(UB3LYP) =  -100.712798932     a.u. after    6 cycles

 Alpha  occ. eigenvalues --  -24.68865  -1.35311  -0.72246  -0.46426  -0.46426
 Alpha  occ. eigenvalues --   -0.28053
 Alpha virt. eigenvalues --    0.16706   0.17340   0.79901   0.85019   0.85019
 Alpha virt. eigenvalues --    0.91452   1.11577   1.11577   1.45507   1.65356
 Alpha virt. eigenvalues --    1.94587   1.94587   1.97775   3.21382   3.74544

  Beta  occ. eigenvalues --  -24.67604  -1.31679  -0.66916  -0.45326  -0.45326
  Beta virt. eigenvalues --   -0.10332   0.17743   0.21118   0.83884   0.86900
  Beta virt. eigenvalues --    0.86900   0.94793   1.16149   1.16149   1.47282
  Beta virt. eigenvalues --    1.70393   1.99726   1.99726   2.04028   3.27397

 Mulliken charges and spin densities:
               1          2
     1  H    0.281748  -0.072724
     2  H   -0.155272   0.850297
     3  F   -0.126475   0.222427
 Sum of Mulliken charges =   0.00000   1.00000

 Dipole moment (field-independent basis, Debye):
    X=             -0.6139    Y=             -0.0000    Z=             -0.0000  Tot=              0.6139
 Quadrupole moment (field-independent basis, Debye-Ang):
   XX=             -7.4923   YY=             -6.4121   ZZ=             -6.4121
   XY=             -0.0000   XZ=              0.0000   YZ=              0.0000

  Exact polarizability:       9.349      -0.000       2.464       0.000      -0.000       2.464
 Approx polarizability:       9.643       0.000       2.565      -0.000      -0.000       2.565

 ******    2 imaginary frequencies (negative Signs) ******

                      1                      2                      3
                      A                      A                      A
 Frequencies --  -5206.7924             -5206.7924              4781.9446
 Red. masses --      1.0146                 1.0146                 1.0982
 Frc consts  --     16.2067                16.2067                14.7960
 IR Inten    --     93.1174                93.1174               348.3243

                      4
                      A
 Frequencies --   9705.1955
 Red. masses --      1.0165
 Frc consts  --     56.4112
 IR Inten    --      9.0507

 - Thermochemistry -
 -------------------
 Temperature   298.150 Kelvin.  Pressure   1.00000 Atm.
 Atom     1 has atomic number  1 and mass   1.00783

 Molecular mass:    21.01405 amu.
 Principal axes and moments of inertia in atomic units:
                           1         2         3
     Eigenvalues --     0.00000   7.38139   7.38139
           X            1.00000  -0.00000   0.00000
           Y            0.00000   1.00000   0.00000
           Z            0.00000   0.00000   1.00000
 This molecule is a prolate symmetric top.
 Rotational symmetry number  1.
 Rotational temperature (Kelvin)     11.73410
 Rotational constant (GHZ):         244.498955
    2 imaginary frequencies ignored.
 Zero-point vibrational energy      86652.3 (Joules/Mol)
                                   20.71041 (Kcal/Mol)
 Vibrational temperatures:   6880.15 13963.61
          (Kelvin)

 Zero-point correction=                           0.033004 (Hartree/Particle)
 Thermal correction to Energy=                    0.035365
 Thermal correction to Enthalpy=                  0.036309
 Thermal correction to Gibbs Free Energy=         0.014994
 Sum of electronic and zero-point Energies=           -100.679795
 Sum of electronic and thermal Energies=              -100.677434
 Sum of electronic and thermal Enthalpies=            -100.676490
 Sum of electronic and thermal Free Energies=         -100.697805

                     E (Thermal)             CV                S
                      KCal/Mol        Cal/Mol-Kelvin    Cal/Mol-Kelvin
 Total                   22.192              4.968             44.861
 Electronic               0.000              0.000              1.377
 Translational            0.889              2.981             35.068
 Rotational               0.592              1.987              8.416
 Vibrational             20.710              0.000              0.000

 Normal termination of Gaussian 16 at Fri Aug 22 15:47:45 2025.
