 Gaussian 16, Revision C.01,
 Gaussian 16:  ES64L-G16RevC.01  3-Jul-2019

 -----------------------------------------
 # sp b3lyp/6-311g** Force nosymm scf=(qc)
 -----------------------------------------

 -------------------
 Title Card Required
 -------------------
 Symbolic Z-matrix:
 Charge =  0 Multiplicity = 2

                          Input orientation:
 ---------------------------------------------------------------------
 Center     Atomic      Atomic             Coordinates (Angstroms)
 Number     Number       Type             X           Y           Z
 ---------------------------------------------------------------------
      1          1           0        0.000000    0.000000    0.000000
      2          1           0       -3.600000    0.000000    0.000000
      3          9           0        0.750000    0.000000    0.000000
 ---------------------------------------------------------------------

 SCF Done:  E(UB3LYP) =  -100.921939719     a.u. after    6 cycles

 Alpha  occ. eigenvalues --  -24.63454  -1.25477  -0.57383  -0.41194  -0.41194
 Alpha  occ. eigenvalues --   -0.33404
 Alpha virt. eigenvalues --    0.05826   0.24676   0.49226   0.93921   0.93921
 Alpha virt. eigenvalues --    0.96511   1.23905   1.24106   1.24106   1.30325
 Alpha virt. eigenvalues --    1.41704   1.41704   2.00306   2.14469   2.67712

  Beta  occ. eigenvalues --  -24.63454  -1.25476  -0.57382  -0.41194  -0.41194
  Beta virt. eigenvalues --   -0.05238   0.06224   0.39375   0.49193   0.93921
  Beta virt. eigenvalues --    0.93921   0.96504   1.29965   1.41704   1.41704
  Beta virt. eigenvalues --    1.50839   1.50877   1.50877   2.00345   2.44677

 Mulliken charges and spin densities:
               1          2
     1  H    0.267720   0.000514
     2  H    0.000646   0.999223
     3  F   -0.268366   0.000264
 Sum of Mulliken charges =   0.00000   1.00000

 Dipole moment (field-independent basis, Debye):
    X=             -1.6649    Y=              0.0000    Z=              0.0000  Tot=              1.6649
 Quadrupole moment (field-independent basis, Debye-Ang):
   XX=             -7.4518   YY=             -6.7169   ZZ=             -6.7169
   XY=              0.0000   XZ=              0.0000   YZ=              0.0000

  Exact polarizability:       4.241      -0.000       2.445       0.000      -0.000       2.445
 Approx polarizability:       4.693      -0.000       2.426      -0.000      -0.000       2.426

 ******    3 imaginary frequencies (negative Signs) ******

                      1                      2                      3
                      A                      A                      A
 Frequencies --  -2708.5431             -2708.5431               -38.3959
 Red. masses --      1.0414                 1.0414                 1.0532
 Frc consts  --      4.5015                 4.5015                 0.0009
 IR Inten    --    205.1804               205.1804                 0.0224

                      4
                      A
 Frequencies --   7586.7263
 Red. masses --      1.0583
 Frc consts  --     35.8899
 IR Inten    --    105.9705

 - Thermochemistry -
 -------------------
 Temperature   298.150 Kelvin.  Pressure   1.00000 Atm.
 Atom     1 has atomic number  1 and mass   1.00783

 Molecular mass:    21.01405 amu.
 Principal axes and moments of inertia in atomic units:
                           1         2         3
     Eigenvalues --     0.00000  65.63718  65.63718
           X            1.00000  -0.00000   0.00000
           Y            0.00000   1.00000   0.00000
           Z            0.00000   0.00000   1.00000
 This molecule is a prolate symmetric top.
 Rotational symmetry number  1.
 Rotational temperature (Kelvin)      1.31959
 Rotational constant (GHZ):          27.495717
    3 imaginary frequencies ignored.
 Zero-point vibrational energy      45378.7 (Joules/Mol)
                                   10.84577 (Kcal/Mol)
 Vibrational temperatures:  10915.61
          (Kelvin)

 Zero-point correction=                           0.017284 (Hartree/Particle)
 Thermal correction to Energy=                    0.019644
 Thermal correction to Enthalpy=                  0.020588
 Thermal correction to Gibbs Free Energy=        -0.002790
 Sum of electronic and zero-point Energies=           -100.904656
 Sum of electronic and thermal Energies=              -100.902295
 Sum of electronic and thermal Enthalpies=            -100.901351
 Sum of electronic and thermal Free Energies=         -100.924730

                     E (Thermal)             CV                S
                      KCal/Mol        Cal/Mol-Kelvin    Cal/Mol-Kelvin
 Total                   12.327              4.968             49.204
 Electronic               0.000              0.000              1.377
 Translational            0.889              2.981             35.068
 Rotational               0.592              1.987             12.758
 Vibrational             10.846              0.000              0.000

 Normal termination of Gaussian 16 at Fri Aug 22 15:49:46 2025.
