 Gaussian 16, Revision C.01,
 Gaussian 16:  ES64L-G16RevC.01  3-Jul-2019

 -----------------------------------------
 # sp b3lyp/6-311g** Force nosymm scf=(qc)
 -----------------------------------------

 -------------------
 Title Card Required
 -------------------
 Symbolic Z-matrix:
 Charge =  0 Multiplicity = 2

                          Input orientation:
 ---------------------------------------------------------------------
 Center     Atomic      Atomic             Coordinates (Angstroms)
 Number     Number       Type             X           Y           Z
 ---------------------------------------------------------------------
      1          1           0        0.000000    0.000000    0.000000
      2          1           0       -2.800000    0.000000    0.000000
      3          9           0        3.950000    0.000000    0.000000
 ---------------------------------------------------------------------

 SCF Done:  E(UB3LYP) =  -100.760294233     a.u. after   49 cycles

 Alpha  occ. eigenvalues --  -24.75872  -1.21800  -0.54997  -0.46177  -0.46177
 Alpha  occ. eigenvalues --   -0.32401
 Alpha virt. eigenvalues --   -0.08230   0.25390   0.35845   0.86616   0.91173
 Alpha virt. eigenvalues --    0.91173   1.01105   1.25164   1.25164   1.26277
 Alpha virt. eigenvalues --    1.43537   1.43537   1.43869   2.16032   2.38704

  Beta  occ. eigenvalues --  -24.72727  -1.12758  -0.43025  -0.43025  -0.32570
  Beta virt. eigenvalues --   -0.25733  -0.08011   0.25233   0.36130   0.92672
  Beta virt. eigenvalues --    0.92672   0.95988   1.05231   1.24980   1.24980
  Beta virt. eigenvalues --    1.26074   1.43860   1.43860   1.44191   2.16083

 Mulliken charges and spin densities:
               1          2
     1  H    0.002251  -0.983882
     2  H    0.000451   0.986928
     3  F   -0.002702   0.996954
 Sum of Mulliken charges =   0.00000   1.00000

 Dipole moment (field-independent basis, Debye):
    X=             -0.0612    Y=             -0.0000    Z=             -0.0000  Tot=              0.0612
 Quadrupole moment (field-independent basis, Debye-Ang):
   XX=             -6.8146   YY=             -7.6458   ZZ=             -7.6458
   XY=              0.0000   XZ=             -0.0000   YZ=              0.0000

  Exact polarizability:      15.946       0.000       2.027      -0.000       0.000       2.027
 Approx polarizability:      11.996       0.000       1.933      -0.000       0.000       1.933

 ******    2 imaginary frequencies (negative Signs) ******

                      1                      2                      3
                      A                      A                      A
 Frequencies --   -435.1615               -77.2541               156.7907
 Red. masses --      1.0079                 1.1084                 1.0143
 Frc consts  --      0.1125                 0.0039                 0.0147
 IR Inten    --      0.7129                 0.7507                 0.0041

                      4
                      A
 Frequencies --    156.7907
 Red. masses --      1.0143
 Frc consts  --      0.0147
 IR Inten    --      0.0041

 - Thermochemistry -
 -------------------
 Temperature   298.150 Kelvin.  Pressure   1.00000 Atm.
 Atom     1 has atomic number  1 and mass   1.00783

 Molecular mass:    21.01405 amu.
 Principal axes and moments of inertia in atomic units:
                           1         2         3
     Eigenvalues --     0.00000 200.37159 200.37159
           X            1.00000  -0.00000   0.00000
           Y            0.00000   1.00000   0.00000
           Z            0.00000   0.00000   1.00000
 This molecule is a prolate symmetric top.
 Rotational symmetry number  1.
 Rotational temperature (Kelvin)      0.43227
 Rotational constant (GHZ):           9.006971
    2 imaginary frequencies ignored.
 Zero-point vibrational energy       1875.6 (Joules/Mol)
                                    0.44829 (Kcal/Mol)
 Warning -- explicit consideration of   2 degrees of freedom as
           vibrations may cause significant error
 Vibrational temperatures:    225.59   225.59
          (Kelvin)

 Zero-point correction=                           0.000714 (Hartree/Particle)
 Thermal correction to Energy=                    0.004338
 Thermal correction to Enthalpy=                  0.005282
 Thermal correction to Gibbs Free Energy=        -0.021609
 Sum of electronic and zero-point Energies=           -100.759580
 Sum of electronic and thermal Energies=              -100.755956
 Sum of electronic and thermal Enthalpies=            -100.755012
 Sum of electronic and thermal Free Energies=         -100.781903

                     E (Thermal)             CV                S
                      KCal/Mol        Cal/Mol-Kelvin    Cal/Mol-Kelvin
 Total                    2.722              8.758             56.598
 Electronic               0.000              0.000              1.377
 Translational            0.889              2.981             35.068
 Rotational               0.592              1.987             14.976
 Vibrational              1.241              3.790              5.176
 Vibration     1          0.620              1.895              2.588
 Vibration     2          0.620              1.895              2.588

 Normal termination of Gaussian 16 at Sat Aug 23 01:40:13 2025.
