 Gaussian 16, Revision C.01,
 Gaussian 16:  ES64L-G16RevC.01  3-Jul-2019

 -----------------------------------------
 # sp b3lyp/6-311g** Force nosymm scf=(qc)
 -----------------------------------------

 -------------------
 Title Card Required
 -------------------
 Symbolic Z-matrix:
 Charge =  0 Multiplicity = 2

                          Input orientation:
 ---------------------------------------------------------------------
 Center     Atomic      Atomic             Coordinates (Angstroms)
 Number     Number       Type             X           Y           Z
 ---------------------------------------------------------------------
      1          1           0        0.000000    0.000000    0.000000
      2          1           0       -0.550000    0.000000    0.000000
      3          9           0        1.200000    0.000000    0.000000
 ---------------------------------------------------------------------

 SCF Done:  E(UB3LYP) =  -100.877651534     a.u. after    7 cycles

 Alpha  occ. eigenvalues --  -24.69390  -1.18978  -0.63745  -0.42292  -0.42292
 Alpha  occ. eigenvalues --   -0.39416
 Alpha virt. eigenvalues --    0.12861   0.18892   0.59295   0.87204   0.87204
 Alpha virt. eigenvalues --    0.95009   1.13134   1.13134   1.51783   1.62184
 Alpha virt. eigenvalues --    1.85370   1.90986   1.90986   2.48709   3.78563

  Beta  occ. eigenvalues --  -24.66975  -1.12714  -0.55417  -0.40030  -0.40030
  Beta virt. eigenvalues --   -0.19706   0.14186   0.19555   0.62956   0.88678
  Beta virt. eigenvalues --    0.88678   1.00147   1.16126   1.16126   1.54835
  Beta virt. eigenvalues --    1.67030   1.86614   1.93412   1.93412   2.53672

 Mulliken charges and spin densities:
               1          2
     1  H    0.232808  -0.014151
     2  H   -0.041752   0.341834
     3  F   -0.191057   0.672317
 Sum of Mulliken charges =   0.00000   1.00000

 Dipole moment (field-independent basis, Debye):
    X=             -1.1909    Y=             -0.0000    Z=              0.0000  Tot=              1.1909
 Quadrupole moment (field-independent basis, Debye-Ang):
   XX=             -7.0347   YY=             -6.4442   ZZ=             -6.4442
   XY=             -0.0000   XZ=              0.0000   YZ=              0.0000

  Exact polarizability:      13.214      -0.000       2.383       0.000      -0.000       2.383
 Approx polarizability:      15.977      -0.000       2.445       0.000      -0.000       2.445

 ******    2 imaginary frequencies (negative Signs) ******

                      1                      2                      3
                      A                      A                      A
 Frequencies --  -3988.0497             -3988.0497              1269.1345
 Red. masses --      1.0112                 1.0112                 1.1085
 Frc consts  --      9.4759                 9.4759                 1.0519
 IR Inten    --      3.6316                 3.6316                22.7573

                      4
                      A
 Frequencies --   8026.2222
 Red. masses --      1.0079
 Frc consts  --     38.2542
 IR Inten    --    373.2126

 - Thermochemistry -
 -------------------
 Temperature   298.150 Kelvin.  Pressure   1.00000 Atm.
 Atom     1 has atomic number  1 and mass   1.00783

 Molecular mass:    21.01405 amu.
 Principal axes and moments of inertia in atomic units:
                           1         2         3
     Eigenvalues --     0.00000  14.70242  14.70242
           X            1.00000  -0.00000   0.00000
           Y            0.00000   1.00000   0.00000
           Z            0.00000   0.00000   1.00000
 This molecule is a prolate symmetric top.
 Rotational symmetry number  1.
 Rotational temperature (Kelvin)      5.89113
 Rotational constant (GHZ):         122.751267
    2 imaginary frequencies ignored.
 Zero-point vibrational energy      55598.6 (Joules/Mol)
                                   13.28838 (Kcal/Mol)
 Vibrational temperatures:   1826.00 11547.94
          (Kelvin)

 Zero-point correction=                           0.021176 (Hartree/Particle)
 Thermal correction to Energy=                    0.023550
 Thermal correction to Enthalpy=                  0.024494
 Thermal correction to Gibbs Free Energy=         0.002513
 Sum of electronic and zero-point Energies=           -100.856475
 Sum of electronic and thermal Energies=              -100.854102
 Sum of electronic and thermal Enthalpies=            -100.853158
 Sum of electronic and thermal Free Energies=         -100.875138

                     E (Thermal)             CV                S
                      KCal/Mol        Cal/Mol-Kelvin    Cal/Mol-Kelvin
 Total                   14.778              5.132             46.262
 Electronic               0.000              0.000              1.377
 Translational            0.889              2.981             35.068
 Rotational               0.592              1.987              9.785
 Vibrational             13.296              0.164              0.031

 Normal termination of Gaussian 16 at Fri Aug 22 16:09:07 2025.
