 Gaussian 16, Revision C.01,
 Gaussian 16:  ES64L-G16RevC.01  3-Jul-2019

 -----------------------------------------
 # sp b3lyp/6-311g** Force nosymm scf=(qc)
 -----------------------------------------

 -------------------
 Title Card Required
 -------------------
 Symbolic Z-matrix:
 Charge =  0 Multiplicity = 2

                          Input orientation:
 ---------------------------------------------------------------------
 Center     Atomic      Atomic             Coordinates (Angstroms)
 Number     Number       Type             X           Y           Z
 ---------------------------------------------------------------------
      1          1           0        0.000000    0.000000    0.000000
      2          1           0       -0.650000    0.000000    0.000000
      3          9           0        2.100000    0.000000    0.000000
 ---------------------------------------------------------------------

 SCF Done:  E(UB3LYP) =  -100.926730078     a.u. after    6 cycles

 Alpha  occ. eigenvalues --  -24.75486  -1.21492  -0.55270  -0.46258  -0.45890
 Alpha  occ. eigenvalues --   -0.45890
 Alpha virt. eigenvalues --    0.08953   0.19928   0.48645   0.90720   0.90720
 Alpha virt. eigenvalues --    0.91419   1.08548   1.08548   1.15636   1.62542
 Alpha virt. eigenvalues --    1.83784   1.88308   1.88308   2.40982   3.66487

  Beta  occ. eigenvalues --  -24.72400  -1.12665  -0.46607  -0.42807  -0.42807
  Beta virt. eigenvalues --   -0.25854   0.09573   0.20443   0.49027   0.92137
  Beta virt. eigenvalues --    0.92137   0.99417   1.08951   1.08951   1.19530
  Beta virt. eigenvalues --    1.63375   1.84141   1.88486   1.88486   2.41464

 Mulliken charges and spin densities:
               1          2
     1  H   -0.007391  -0.016755
     2  H    0.024653   0.045815
     3  F   -0.017262   0.970940
 Sum of Mulliken charges =   0.00000   1.00000

 Dipole moment (field-independent basis, Debye):
    X=             -0.2455    Y=             -0.0000    Z=             -0.0000  Tot=              0.2455
 Quadrupole moment (field-independent basis, Debye-Ang):
   XX=             -5.7759   YY=             -6.7887   ZZ=             -6.7887
   XY=             -0.0000   XZ=             -0.0000   YZ=              0.0000

  Exact polarizability:      12.997       0.000       2.011       0.000       0.000       2.011
 Approx polarizability:      13.729      -0.000       2.084      -0.000      -0.000       2.084

 ******    3 imaginary frequencies (negative Signs) ******

                      1                      2                      3
                      A                      A                      A
 Frequencies --  -2017.8323             -2017.8323               -67.1050
 Red. masses --      1.0096                 1.0096                 1.1085
 Frc consts  --      2.4220                 2.4220                 0.0029
 IR Inten    --      0.3788                 0.3788                11.5976

                      4
                      A
 Frequencies --   5939.7537
 Red. masses --      1.0078
 Frc consts  --     20.9495
 IR Inten    --    108.4852

 - Thermochemistry -
 -------------------
 Temperature   298.150 Kelvin.  Pressure   1.00000 Atm.
 Atom     1 has atomic number  1 and mass   1.00783

 Molecular mass:    21.01405 amu.
 Principal axes and moments of inertia in atomic units:
                           1         2         3
     Eigenvalues --     0.00000  39.02898  39.02898
           X            1.00000  -0.00000   0.00000
           Y            0.00000   1.00000   0.00000
           Z            0.00000   0.00000   1.00000
 This molecule is a prolate symmetric top.
 Rotational symmetry number  1.
 Rotational temperature (Kelvin)      2.21922
 Rotational constant (GHZ):          46.241051
    3 imaginary frequencies ignored.
 Zero-point vibrational energy      35527.6 (Joules/Mol)
                                    8.49130 (Kcal/Mol)
 Vibrational temperatures:   8545.98
          (Kelvin)

 Zero-point correction=                           0.013532 (Hartree/Particle)
 Thermal correction to Energy=                    0.015892
 Thermal correction to Enthalpy=                  0.016836
 Thermal correction to Gibbs Free Energy=        -0.006051
 Sum of electronic and zero-point Energies=           -100.913198
 Sum of electronic and thermal Energies=              -100.910838
 Sum of electronic and thermal Enthalpies=            -100.909894
 Sum of electronic and thermal Free Energies=         -100.932781

                     E (Thermal)             CV                S
                      KCal/Mol        Cal/Mol-Kelvin    Cal/Mol-Kelvin
 Total                    9.973              4.968             48.171
 Electronic               0.000              0.000              1.377
 Translational            0.889              2.981             35.068
 Rotational               0.592              1.987             11.725
 Vibrational              8.491              0.000              0.000

 Normal termination of Gaussian 16 at Fri Aug 22 17:02:38 2025.
