 Gaussian 16, Revision C.01,
 Gaussian 16:  ES64L-G16RevC.01  3-Jul-2019

 -----------------------------------------
 # sp b3lyp/6-311g** Force nosymm scf=(qc)
 -----------------------------------------

 -------------------
 Title Card Required
 -------------------
 Symbolic Z-matrix:
 Charge =  0 Multiplicity = 2

                          Input orientation:
 ---------------------------------------------------------------------
 Center     Atomic      Atomic             Coordinates (Angstroms)
 Number     Number       Type             X           Y           Z
 ---------------------------------------------------------------------
      1          1           0        0.000000    0.000000    0.000000
      2          1           0       -3.050000    0.000000    0.000000
      3          9           0        3.850000    0.000000    0.000000
 ---------------------------------------------------------------------

 SCF Done:  E(UB3LYP) =  -100.759444559     a.u. after   30 cycles

 Alpha  occ. eigenvalues --  -24.75802  -1.21735  -0.54926  -0.46117  -0.46117
 Alpha  occ. eigenvalues --   -0.32347
 Alpha virt. eigenvalues --   -0.07615   0.24965   0.36581   0.86768   0.91219
 Alpha virt. eigenvalues --    0.91219   1.01202   1.25184   1.25184   1.25801
 Alpha virt. eigenvalues --    1.44434   1.44519   1.44519   2.15733   2.39742

  Beta  occ. eigenvalues --  -24.72662  -1.12706  -0.42969  -0.42969  -0.32570
  Beta virt. eigenvalues --   -0.25695  -0.07347   0.24790   0.36961   0.92716
  Beta virt. eigenvalues --    0.92716   0.96103   1.05311   1.24937   1.24937
  Beta virt. eigenvalues --    1.25533   1.44844   1.44927   1.44927   2.15798

 Mulliken charges and spin densities:
               1          2
     1  H    0.003614  -0.988937
     2  H    0.000289   0.993294
     3  F   -0.003903   0.995643
 Sum of Mulliken charges =   0.00000   1.00000

 Dipole moment (field-independent basis, Debye):
    X=             -0.0818    Y=              0.0000    Z=             -0.0000  Tot=              0.0818
 Quadrupole moment (field-independent basis, Debye-Ang):
   XX=             -6.9409   YY=             -7.6344   ZZ=             -7.6344
   XY=             -0.0000   XZ=             -0.0000   YZ=              0.0000

  Exact polarizability:      16.147       0.000       2.029      -0.000       0.000       2.029
 Approx polarizability:      11.968      -0.000       1.934      -0.000      -0.000       1.934

 ******    2 imaginary frequencies (negative Signs) ******

                      1                      2                      3
                      A                      A                      A
 Frequencies --   -319.4680               -86.5697               112.1476
 Red. masses --      1.0085                 1.1077                 1.0154
 Frc consts  --      0.0606                 0.0049                 0.0075
 IR Inten    --      1.4338                 1.1702                 0.0116

                      4
                      A
 Frequencies --    112.1476
 Red. masses --      1.0154
 Frc consts  --      0.0075
 IR Inten    --      0.0116

 - Thermochemistry -
 -------------------
 Temperature   298.150 Kelvin.  Pressure   1.00000 Atm.
 Atom     1 has atomic number  1 and mass   1.00783

 Molecular mass:    21.01405 amu.
 Principal axes and moments of inertia in atomic units:
                           1         2         3
     Eigenvalues --     0.00000 204.74821 204.74821
           X            1.00000  -0.00000   0.00000
           Y            0.00000   1.00000   0.00000
           Z            0.00000   0.00000   1.00000
 This molecule is a prolate symmetric top.
 Rotational symmetry number  1.
 Rotational temperature (Kelvin)      0.42303
 Rotational constant (GHZ):           8.814442
    2 imaginary frequencies ignored.
 Zero-point vibrational energy       1341.6 (Joules/Mol)
                                    0.32065 (Kcal/Mol)
 Warning -- explicit consideration of   2 degrees of freedom as
           vibrations may cause significant error
 Vibrational temperatures:    161.36   161.36
          (Kelvin)

 Zero-point correction=                           0.000511 (Hartree/Particle)
 Thermal correction to Energy=                    0.004295
 Thermal correction to Enthalpy=                  0.005239
 Thermal correction to Gibbs Free Energy=        -0.022284
 Sum of electronic and zero-point Energies=           -100.758934
 Sum of electronic and thermal Energies=              -100.755150
 Sum of electronic and thermal Enthalpies=            -100.754206
 Sum of electronic and thermal Free Energies=         -100.781729

                     E (Thermal)             CV                S
                      KCal/Mol        Cal/Mol-Kelvin    Cal/Mol-Kelvin
 Total                    2.695              8.847             57.927
 Electronic               0.000              0.000              1.377
 Translational            0.889              2.981             35.068
 Rotational               0.592              1.987             15.019
 Vibrational              1.214              3.879              6.463
 Vibration     1          0.607              1.939              3.231
 Vibration     2          0.607              1.939              3.231

 Normal termination of Gaussian 16 at Sat Aug 23 01:10:10 2025.
