 Gaussian 16, Revision C.01,
 Gaussian 16:  ES64L-G16RevC.01  3-Jul-2019

 -----------------------------------------
 # sp b3lyp/6-311g** Force nosymm scf=(qc)
 -----------------------------------------

 -------------------
 Title Card Required
 -------------------
 Symbolic Z-matrix:
 Charge =  0 Multiplicity = 2

                          Input orientation:
 ---------------------------------------------------------------------
 Center     Atomic      Atomic             Coordinates (Angstroms)
 Number     Number       Type             X           Y           Z
 ---------------------------------------------------------------------
      1          1           0        0.000000    0.000000    0.000000
      2          1           0       -3.550000    0.000000    0.000000
      3          9           0        0.550000    0.000000    0.000000
 ---------------------------------------------------------------------

 SCF Done:  E(UB3LYP) =  -100.519223306     a.u. after    6 cycles

 Alpha  occ. eigenvalues --  -24.62694  -1.38436  -0.62259  -0.43636  -0.43636
 Alpha  occ. eigenvalues --   -0.33261
 Alpha virt. eigenvalues --    0.07734   0.25001   0.60252   0.91192   0.91212
 Alpha virt. eigenvalues --    0.91212   1.24028   1.24248   1.24248   1.35495
 Alpha virt. eigenvalues --    1.54132   1.54132   1.96765   2.14799   3.65601

  Beta  occ. eigenvalues --  -24.62694  -1.38434  -0.62259  -0.43636  -0.43636
  Beta virt. eigenvalues --   -0.05329   0.08144   0.39165   0.60269   0.91189
  Beta virt. eigenvalues --    0.91210   0.91210   1.34838   1.49550   1.49969
  Beta virt. eigenvalues --    1.49969   1.54133   1.54133   1.96717   2.45190

 Mulliken charges and spin densities:
               1          2
     1  H    0.200172   0.000464
     2  H    0.000669   0.999221
     3  F   -0.200841   0.000315
 Sum of Mulliken charges =   0.00000   1.00000

 Dipole moment (field-independent basis, Debye):
    X=             -1.3679    Y=             -0.0000    Z=              0.0000  Tot=              1.3679
 Quadrupole moment (field-independent basis, Debye-Ang):
   XX=             -6.8115   YY=             -6.4956   ZZ=             -6.4956
   XY=             -0.0000   XZ=              0.0000   YZ=             -0.0000

  Exact polarizability:       3.186      -0.000       2.428       0.000       0.000       2.428
 Approx polarizability:       3.378       0.000       2.405      -0.000       0.000       2.405

 ******    3 imaginary frequencies (negative Signs) ******

                      1                      2                      3
                      A                      A                      A
 Frequencies --  -7511.1182             -7511.1182               -33.2810
 Red. masses --      1.0450                 1.0450                 1.0532
 Frc consts  --     34.7367                34.7367                 0.0007
 IR Inten    --    259.2554               259.2554                 0.0208

                      4
                      A
 Frequencies --  15777.8487
 Red. masses --      1.0583
 Frc consts  --    155.2241
 IR Inten    --     88.6457

 - Thermochemistry -
 -------------------
 Temperature   298.150 Kelvin.  Pressure   1.00000 Atm.
 Atom     1 has atomic number  1 and mass   1.00783

 Molecular mass:    21.01405 amu.
 Principal axes and moments of inertia in atomic units:
                           1         2         3
     Eigenvalues --     0.00000  57.85584  57.85584
           X            1.00000  -0.00000   0.00000
           Y            0.00000   1.00000   0.00000
           Z            0.00000   0.00000   1.00000
 This molecule is a prolate symmetric top.
 Rotational symmetry number  1.
 Rotational temperature (Kelvin)      1.49706
 Rotational constant (GHZ):          31.193760
    3 imaginary frequencies ignored.
 Zero-point vibrational energy      94372.5 (Joules/Mol)
                                   22.55557 (Kcal/Mol)
 Vibrational temperatures:  22700.81
          (Kelvin)

 Zero-point correction=                           0.035945 (Hartree/Particle)
 Thermal correction to Energy=                    0.038305
 Thermal correction to Enthalpy=                  0.039249
 Thermal correction to Gibbs Free Energy=         0.015990
 Sum of electronic and zero-point Energies=           -100.483279
 Sum of electronic and thermal Energies=              -100.480918
 Sum of electronic and thermal Enthalpies=            -100.479974
 Sum of electronic and thermal Free Energies=         -100.503233

                     E (Thermal)             CV                S
                      KCal/Mol        Cal/Mol-Kelvin    Cal/Mol-Kelvin
 Total                   24.037              4.968             48.953
 Electronic               0.000              0.000              1.377
 Translational            0.889              2.981             35.068
 Rotational               0.592              1.987             12.508
 Vibrational             22.556              0.000              0.000

 Normal termination of Gaussian 16 at Fri Aug 22 15:40:20 2025.
