 Gaussian 16, Revision C.01,
 Gaussian 16:  ES64L-G16RevC.01  3-Jul-2019

 -----------------------------------------
 # sp b3lyp/6-311g** Force nosymm scf=(qc)
 -----------------------------------------

 -------------------
 Title Card Required
 -------------------
 Symbolic Z-matrix:
 Charge =  0 Multiplicity = 2

                          Input orientation:
 ---------------------------------------------------------------------
 Center     Atomic      Atomic             Coordinates (Angstroms)
 Number     Number       Type             X           Y           Z
 ---------------------------------------------------------------------
      1          1           0        0.000000    0.000000    0.000000
      2          1           0       -2.650000    0.000000    0.000000
      3          9           0        0.800000    0.000000    0.000000
 ---------------------------------------------------------------------

 SCF Done:  E(UB3LYP) =  -100.950506089     a.u. after    6 cycles

 Alpha  occ. eigenvalues --  -24.63625  -1.22990  -0.56167  -0.40601  -0.40601
 Alpha  occ. eigenvalues --   -0.34417
 Alpha virt. eigenvalues --    0.06056   0.25452   0.45839   0.94252   0.94252
 Alpha virt. eigenvalues --    0.96939   1.19883   1.23128   1.23128   1.38067
 Alpha virt. eigenvalues --    1.39869   1.39869   2.03085   2.14214   2.53167

  Beta  occ. eigenvalues --  -24.63617  -1.22969  -0.56137  -0.40594  -0.40594
  Beta virt. eigenvalues --   -0.08110   0.07449   0.37989   0.46111   0.94252
  Beta virt. eigenvalues --    0.94252   0.96990   1.29551   1.39861   1.39861
  Beta virt. eigenvalues --    1.46843   1.46843   1.52868   2.02959   2.42559

 Mulliken charges and spin densities:
               1          2
     1  H    0.271575   0.002726
     2  H    0.003951   0.994305
     3  F   -0.275526   0.002969
 Sum of Mulliken charges =   0.00000   1.00000

 Dipole moment (field-independent basis, Debye):
    X=             -1.7869    Y=             -0.0000    Z=              0.0000  Tot=              1.7869
 Quadrupole moment (field-independent basis, Debye-Ang):
   XX=             -7.4445   YY=             -6.7649   ZZ=             -6.7649
   XY=             -0.0000   XZ=              0.0000   YZ=             -0.0000

  Exact polarizability:       6.005       0.000       2.464      -0.000       0.000       2.464
 Approx polarizability:       6.379       0.000       2.448      -0.000       0.000       2.448

 ******    2 imaginary frequencies (negative Signs) ******

                      1                      2                      3
                      A                      A                      A
 Frequencies --  -1964.1395             -1964.1395                37.7191
 Red. masses --      1.0361                 1.0361                 1.0532
 Frc consts  --      2.3551                 2.3551                 0.0009
 IR Inten    --    185.2374               185.2374                 0.2863

                      4
                      A
 Frequencies --   6347.7405
 Red. masses --      1.0583
 Frc consts  --     25.1253
 IR Inten    --    121.8227

 - Thermochemistry -
 -------------------
 Temperature   298.150 Kelvin.  Pressure   1.00000 Atm.
 Atom     1 has atomic number  1 and mass   1.00783

 Molecular mass:    21.01405 amu.
 Principal axes and moments of inertia in atomic units:
                           1         2         3
     Eigenvalues --     0.00000  42.02285  42.02285
           X            1.00000  -0.00000   0.00000
           Y            0.00000   1.00000   0.00000
           Z            0.00000   0.00000   1.00000
 This molecule is a prolate symmetric top.
 Rotational symmetry number  1.
 Rotational temperature (Kelvin)      2.06111
 Rotational constant (GHZ):          42.946661
    2 imaginary frequencies ignored.
 Zero-point vibrational energy      38193.5 (Joules/Mol)
                                    9.12847 (Kcal/Mol)
 Warning -- explicit consideration of   1 degrees of freedom as
           vibrations may cause significant error
 Vibrational temperatures:     54.27  9132.98
          (Kelvin)

 Zero-point correction=                           0.014547 (Hartree/Particle)
 Thermal correction to Energy=                    0.017768
 Thermal correction to Enthalpy=                  0.018713
 Thermal correction to Gibbs Free Energy=        -0.006799
 Sum of electronic and zero-point Energies=           -100.935959
 Sum of electronic and thermal Energies=              -100.932738
 Sum of electronic and thermal Enthalpies=            -100.931793
 Sum of electronic and thermal Free Energies=         -100.957305

                     E (Thermal)             CV                S
                      KCal/Mol        Cal/Mol-Kelvin    Cal/Mol-Kelvin
 Total                   11.150              6.950             53.693
 Electronic               0.000              0.000              1.377
 Translational            0.889              2.981             35.068
 Rotational               0.592              1.987             11.872
 Vibrational              9.669              1.982              5.375
 Vibration     1          0.594              1.982              5.375

 Normal termination of Gaussian 16 at Fri Aug 22 15:51:32 2025.
