 Gaussian 16, Revision C.01,
 Gaussian 16:  ES64L-G16RevC.01  3-Jul-2019

 -----------------------------------------
 # sp b3lyp/6-311g** Force nosymm scf=(qc)
 -----------------------------------------

 -------------------
 Title Card Required
 -------------------
 Symbolic Z-matrix:
 Charge =  0 Multiplicity = 2

                          Input orientation:
 ---------------------------------------------------------------------
 Center     Atomic      Atomic             Coordinates (Angstroms)
 Number     Number       Type             X           Y           Z
 ---------------------------------------------------------------------
      1          1           0        0.000000    0.000000    0.000000
      2          1           0       -3.800000    0.000000    0.000000
      3          9           0        3.350000    0.000000    0.000000
 ---------------------------------------------------------------------

 SCF Done:  E(UB3LYP) =  -100.759290066     a.u. after   25 cycles

 Alpha  occ. eigenvalues --  -24.75087  -1.21073  -0.54209  -0.45515  -0.45515
 Alpha  occ. eigenvalues --   -0.32346
 Alpha virt. eigenvalues --   -0.06816   0.24076   0.36902   0.88089   0.91666
 Alpha virt. eigenvalues --    0.91666   1.02266   1.25152   1.25152   1.25199
 Alpha virt. eigenvalues --    1.45575   1.45575   1.45946   2.14627   2.41818

  Beta  occ. eigenvalues --  -24.71992  -1.12185  -0.42414  -0.42414  -0.33022
  Beta virt. eigenvalues --   -0.25325  -0.06062   0.23821   0.38140   0.93149
  Beta virt. eigenvalues --    0.93149   0.97118   1.06206   1.24375   1.24375
  Beta virt. eigenvalues --    1.24420   1.46417   1.46582   1.46582   2.14857

 Mulliken charges and spin densities:
               1          2
     1  H    0.017066  -0.980177
     2  H    0.000111   0.998996
     3  F   -0.017177   0.981182
 Sum of Mulliken charges =  -0.00000   1.00000

 Dipole moment (field-independent basis, Debye):
    X=             -0.2978    Y=             -0.0000    Z=             -0.0000  Tot=              0.2978
 Quadrupole moment (field-independent basis, Debye-Ang):
   XX=             -7.6630   YY=             -7.6162   ZZ=             -7.6162
   XY=             -0.0000   XZ=             -0.0000   YZ=              0.0000

  Exact polarizability:      26.523      -0.000       2.032      -0.000       0.000       2.032
 Approx polarizability:      22.593      -0.000       1.932      -0.000      -0.000       1.932

 ******    2 imaginary frequencies (negative Signs) ******

                      1                      2                      3
                      A                      A                      A
 Frequencies --   -257.7139               -83.2136                79.1618
 Red. masses --      1.0454                 1.0664                 1.0195
 Frc consts  --      0.0409                 0.0044                 0.0038
 IR Inten    --     18.0762                 0.3172                 0.2699

                      4
                      A
 Frequencies --     79.1618
 Red. masses --      1.0195
 Frc consts  --      0.0038
 IR Inten    --      0.2699

 - Thermochemistry -
 -------------------
 Temperature   298.150 Kelvin.  Pressure   1.00000 Atm.
 Atom     1 has atomic number  1 and mass   1.00783

 Molecular mass:    21.01405 amu.
 Principal axes and moments of inertia in atomic units:
                           1         2         3
     Eigenvalues --     0.00000 205.35028 205.35028
           X            1.00000  -0.00000   0.00000
           Y            0.00000   1.00000   0.00000
           Z            0.00000   0.00000   1.00000
 This molecule is a prolate symmetric top.
 Rotational symmetry number  1.
 Rotational temperature (Kelvin)      0.42179
 Rotational constant (GHZ):           8.788599
    2 imaginary frequencies ignored.
 Zero-point vibrational energy        947.0 (Joules/Mol)
                                    0.22633 (Kcal/Mol)
 Warning -- explicit consideration of   2 degrees of freedom as
           vibrations may cause significant error
 Vibrational temperatures:    113.90   113.90
          (Kelvin)

 Zero-point correction=                           0.000361 (Hartree/Particle)
 Thermal correction to Energy=                    0.004272
 Thermal correction to Enthalpy=                  0.005216
 Thermal correction to Gibbs Free Energy=        -0.022956
 Sum of electronic and zero-point Energies=           -100.758929
 Sum of electronic and thermal Energies=              -100.755018
 Sum of electronic and thermal Enthalpies=            -100.754074
 Sum of electronic and thermal Free Energies=         -100.782246

                     E (Thermal)             CV                S
                      KCal/Mol        Cal/Mol-Kelvin    Cal/Mol-Kelvin
 Total                    2.681              8.894             59.293
 Electronic               0.000              0.000              1.377
 Translational            0.889              2.981             35.068
 Rotational               0.592              1.987             15.025
 Vibrational              1.199              3.926              7.823
 Vibration     1          0.600              1.963              3.912
 Vibration     2          0.600              1.963              3.912

 Normal termination of Gaussian 16 at Fri Aug 22 21:03:34 2025.
