 Gaussian 16, Revision C.01,
 Gaussian 16:  ES64L-G16RevC.01  3-Jul-2019

 -----------------------------------------
 # sp b3lyp/6-311g** Force nosymm scf=(qc)
 -----------------------------------------

 -------------------
 Title Card Required
 -------------------
 Symbolic Z-matrix:
 Charge =  0 Multiplicity = 2

                          Input orientation:
 ---------------------------------------------------------------------
 Center     Atomic      Atomic             Coordinates (Angstroms)
 Number     Number       Type             X           Y           Z
 ---------------------------------------------------------------------
      1          1           0        0.000000    0.000000    0.000000
      2          1           0       -2.250000    0.000000    0.000000
      3          9           0        3.800000    0.000000    0.000000
 ---------------------------------------------------------------------

 SCF Done:  E(UB3LYP) =  -100.766474198     a.u. after   58 cycles

 Alpha  occ. eigenvalues --  -24.75829  -1.21761  -0.54954  -0.46143  -0.46143
 Alpha  occ. eigenvalues --   -0.32728
 Alpha virt. eigenvalues --   -0.10108   0.25962   0.33771   0.86829   0.91195
 Alpha virt. eigenvalues --    0.91195   1.01210   1.24600   1.25076   1.25076
 Alpha virt. eigenvalues --    1.39921   1.39921   1.44772   2.14549   2.35454

  Beta  occ. eigenvalues --  -24.72690  -1.12733  -0.42996  -0.42996  -0.32845
  Beta virt. eigenvalues --   -0.25730  -0.09895   0.25805   0.34095   0.92692
  Beta virt. eigenvalues --    0.92692   0.96155   1.05322   1.24486   1.24943
  Beta virt. eigenvalues --    1.24943   1.40224   1.40224   1.45029   2.14794

 Mulliken charges and spin densities:
               1          2
     1  H    0.001718  -0.930945
     2  H    0.002161   0.935426
     3  F   -0.003880   0.995519
 Sum of Mulliken charges =   0.00000   1.00000

 Dipole moment (field-independent basis, Debye):
    X=             -0.0987    Y=              0.0000    Z=             -0.0000  Tot=              0.0987
 Quadrupole moment (field-independent basis, Debye-Ang):
   XX=             -6.6221   YY=             -7.6937   ZZ=             -7.6937
   XY=              0.0000   XZ=             -0.0000   YZ=             -0.0000

  Exact polarizability:      28.695       0.000       2.014      -0.000       0.000       2.014
 Approx polarizability:      22.880       0.000       1.931      -0.000       0.000       1.931

 ******    2 imaginary frequencies (negative Signs) ******

                      1                      2                      3
                      A                      A                      A
 Frequencies --   -949.1996               -93.3252               365.1761
 Red. masses --      1.0078                 1.1085                 1.0128
 Frc consts  --      0.5350                 0.0057                 0.0796
 IR Inten    --      1.6662                 1.7740                 0.0007

                      4
                      A
 Frequencies --    365.1761
 Red. masses --      1.0128
 Frc consts  --      0.0796
 IR Inten    --      0.0007

 - Thermochemistry -
 -------------------
 Temperature   298.150 Kelvin.  Pressure   1.00000 Atm.
 Atom     1 has atomic number  1 and mass   1.00783

 Molecular mass:    21.01405 amu.
 Principal axes and moments of inertia in atomic units:
                           1         2         3
     Eigenvalues --     0.00000 166.95564 166.95564
           X            1.00000  -0.00000   0.00000
           Y            0.00000   1.00000   0.00000
           Z            0.00000   0.00000   1.00000
 This molecule is a prolate symmetric top.
 Rotational symmetry number  1.
 Rotational temperature (Kelvin)      0.51878
 Rotational constant (GHZ):          10.809705
    2 imaginary frequencies ignored.
 Zero-point vibrational energy       4368.5 (Joules/Mol)
                                    1.04409 (Kcal/Mol)
 Warning -- explicit consideration of   2 degrees of freedom as
           vibrations may cause significant error
 Vibrational temperatures:    525.41   525.41
          (Kelvin)

 Zero-point correction=                           0.001664 (Hartree/Particle)
 Thermal correction to Energy=                    0.004714
 Thermal correction to Enthalpy=                  0.005658
 Thermal correction to Gibbs Free Energy=        -0.019647
 Sum of electronic and zero-point Energies=           -100.764810
 Sum of electronic and thermal Energies=              -100.761760
 Sum of electronic and thermal Enthalpies=            -100.760816
 Sum of electronic and thermal Free Energies=         -100.786121

                     E (Thermal)             CV                S
                      KCal/Mol        Cal/Mol-Kelvin    Cal/Mol-Kelvin
 Total                    2.958              8.056             53.259
 Electronic               0.000              0.000              1.377
 Translational            0.889              2.981             35.068
 Rotational               0.592              1.987             14.614
 Vibrational              1.477              3.088              2.200
 Vibration     1          0.738              1.544              1.100
 Vibration     2          0.738              1.544              1.100

 Normal termination of Gaussian 16 at Sat Aug 23 00:49:53 2025.
