 Gaussian 16, Revision C.01,
 Gaussian 16:  ES64L-G16RevC.01  3-Jul-2019

 -----------------------------------------
 # sp b3lyp/6-311g** Force nosymm scf=(qc)
 -----------------------------------------

 -------------------
 Title Card Required
 -------------------
 Symbolic Z-matrix:
 Charge =  0 Multiplicity = 2

                          Input orientation:
 ---------------------------------------------------------------------
 Center     Atomic      Atomic             Coordinates (Angstroms)
 Number     Number       Type             X           Y           Z
 ---------------------------------------------------------------------
      1          1           0        0.000000    0.000000    0.000000
      2          1           0       -1.150000    0.000000    0.000000
      3          9           0        2.050000    0.000000    0.000000
 ---------------------------------------------------------------------

 SCF Done:  E(UB3LYP) =  -100.885730457     a.u. after   14 cycles

 Alpha  occ. eigenvalues --  -24.72949  -1.19162  -0.52596  -0.43801  -0.43801
 Alpha  occ. eigenvalues --   -0.39443
 Alpha virt. eigenvalues --   -0.03330   0.21714   0.34963   0.88942   0.91968
 Alpha virt. eigenvalues --    0.91968   1.07470   1.09452   1.09452   1.38882
 Alpha virt. eigenvalues --    1.54720   1.54720   2.11272   2.30179   2.54451

  Beta  occ. eigenvalues --  -24.70082  -1.11024  -0.40948  -0.40948  -0.39174
  Beta virt. eigenvalues --   -0.25069  -0.01941   0.22527   0.35456   0.93259
  Beta virt. eigenvalues --    0.93259   0.95974   1.10420   1.10524   1.10524
  Beta virt. eigenvalues --    1.41719   1.55479   1.55479   2.12626   2.31319

 Mulliken charges and spin densities:
               1          2
     1  H    0.031035  -0.089647
     2  H    0.046156   0.189407
     3  F   -0.077192   0.900240
 Sum of Mulliken charges =   0.00000   1.00000

 Dipole moment (field-independent basis, Debye):
    X=             -1.0264    Y=              0.0000    Z=             -0.0000  Tot=              1.0264
 Quadrupole moment (field-independent basis, Debye-Ang):
   XX=             -6.7101   YY=             -7.3498   ZZ=             -7.3498
   XY=              0.0000   XZ=             -0.0000   YZ=              0.0000

  Exact polarizability:      38.512       0.000       2.166      -0.000      -0.000       2.166
 Approx polarizability:      53.259      -0.000       2.170       0.000      -0.000       2.170

 ******    1 imaginary frequencies (negative Signs) ******

                      1                      2                      3
                      A                      A                      A
 Frequencies --  -1071.0981               287.5909              1418.5210
 Red. masses --      1.0285                 1.0846                 1.0125
 Frc consts  --      0.6952                 0.0529                 1.2003
 IR Inten    --    807.9344                27.4698                 0.0069

                      4
                      A
 Frequencies --   1418.5210
 Red. masses --      1.0125
 Frc consts  --      1.2003
 IR Inten    --      0.0069

 - Thermochemistry -
 -------------------
 Temperature   298.150 Kelvin.  Pressure   1.00000 Atm.
 Atom     1 has atomic number  1 and mass   1.00783

 Molecular mass:    21.01405 amu.
 Principal axes and moments of inertia in atomic units:
                           1         2         3
     Eigenvalues --     0.00000  47.22120  47.22120
           X            1.00000  -0.00000   0.00000
           Y            0.00000   1.00000   0.00000
           Z            0.00000   0.00000   1.00000
 This molecule is a prolate symmetric top.
 Rotational symmetry number  1.
 Rotational temperature (Kelvin)      1.83422
 Rotational constant (GHZ):          38.218874
    1 imaginary frequencies ignored.
 Zero-point vibrational energy      18689.5 (Joules/Mol)
                                    4.46689 (Kcal/Mol)
 Warning -- explicit consideration of   1 degrees of freedom as
           vibrations may cause significant error
 Vibrational temperatures:    413.78  2040.94  2040.94
          (Kelvin)

 Zero-point correction=                           0.007118 (Hartree/Particle)
 Thermal correction to Energy=                    0.009929
 Thermal correction to Enthalpy=                  0.010873
 Thermal correction to Gibbs Free Energy=        -0.012917
 Sum of electronic and zero-point Energies=           -100.878612
 Sum of electronic and thermal Energies=              -100.875802
 Sum of electronic and thermal Enthalpies=            -100.874858
 Sum of electronic and thermal Free Energies=         -100.898648

                     E (Thermal)             CV                S
                      KCal/Mol        Cal/Mol-Kelvin    Cal/Mol-Kelvin
 Total                    6.230              6.863             50.071
 Electronic               0.000              0.000              1.377
 Translational            0.889              2.981             35.068
 Rotational               0.592              1.987             12.104
 Vibrational              4.749              1.895              1.521
 Vibration     1          0.685              1.697              1.488

 Normal termination of Gaussian 16 at Fri Aug 22 16:59:20 2025.
