 Gaussian 16, Revision C.01,
 Gaussian 16:  ES64L-G16RevC.01  3-Jul-2019

 -----------------------------------------
 # sp b3lyp/6-311g** Force nosymm scf=(qc)
 -----------------------------------------

 -------------------
 Title Card Required
 -------------------
 Symbolic Z-matrix:
 Charge =  0 Multiplicity = 2

                          Input orientation:
 ---------------------------------------------------------------------
 Center     Atomic      Atomic             Coordinates (Angstroms)
 Number     Number       Type             X           Y           Z
 ---------------------------------------------------------------------
      1          1           0        0.000000    0.000000    0.000000
      2          1           0       -1.350000    0.000000    0.000000
      3          9           0        3.950000    0.000000    0.000000
 ---------------------------------------------------------------------

 SCF Done:  E(UB3LYP) =  -100.844901538     a.u. after   98 cycles

 Alpha  occ. eigenvalues --  -24.76219  -1.22122  -0.55325  -0.46500  -0.46482
 Alpha  occ. eigenvalues --   -0.34830
 Alpha virt. eigenvalues --   -0.07185   0.23903   0.32005   0.86041   0.90918
 Alpha virt. eigenvalues --    0.91296   1.00867   1.12980   1.16633   1.16634
 Alpha virt. eigenvalues --    1.47201   1.47203   1.93995   2.27005   2.51168

  Beta  occ. eigenvalues --  -24.73064  -1.13049  -0.43337  -0.43318  -0.34830
  Beta virt. eigenvalues --   -0.25976  -0.07184   0.23906   0.32014   0.92419
  Beta virt. eigenvalues --    0.92790   0.95507   1.05017   1.12984   1.16633
  Beta virt. eigenvalues --    1.16634   1.47201   1.47202   1.93997   2.27005

 Mulliken charges and spin densities:
               1          2
     1  H    0.001056  -0.000010
     2  H   -0.001900  -0.000084
     3  F    0.000843   1.000094
 Sum of Mulliken charges =   0.00000   1.00000

 Dipole moment (field-independent basis, Debye):
    X=              0.0216    Y=             -0.0000    Z=             -0.0000  Tot=              0.0216
 Quadrupole moment (field-independent basis, Debye-Ang):
   XX=             -6.3294   YY=             -6.9444   ZZ=             -7.4654
   XY=             -0.0000   XZ=             -0.0000   YZ=              0.3450

  Exact polarizability:      19.028      -0.000       2.444      -0.000       0.188       2.160
 Approx polarizability:      32.411      -0.000       2.542      -0.000       0.233       2.191

 ******    2 imaginary frequencies (negative Signs) ******

                      1                      2                      3
                      A                      A                      A
 Frequencies --  -1088.2945               -60.4933              1353.3705
 Red. masses --      1.0078                 1.1085                 1.0099
 Frc consts  --      0.7033                 0.0024                 1.0899
 IR Inten    --      0.0573                 0.0398                 0.0052

                      4
                      A
 Frequencies --   1355.9531
 Red. masses --      1.0099
 Frc consts  --      1.0940
 IR Inten    --      0.0014

 - Thermochemistry -
 -------------------
 Temperature   298.150 Kelvin.  Pressure   1.00000 Atm.
 Atom     1 has atomic number  1 and mass   1.00783

 Molecular mass:    21.01405 amu.
 Principal axes and moments of inertia in atomic units:
                           1         2         3
     Eigenvalues --     0.00000 142.48100 142.48100
           X            1.00000  -0.00000   0.00000
           Y            0.00000   1.00000   0.00000
           Z            0.00000   0.00000   1.00000
 This molecule is a prolate symmetric top.
 Rotational symmetry number  1.
 Rotational temperature (Kelvin)      0.60790
 Rotational constant (GHZ):          12.666539
    2 imaginary frequencies ignored.
 Zero-point vibrational energy      16205.4 (Joules/Mol)
                                    3.87317 (Kcal/Mol)
 Vibrational temperatures:   1947.20  1950.91
          (Kelvin)

 Zero-point correction=                           0.006172 (Hartree/Particle)
 Thermal correction to Energy=                    0.008551
 Thermal correction to Enthalpy=                  0.009495
 Thermal correction to Gibbs Free Energy=        -0.014636
 Sum of electronic and zero-point Energies=           -100.838729
 Sum of electronic and thermal Energies=              -100.836351
 Sum of electronic and thermal Enthalpies=            -100.835407
 Sum of electronic and thermal Free Energies=         -100.859537

                     E (Thermal)             CV                S
                      KCal/Mol        Cal/Mol-Kelvin    Cal/Mol-Kelvin
 Total                    5.366              5.215             50.788
 Electronic               0.000              0.000              1.377
 Translational            0.889              2.981             35.068
 Rotational               0.592              1.987             14.299
 Vibrational              3.884              0.247              0.043

 Normal termination of Gaussian 16 at Sat Aug 23 01:32:48 2025.
