 Gaussian 16, Revision C.01,
 Gaussian 16:  ES64L-G16RevC.01  3-Jul-2019

 -----------------------------------------
 # sp b3lyp/6-311g** Force nosymm scf=(qc)
 -----------------------------------------

 -------------------
 Title Card Required
 -------------------
 Symbolic Z-matrix:
 Charge =  0 Multiplicity = 2

                          Input orientation:
 ---------------------------------------------------------------------
 Center     Atomic      Atomic             Coordinates (Angstroms)
 Number     Number       Type             X           Y           Z
 ---------------------------------------------------------------------
      1          1           0        0.000000    0.000000    0.000000
      2          1           0       -3.200000    0.000000    0.000000
      3          9           0        4.000000    0.000000    0.000000
 ---------------------------------------------------------------------

 SCF Done:  E(UB3LYP) =  -100.759033755     a.u. after   48 cycles

 Alpha  occ. eigenvalues --  -24.75884  -1.21811  -0.55009  -0.46187  -0.46187
 Alpha  occ. eigenvalues --   -0.32298
 Alpha virt. eigenvalues --   -0.07201   0.24753   0.37138   0.86561   0.91167
 Alpha virt. eigenvalues --    0.91167   1.01079   1.25220   1.25220   1.25620
 Alpha virt. eigenvalues --    1.44931   1.45121   1.45121   2.15538   2.40283

  Beta  occ. eigenvalues --  -24.72739  -1.12766  -0.43034  -0.43034  -0.32477
  Beta virt. eigenvalues --   -0.25735  -0.06998   0.24607   0.37396   0.92666
  Beta virt. eigenvalues --    0.92666   0.95942   1.05207   1.25027   1.25027
  Beta virt. eigenvalues --    1.25413   1.45235   1.45421   1.45421   2.15533

 Mulliken charges and spin densities:
               1          2
     1  H    0.002226  -0.992771
     2  H    0.000147   0.995425
     3  F   -0.002373   0.997346
 Sum of Mulliken charges =  -0.00000   1.00000

 Dipole moment (field-independent basis, Debye):
    X=             -0.0515    Y=              0.0000    Z=             -0.0000  Tot=              0.0515
 Quadrupole moment (field-independent basis, Debye-Ang):
   XX=             -6.8672   YY=             -7.6300   ZZ=             -7.6300
   XY=             -0.0000   XZ=             -0.0000   YZ=              0.0000

  Exact polarizability:      11.962       0.000       2.032      -0.000       0.000       2.032
 Approx polarizability:       9.031      -0.000       1.935      -0.000      -0.000       1.935

 ******    2 imaginary frequencies (negative Signs) ******

                      1                      2                      3
                      A                      A                      A
 Frequencies --   -263.9366               -73.0503                91.8076
 Red. masses --      1.0085                 1.1077                 1.0155
 Frc consts  --      0.0414                 0.0035                 0.0050
 IR Inten    --      0.6292                 0.5067                 0.0045

                      4
                      A
 Frequencies --     91.8076
 Red. masses --      1.0155
 Frc consts  --      0.0050
 IR Inten    --      0.0045

 - Thermochemistry -
 -------------------
 Temperature   298.150 Kelvin.  Pressure   1.00000 Atm.
 Atom     1 has atomic number  1 and mass   1.00783

 Molecular mass:    21.01405 amu.
 Principal axes and moments of inertia in atomic units:
                           1         2         3
     Eigenvalues --     0.00000 222.50493 222.50493
           X            1.00000  -0.00000   0.00000
           Y            0.00000   1.00000   0.00000
           Z            0.00000   0.00000   1.00000
 This molecule is a prolate symmetric top.
 Rotational symmetry number  1.
 Rotational temperature (Kelvin)      0.38927
 Rotational constant (GHZ):           8.111017
    2 imaginary frequencies ignored.
 Zero-point vibrational energy       1098.3 (Joules/Mol)
                                    0.26249 (Kcal/Mol)
 Warning -- explicit consideration of   2 degrees of freedom as
           vibrations may cause significant error
 Vibrational temperatures:    132.09   132.09
          (Kelvin)

 Zero-point correction=                           0.000418 (Hartree/Particle)
 Thermal correction to Energy=                    0.004280
 Thermal correction to Enthalpy=                  0.005224
 Thermal correction to Gibbs Free Energy=        -0.022748
 Sum of electronic and zero-point Energies=           -100.758615
 Sum of electronic and thermal Energies=              -100.754754
 Sum of electronic and thermal Enthalpies=            -100.753810
 Sum of electronic and thermal Free Energies=         -100.781782

                     E (Thermal)             CV                S
                      KCal/Mol        Cal/Mol-Kelvin    Cal/Mol-Kelvin
 Total                    2.686              8.878             58.872
 Electronic               0.000              0.000              1.377
 Translational            0.889              2.981             35.068
 Rotational               0.592              1.987             15.184
 Vibrational              1.204              3.910              7.242
 Vibration     1          0.602              1.955              3.621
 Vibration     2          0.602              1.955              3.621

 Normal termination of Gaussian 16 at Sat Aug 23 01:57:21 2025.
