 Gaussian 16, Revision C.01,
 Gaussian 16:  ES64L-G16RevC.01  3-Jul-2019

 -----------------------------------------
 # sp b3lyp/6-311g** Force nosymm scf=(qc)
 -----------------------------------------

 -------------------
 Title Card Required
 -------------------
 Symbolic Z-matrix:
 Charge =  0 Multiplicity = 2

                          Input orientation:
 ---------------------------------------------------------------------
 Center     Atomic      Atomic             Coordinates (Angstroms)
 Number     Number       Type             X           Y           Z
 ---------------------------------------------------------------------
      1          1           0        0.000000    0.000000    0.000000
      2          1           0       -2.450000    0.000000    0.000000
      3          9           0        3.250000    0.000000    0.000000
 ---------------------------------------------------------------------

 SCF Done:  E(UB3LYP) =  -100.764180957     a.u. after   26 cycles

 Alpha  occ. eigenvalues --  -24.74939  -1.20934  -0.54059  -0.45390  -0.45390
 Alpha  occ. eigenvalues --   -0.32880
 Alpha virt. eigenvalues --   -0.10081   0.25594   0.33760   0.88535   0.91756
 Alpha virt. eigenvalues --    0.91756   1.02636   1.24795   1.24795   1.26368
 Alpha virt. eigenvalues --    1.40421   1.40421   1.42458   2.15412   2.36452

  Beta  occ. eigenvalues --  -24.71856  -1.12083  -0.42301  -0.42301  -0.33323
  Beta virt. eigenvalues --   -0.25265  -0.09323   0.25510   0.34755   0.93235
  Beta virt. eigenvalues --    0.93235   0.97537   1.06607   1.24251   1.24251
  Beta virt. eigenvalues --    1.25686   1.41622   1.41622   1.43656   2.16282

 Mulliken charges and spin densities:
               1          2
     1  H    0.016135  -0.942856
     2  H    0.004143   0.965507
     3  F   -0.020278   0.977349
 Sum of Mulliken charges =   0.00000   1.00000

 Dipole moment (field-independent basis, Debye):
    X=             -0.3866    Y=             -0.0000    Z=              0.0000  Tot=              0.3866
 Quadrupole moment (field-independent basis, Debye-Ang):
   XX=             -7.4479   YY=             -7.6654   ZZ=             -7.6654
   XY=              0.0000   XZ=             -0.0000   YZ=              0.0000

  Exact polarizability:      41.222       0.000       2.017      -0.000      -0.000       2.017
 Approx polarizability:      33.256       0.000       1.926      -0.000      -0.000       1.926

 ******    2 imaginary frequencies (negative Signs) ******

                      1                      2                      3
                      A                      A                      A
 Frequencies --   -729.7756              -185.1953               270.7994
 Red. masses --      1.0084                 1.1078                 1.0149
 Frc consts  --      0.3164                 0.0224                 0.0438
 IR Inten    --     13.1122                12.9556                 0.1843

                      4
                      A
 Frequencies --    270.7994
 Red. masses --      1.0149
 Frc consts  --      0.0438
 IR Inten    --      0.1843

 - Thermochemistry -
 -------------------
 Temperature   298.150 Kelvin.  Pressure   1.00000 Atm.
 Atom     1 has atomic number  1 and mass   1.00783

 Molecular mass:    21.01405 amu.
 Principal axes and moments of inertia in atomic units:
                           1         2         3
     Eigenvalues --     0.00000 141.12007 141.12007
           X            1.00000  -0.00000   0.00000
           Y            0.00000   1.00000   0.00000
           Z            0.00000   0.00000   1.00000
 This molecule is a prolate symmetric top.
 Rotational symmetry number  1.
 Rotational temperature (Kelvin)      0.61376
 Rotational constant (GHZ):          12.788693
    2 imaginary frequencies ignored.
 Zero-point vibrational energy       3239.5 (Joules/Mol)
                                    0.77425 (Kcal/Mol)
 Warning -- explicit consideration of   2 degrees of freedom as
           vibrations may cause significant error
 Vibrational temperatures:    389.62   389.62
          (Kelvin)

 Zero-point correction=                           0.001234 (Hartree/Particle)
 Thermal correction to Energy=                    0.004510
 Thermal correction to Enthalpy=                  0.005454
 Thermal correction to Gibbs Free Energy=        -0.020159
 Sum of electronic and zero-point Energies=           -100.762947
 Sum of electronic and thermal Energies=              -100.759671
 Sum of electronic and thermal Enthalpies=            -100.758727
 Sum of electronic and thermal Free Energies=         -100.784340

                     E (Thermal)             CV                S
                      KCal/Mol        Cal/Mol-Kelvin    Cal/Mol-Kelvin
 Total                    2.830              8.422             53.907
 Electronic               0.000              0.000              1.377
 Translational            0.889              2.981             35.068
 Rotational               0.592              1.987             14.280
 Vibrational              1.349              3.454              3.182
 Vibration     1          0.674              1.727              1.591
 Vibration     2          0.674              1.727              1.591

 Normal termination of Gaussian 16 at Fri Aug 22 20:34:59 2025.
