 Gaussian 16, Revision C.01,
 Gaussian 16:  ES64L-G16RevC.01  3-Jul-2019

 -----------------------------------------
 # sp b3lyp/6-311g** Force nosymm scf=(qc)
 -----------------------------------------

 -------------------
 Title Card Required
 -------------------
 Symbolic Z-matrix:
 Charge =  0 Multiplicity = 2

                          Input orientation:
 ---------------------------------------------------------------------
 Center     Atomic      Atomic             Coordinates (Angstroms)
 Number     Number       Type             X           Y           Z
 ---------------------------------------------------------------------
      1          1           0        0.000000    0.000000    0.000000
      2          1           0       -2.850000    0.000000    0.000000
      3          9           0        3.100000    0.000000    0.000000
 ---------------------------------------------------------------------

 SCF Done:  E(UB3LYP) =  -100.761849818     a.u. after   21 cycles

 Alpha  occ. eigenvalues --  -24.74456  -1.20487  -0.53575  -0.44984  -0.44984
 Alpha  occ. eigenvalues --   -0.32720
 Alpha virt. eigenvalues --   -0.09171   0.24982   0.34764   0.89104   0.92052
 Alpha virt. eigenvalues --    0.92052   1.03379   1.24838   1.24838   1.25960
 Alpha virt. eigenvalues --    1.42183   1.42183   1.42643   2.15692   2.38634

  Beta  occ. eigenvalues --  -24.71404  -1.11734  -0.41928  -0.41928  -0.33546
  Beta virt. eigenvalues --   -0.24990  -0.08023   0.24923   0.36188   0.93522
  Beta virt. eigenvalues --    0.93522   0.97956   1.07256   1.23866   1.23866
  Beta virt. eigenvalues --    1.24940   1.44015   1.44015   1.44241   2.16328

 Mulliken charges and spin densities:
               1          2
     1  H    0.027614  -0.956218
     2  H    0.002015   0.988948
     3  F   -0.029629   0.967269
 Sum of Mulliken charges =  -0.00000   1.00000

 Dipole moment (field-independent basis, Debye):
    X=             -0.4992    Y=              0.0000    Z=             -0.0000  Tot=              0.4992
 Quadrupole moment (field-independent basis, Debye-Ang):
   XX=             -7.9464   YY=             -7.6326   ZZ=             -7.6326
   XY=              0.0000   XZ=             -0.0000   YZ=              0.0000

  Exact polarizability:      35.954       0.000       2.022      -0.000       0.000       2.022
 Approx polarizability:      32.781       0.000       1.925      -0.000      -0.000       1.925

 ******    2 imaginary frequencies (negative Signs) ******

                      1                      2                      3
                      A                      A                      A
 Frequencies --   -471.6298              -192.4263               173.4964
 Red. masses --      1.0156                 1.0993                 1.0170
 Frc consts  --      0.1331                 0.0240                 0.0180
 IR Inten    --     24.3554                 9.3298                 0.6537

                      4
                      A
 Frequencies --    173.4964
 Red. masses --      1.0170
 Frc consts  --      0.0180
 IR Inten    --      0.6537

 - Thermochemistry -
 -------------------
 Temperature   298.150 Kelvin.  Pressure   1.00000 Atm.
 Atom     1 has atomic number  1 and mass   1.00783

 Molecular mass:    21.01405 amu.
 Principal axes and moments of inertia in atomic units:
                           1         2         3
     Eigenvalues --     0.00000 147.86343 147.86343
           X            1.00000  -0.00000   0.00000
           Y            0.00000   1.00000   0.00000
           Z            0.00000   0.00000   1.00000
 This molecule is a prolate symmetric top.
 Rotational symmetry number  1.
 Rotational temperature (Kelvin)      0.58577
 Rotational constant (GHZ):          12.205460
    2 imaginary frequencies ignored.
 Zero-point vibrational energy       2075.5 (Joules/Mol)
                                    0.49605 (Kcal/Mol)
 Warning -- explicit consideration of   2 degrees of freedom as
           vibrations may cause significant error
 Vibrational temperatures:    249.62   249.62
          (Kelvin)

 Zero-point correction=                           0.000791 (Hartree/Particle)
 Thermal correction to Energy=                    0.004358
 Thermal correction to Enthalpy=                  0.005302
 Thermal correction to Gibbs Free Energy=        -0.021121
 Sum of electronic and zero-point Energies=           -100.761059
 Sum of electronic and thermal Energies=              -100.757492
 Sum of electronic and thermal Enthalpies=            -100.756548
 Sum of electronic and thermal Free Energies=         -100.782971

                     E (Thermal)             CV                S
                      KCal/Mol        Cal/Mol-Kelvin    Cal/Mol-Kelvin
 Total                    2.735              8.718             55.612
 Electronic               0.000              0.000              1.377
 Translational            0.889              2.981             35.068
 Rotational               0.592              1.987             14.372
 Vibrational              1.253              3.750              4.795
 Vibration     1          0.627              1.875              2.397
 Vibration     2          0.627              1.875              2.397

 Normal termination of Gaussian 16 at Fri Aug 22 19:55:36 2025.
