 Gaussian 16, Revision C.01,
 Gaussian 16:  ES64L-G16RevC.01  3-Jul-2019

 -----------------------------------------
 # sp b3lyp/6-311g** Force nosymm scf=(qc)
 -----------------------------------------

 -------------------
 Title Card Required
 -------------------
 Symbolic Z-matrix:
 Charge =  0 Multiplicity = 2

                          Input orientation:
 ---------------------------------------------------------------------
 Center     Atomic      Atomic             Coordinates (Angstroms)
 Number     Number       Type             X           Y           Z
 ---------------------------------------------------------------------
      1          1           0        0.000000    0.000000    0.000000
      2          1           0       -2.000000    0.000000    0.000000
      3          9           0        3.450000    0.000000    0.000000
 ---------------------------------------------------------------------

 SCF Done:  E(UB3LYP) =  -100.774687387     a.u. after   29 cycles

 Alpha  occ. eigenvalues --  -24.75512  -1.21466  -0.54635  -0.45877  -0.45877
 Alpha  occ. eigenvalues --   -0.33146
 Alpha virt. eigenvalues --   -0.11068   0.25843   0.32175   0.87769   0.91389
 Alpha virt. eigenvalues --    0.91389   1.01857   1.17055   1.24830   1.24830
 Alpha virt. eigenvalues --    1.37768   1.37768   1.51108   2.13086   2.36580

  Beta  occ. eigenvalues --  -24.72396  -1.12510  -0.42753  -0.42753  -0.33225
  Beta virt. eigenvalues --   -0.25600  -0.10795   0.25765   0.32644   0.92878
  Beta virt. eigenvalues --    0.92878   0.96913   1.05896   1.17032   1.24722
  Beta virt. eigenvalues --    1.24722   1.38149   1.38149   1.51391   2.13715

 Mulliken charges and spin densities:
               1          2
     1  H    0.003621  -0.846031
     2  H    0.006587   0.857871
     3  F   -0.010208   0.988160
 Sum of Mulliken charges =   0.00000   1.00000

 Dipole moment (field-independent basis, Debye):
    X=             -0.2429    Y=              0.0000    Z=             -0.0000  Tot=              0.2429
 Quadrupole moment (field-independent basis, Debye-Ang):
   XX=             -6.6563   YY=             -7.7255   ZZ=             -7.7255
   XY=              0.0000   XZ=             -0.0000   YZ=             -0.0000

  Exact polarizability:      45.192      -0.000       1.950       0.000       0.000       1.950
 Approx polarizability:      39.362       0.000       1.937      -0.000      -0.000       1.937

 ******    2 imaginary frequencies (negative Signs) ******

                      1                      2                      3
                      A                      A                      A
 Frequencies --  -1356.3144              -140.8905               551.8471
 Red. masses --      1.0078                 1.1085                 1.0127
 Frc consts  --      1.0924                 0.0130                 0.1817
 IR Inten    --     11.9342                 8.1103                 0.0029

                      4
                      A
 Frequencies --    551.8471
 Red. masses --      1.0127
 Frc consts  --      0.1817
 IR Inten    --      0.0029

 - Thermochemistry -
 -------------------
 Temperature   298.150 Kelvin.  Pressure   1.00000 Atm.
 Atom     1 has atomic number  1 and mass   1.00783

 Molecular mass:    21.01405 amu.
 Principal axes and moments of inertia in atomic units:
                           1         2         3
     Eigenvalues --     0.00000 136.06456 136.06456
           X            1.00000  -0.00000   0.00000
           Y            0.00000   1.00000   0.00000
           Z            0.00000   0.00000   1.00000
 This molecule is a prolate symmetric top.
 Rotational symmetry number  1.
 Rotational temperature (Kelvin)      0.63656
 Rotational constant (GHZ):          13.263860
    2 imaginary frequencies ignored.
 Zero-point vibrational energy       6601.6 (Joules/Mol)
                                    1.57781 (Kcal/Mol)
 Warning -- explicit consideration of   2 degrees of freedom as
           vibrations may cause significant error
 Vibrational temperatures:    793.98   793.98
          (Kelvin)

 Zero-point correction=                           0.002514 (Hartree/Particle)
 Thermal correction to Energy=                    0.005252
 Thermal correction to Enthalpy=                  0.006196
 Thermal correction to Gibbs Free Energy=        -0.018384
 Sum of electronic and zero-point Energies=           -100.772173
 Sum of electronic and thermal Energies=              -100.769436
 Sum of electronic and thermal Enthalpies=            -100.768491
 Sum of electronic and thermal Free Energies=         -100.793071

                     E (Thermal)             CV                S
                      KCal/Mol        Cal/Mol-Kelvin    Cal/Mol-Kelvin
 Total                    3.296              7.239             51.733
 Electronic               0.000              0.000              1.377
 Translational            0.889              2.981             35.068
 Rotational               0.592              1.987             14.207
 Vibrational              1.814              2.271              1.081
 Vibration     1          0.907              1.136              0.540
 Vibration     2          0.907              1.136              0.540

 Normal termination of Gaussian 16 at Fri Aug 22 21:41:01 2025.
