 Gaussian 16, Revision C.01,
 Gaussian 16:  ES64L-G16RevC.01  3-Jul-2019

 -----------------------------------------
 # sp b3lyp/6-311g** Force nosymm scf=(qc)
 -----------------------------------------

 -------------------
 Title Card Required
 -------------------
 Symbolic Z-matrix:
 Charge =  0 Multiplicity = 2

                          Input orientation:
 ---------------------------------------------------------------------
 Center     Atomic      Atomic             Coordinates (Angstroms)
 Number     Number       Type             X           Y           Z
 ---------------------------------------------------------------------
      1          1           0        0.000000    0.000000    0.000000
      2          1           0       -2.750000    0.000000    0.000000
      3          9           0        2.800000    0.000000    0.000000
 ---------------------------------------------------------------------

 SCF Done:  E(UB3LYP) =  -100.764641396     a.u. after   20 cycles

 Alpha  occ. eigenvalues --  -24.73314  -1.19426  -0.52428  -0.44026  -0.44026
 Alpha  occ. eigenvalues --   -0.33062
 Alpha virt. eigenvalues --   -0.10273   0.24870   0.34123   0.90054   0.92736
 Alpha virt. eigenvalues --    0.92736   1.05181   1.24516   1.24516   1.26089
 Alpha virt. eigenvalues --    1.40594   1.40594   1.41957   2.15492   2.37027

  Beta  occ. eigenvalues --  -24.70343  -1.10930  -0.41056  -0.41056  -0.34310
  Beta virt. eigenvalues --   -0.24335  -0.08468   0.25209   0.35764   0.94177
  Beta virt. eigenvalues --    0.94177   0.98416   1.08822   1.23092   1.23092
  Beta virt. eigenvalues --    1.25407   1.43409   1.43409   1.43944   2.15818

 Mulliken charges and spin densities:
               1          2
     1  H    0.049308  -0.926137
     2  H    0.004079   0.985558
     3  F   -0.053387   0.940578
 Sum of Mulliken charges =  -0.00000   1.00000

 Dipole moment (field-independent basis, Debye):
    X=             -0.8195    Y=             -0.0000    Z=              0.0000  Tot=              0.8195
 Quadrupole moment (field-independent basis, Debye-Ang):
   XX=             -8.4794   YY=             -7.6225   ZZ=             -7.6225
   XY=             -0.0000   XZ=              0.0000   YZ=              0.0000

  Exact polarizability:      39.165      -0.000       2.017       0.000       0.000       2.017
 Approx polarizability:      40.205      -0.000       1.920       0.000      -0.000       1.920

 ******    2 imaginary frequencies (negative Signs) ******

                      1                      2                      3
                      A                      A                      A
 Frequencies --   -584.2589              -246.1276               222.0356
 Red. masses --      1.0214                 1.0925                 1.0177
 Frc consts  --      0.2054                 0.0390                 0.0296
 IR Inten    --     42.8550                12.3681                 2.0980

                      4
                      A
 Frequencies --    222.0357
 Red. masses --      1.0177
 Frc consts  --      0.0296
 IR Inten    --      2.0980

 - Thermochemistry -
 -------------------
 Temperature   298.150 Kelvin.  Pressure   1.00000 Atm.
 Atom     1 has atomic number  1 and mass   1.00783

 Molecular mass:    21.01405 amu.
 Principal axes and moments of inertia in atomic units:
                           1         2         3
     Eigenvalues --     0.00000 127.04010 127.04010
           X            1.00000  -0.00000   0.00000
           Y            0.00000   1.00000   0.00000
           Z            0.00000   0.00000   1.00000
 This molecule is a prolate symmetric top.
 Rotational symmetry number  1.
 Rotational temperature (Kelvin)      0.68178
 Rotational constant (GHZ):          14.206075
    2 imaginary frequencies ignored.
 Zero-point vibrational energy       2656.1 (Joules/Mol)
                                    0.63483 (Kcal/Mol)
 Warning -- explicit consideration of   2 degrees of freedom as
           vibrations may cause significant error
 Vibrational temperatures:    319.46   319.46
          (Kelvin)

 Zero-point correction=                           0.001012 (Hartree/Particle)
 Thermal correction to Energy=                    0.004426
 Thermal correction to Enthalpy=                  0.005370
 Thermal correction to Gibbs Free Energy=        -0.020477
 Sum of electronic and zero-point Energies=           -100.763630
 Sum of electronic and thermal Energies=              -100.760215
 Sum of electronic and thermal Enthalpies=            -100.759271
 Sum of electronic and thermal Free Energies=         -100.785119

                     E (Thermal)             CV                S
                      KCal/Mol        Cal/Mol-Kelvin    Cal/Mol-Kelvin
 Total                    2.777              8.583             54.401
 Electronic               0.000              0.000              1.377
 Translational            0.889              2.981             35.068
 Rotational               0.592              1.987             14.071
 Vibrational              1.296              3.615              3.885
 Vibration     1          0.648              1.808              1.942
 Vibration     2          0.648              1.808              1.942

 Normal termination of Gaussian 16 at Fri Aug 22 18:43:50 2025.
