 Gaussian 16, Revision C.01,
 Gaussian 16:  ES64L-G16RevC.01  3-Jul-2019

 -----------------------------------------
 # sp b3lyp/6-311g** Force nosymm scf=(qc)
 -----------------------------------------

 -------------------
 Title Card Required
 -------------------
 Symbolic Z-matrix:
 Charge =  0 Multiplicity = 2

                          Input orientation:
 ---------------------------------------------------------------------
 Center     Atomic      Atomic             Coordinates (Angstroms)
 Number     Number       Type             X           Y           Z
 ---------------------------------------------------------------------
      1          1           0        0.000000    0.000000    0.000000
      2          1           0       -0.800000    0.000000    0.000000
      3          9           0        0.950000    0.000000    0.000000
 ---------------------------------------------------------------------

 SCF Done:  E(UB3LYP) =  -100.935787793     a.u. after    6 cycles

 Alpha  occ. eigenvalues --  -24.66125  -1.20747  -0.62512  -0.41225  -0.41225
 Alpha  occ. eigenvalues --   -0.35066
 Alpha virt. eigenvalues --    0.14322   0.18279   0.56577   0.87815   0.87815
 Alpha virt. eigenvalues --    0.95500   1.09118   1.09118   1.45400   1.73129
 Alpha virt. eigenvalues --    1.73129   1.75283   2.10833   2.33573   3.59255

  Beta  occ. eigenvalues --  -24.64880  -1.17580  -0.55910  -0.40113  -0.40113
  Beta virt. eigenvalues --   -0.17309   0.16301   0.20294   0.62112   0.89803
  Beta virt. eigenvalues --    0.89803   0.98011   1.13852   1.13852   1.47270
  Beta virt. eigenvalues --    1.77737   1.77737   1.84262   2.11430   2.42590

 Mulliken charges and spin densities:
               1          2
     1  H    0.276980  -0.017652
     2  H   -0.024334   0.713590
     3  F   -0.252646   0.304062
 Sum of Mulliken charges =   0.00000   1.00000

 Dipole moment (field-independent basis, Debye):
    X=             -1.5721    Y=              0.0000    Z=             -0.0000  Tot=              1.5721
 Quadrupole moment (field-independent basis, Debye-Ang):
   XX=             -7.5287   YY=             -6.5593   ZZ=             -6.5593
   XY=              0.0000   XZ=             -0.0000   YZ=              0.0000

  Exact polarizability:      12.970       0.000       2.558       0.000      -0.000       2.558
 Approx polarizability:      15.076      -0.000       2.610       0.000      -0.000       2.610

 ******    2 imaginary frequencies (negative Signs) ******

                      1                      2                      3
                      A                      A                      A
 Frequencies --  -1784.6429             -1784.6429              2432.1471
 Red. masses --      1.0160                 1.0160                 1.0978
 Frc consts  --      1.9065                 1.9065                 3.8260
 IR Inten    --     48.6987                48.6987                92.4922

                      4
                      A
 Frequencies --   3654.4173
 Red. masses --      1.0169
 Frc consts  --      8.0011
 IR Inten    --     25.7191

 - Thermochemistry -
 -------------------
 Temperature   298.150 Kelvin.  Pressure   1.00000 Atm.
 Atom     1 has atomic number  1 and mass   1.00783

 Molecular mass:    21.01405 amu.
 Principal axes and moments of inertia in atomic units:
                           1         2         3
     Eigenvalues --     0.00000  13.01176  13.01176
           X            1.00000  -0.00000   0.00000
           Y            0.00000   1.00000   0.00000
           Z            0.00000   0.00000   1.00000
 This molecule is a prolate symmetric top.
 Rotational symmetry number  1.
 Rotational temperature (Kelvin)      6.65659
 Rotational constant (GHZ):         138.700728
    2 imaginary frequencies ignored.
 Zero-point vibrational energy      36405.7 (Joules/Mol)
                                    8.70118 (Kcal/Mol)
 Vibrational temperatures:   3499.32  5257.89
          (Kelvin)

 Zero-point correction=                           0.013866 (Hartree/Particle)
 Thermal correction to Energy=                    0.016227
 Thermal correction to Enthalpy=                  0.017171
 Thermal correction to Gibbs Free Energy=        -0.004680
 Sum of electronic and zero-point Energies=           -100.921922
 Sum of electronic and thermal Energies=              -100.919561
 Sum of electronic and thermal Enthalpies=            -100.918617
 Sum of electronic and thermal Free Energies=         -100.940467

                     E (Thermal)             CV                S
                      KCal/Mol        Cal/Mol-Kelvin    Cal/Mol-Kelvin
 Total                   10.182              4.970             45.988
 Electronic               0.000              0.000              1.377
 Translational            0.889              2.981             35.068
 Rotational               0.592              1.987              9.543
 Vibrational              8.701              0.002              0.000

 Normal termination of Gaussian 16 at Fri Aug 22 15:57:19 2025.
