 Gaussian 16, Revision C.01,
 Gaussian 16:  ES64L-G16RevC.01  3-Jul-2019

 -----------------------------------------
 # sp b3lyp/6-311g** Force nosymm scf=(qc)
 -----------------------------------------

 -------------------
 Title Card Required
 -------------------
 Symbolic Z-matrix:
 Charge =  0 Multiplicity = 2

                          Input orientation:
 ---------------------------------------------------------------------
 Center     Atomic      Atomic             Coordinates (Angstroms)
 Number     Number       Type             X           Y           Z
 ---------------------------------------------------------------------
      1          1           0        0.000000    0.000000    0.000000
      2          1           0       -0.700000    0.000000    0.000000
      3          9           0        3.450000    0.000000    0.000000
 ---------------------------------------------------------------------

 SCF Done:  E(UB3LYP) =  -100.932627063     a.u. after   67 cycles

 Alpha  occ. eigenvalues --  -24.76370  -1.22220  -0.55420  -0.46627  -0.46573
 Alpha  occ. eigenvalues --   -0.44181
 Alpha virt. eigenvalues --    0.06755   0.19505   0.48171   0.85996   0.90871
 Alpha virt. eigenvalues --    0.93085   1.02362   1.08959   1.08962   1.57644
 Alpha virt. eigenvalues --    1.85860   1.85865   1.90366   2.37966   3.56938

  Beta  occ. eigenvalues --  -24.73212  -1.13140  -0.44255  -0.43407  -0.43385
  Beta virt. eigenvalues --   -0.26057   0.06776   0.19518   0.48240   0.92371
  Beta virt. eigenvalues --    0.94646   0.95458   1.06348   1.08958   1.08962
  Beta virt. eigenvalues --    1.57653   1.85860   1.85864   1.90392   2.37968

 Mulliken charges and spin densities:
               1          2
     1  H   -0.002520  -0.000587
     2  H   -0.002156   0.000039
     3  F    0.004676   1.000548
 Sum of Mulliken charges =   0.00000   1.00000

 Dipole moment (field-independent basis, Debye):
    X=              0.0527    Y=             -0.0000    Z=             -0.0000  Tot=              0.0527
 Quadrupole moment (field-independent basis, Debye-Ang):
   XX=             -6.1618   YY=             -6.1163   ZZ=             -6.7892
   XY=             -0.0000   XZ=              0.0000   YZ=             -0.2710

  Exact polarizability:       7.684      -0.000       2.342       0.000      -0.146       1.981
 Approx polarizability:       8.656      -0.000       2.526       0.000      -0.182       2.073

 ******    2 imaginary frequencies (negative Signs) ******

                      1                      2                      3
                      A                      A                      A
 Frequencies --  -1175.0425             -1173.6927                28.6909
 Red. masses --      1.0087                 1.0087                 1.1085
 Frc consts  --      0.8206                 0.8187                 0.0005
 IR Inten    --      0.0033                 0.0026                 0.1458

                      4
                      A
 Frequencies --   5087.8081
 Red. masses --      1.0078
 Frc consts  --     15.3708
 IR Inten    --      0.0757

 - Thermochemistry -
 -------------------
 Temperature   298.150 Kelvin.  Pressure   1.00000 Atm.
 Atom     1 has atomic number  1 and mass   1.00783

 Molecular mass:    21.01405 amu.
 Principal axes and moments of inertia in atomic units:
                           1         2         3
     Eigenvalues --     0.00000  94.85135  94.85135
           X            1.00000  -0.00000   0.00000
           Y            0.00000   1.00000   0.00000
           Z            0.00000   0.00000   1.00000
 This molecule is a prolate symmetric top.
 Rotational symmetry number  1.
 Rotational temperature (Kelvin)      0.91315
 Rotational constant (GHZ):          19.027048
    2 imaginary frequencies ignored.
 Zero-point vibrational energy      30603.5 (Joules/Mol)
                                    7.31440 (Kcal/Mol)
 Warning -- explicit consideration of   1 degrees of freedom as
           vibrations may cause significant error
 Vibrational temperatures:     41.28  7320.22
          (Kelvin)

 Zero-point correction=                           0.011656 (Hartree/Particle)
 Thermal correction to Energy=                    0.014897
 Thermal correction to Enthalpy=                  0.015841
 Thermal correction to Gibbs Free Energy=        -0.010697
 Sum of electronic and zero-point Energies=           -100.920971
 Sum of electronic and thermal Energies=              -100.917730
 Sum of electronic and thermal Enthalpies=            -100.916786
 Sum of electronic and thermal Free Energies=         -100.943324

                     E (Thermal)             CV                S
                      KCal/Mol        Cal/Mol-Kelvin    Cal/Mol-Kelvin
 Total                    9.348              6.952             55.853
 Electronic               0.000              0.000              1.377
 Translational            0.889              2.981             35.068
 Rotational               0.592              1.987             13.490
 Vibrational              7.867              1.984              5.918
 Vibration     1          0.593              1.984              5.918

 Normal termination of Gaussian 16 at Fri Aug 22 21:22:28 2025.
