 Gaussian 16, Revision C.01,
 Gaussian 16:  ES64L-G16RevC.01  3-Jul-2019

 -----------------------------------------
 # sp b3lyp/6-311g** Force nosymm scf=(qc)
 -----------------------------------------

 -------------------
 Title Card Required
 -------------------
 Symbolic Z-matrix:
 Charge =  0 Multiplicity = 2

                          Input orientation:
 ---------------------------------------------------------------------
 Center     Atomic      Atomic             Coordinates (Angstroms)
 Number     Number       Type             X           Y           Z
 ---------------------------------------------------------------------
      1          1           0        0.000000    0.000000    0.000000
      2          1           0       -3.550000    0.000000    0.000000
      3          9           0        3.900000    0.000000    0.000000
 ---------------------------------------------------------------------

 SCF Done:  E(UB3LYP) =  -100.758646739     a.u. after   33 cycles

 Alpha  occ. eigenvalues --  -24.75825  -1.21756  -0.54950  -0.46137  -0.46137
 Alpha  occ. eigenvalues --   -0.32263
 Alpha virt. eigenvalues --   -0.06601   0.24339   0.37661   0.86691   0.91205
 Alpha virt. eigenvalues --    0.91205   1.01160   1.25239   1.25239   1.25365
 Alpha virt. eigenvalues --    1.45631   1.45863   1.45863   2.15024   2.41356

  Beta  occ. eigenvalues --  -24.72683  -1.12722  -0.42987  -0.42987  -0.32491
  Beta virt. eigenvalues --   -0.25704  -0.06363   0.24169   0.38021   0.92703
  Beta virt. eigenvalues --    0.92703   0.96039   1.05273   1.24991   1.24991
  Beta virt. eigenvalues --    1.25101   1.46012   1.46229   1.46229   2.15028

 Mulliken charges and spin densities:
               1          2
     1  H    0.003330  -0.994327
     2  H    0.000070   0.998103
     3  F   -0.003400   0.996224
 Sum of Mulliken charges =   0.00000   1.00000

 Dipole moment (field-independent basis, Debye):
    X=             -0.0698    Y=              0.0000    Z=             -0.0000  Tot=              0.0698
 Quadrupole moment (field-independent basis, Debye-Ang):
   XX=             -6.9668   YY=             -7.6230   ZZ=             -7.6230
   XY=              0.0000   XZ=             -0.0000   YZ=              0.0000

  Exact polarizability:      12.856      -0.000       2.029       0.000      -0.000       2.029
 Approx polarizability:       9.524       0.000       1.936      -0.000       0.000       1.936

 ******    2 imaginary frequencies (negative Signs) ******

                      1                      2                      3
                      A                      A                      A
 Frequencies --   -187.1955               -72.9569                62.8991
 Red. masses --      1.0126                 1.1028                 1.0168
 Frc consts  --      0.0209                 0.0035                 0.0024
 IR Inten    --      1.3944                 0.6077                 0.0111

                      4
                      A
 Frequencies --     62.8991
 Red. masses --      1.0168
 Frc consts  --      0.0024
 IR Inten    --      0.0111

 - Thermochemistry -
 -------------------
 Temperature   298.150 Kelvin.  Pressure   1.00000 Atm.
 Atom     1 has atomic number  1 and mass   1.00783

 Molecular mass:    21.01405 amu.
 Principal axes and moments of inertia in atomic units:
                           1         2         3
     Eigenvalues --     0.00000 232.25924 232.25924
           X            1.00000  -0.00000   0.00000
           Y            0.00000   1.00000   0.00000
           Z            0.00000   0.00000   1.00000
 This molecule is a prolate symmetric top.
 Rotational symmetry number  1.
 Rotational temperature (Kelvin)      0.37292
 Rotational constant (GHZ):           7.770374
    2 imaginary frequencies ignored.
 Zero-point vibrational energy        752.4 (Joules/Mol)
                                    0.17984 (Kcal/Mol)
 Warning -- explicit consideration of   2 degrees of freedom as
           vibrations may cause significant error
 Vibrational temperatures:     90.50    90.50
          (Kelvin)

 Zero-point correction=                           0.000287 (Hartree/Particle)
 Thermal correction to Energy=                    0.004263
 Thermal correction to Enthalpy=                  0.005207
 Thermal correction to Gibbs Free Energy=        -0.023511
 Sum of electronic and zero-point Energies=           -100.758360
 Sum of electronic and thermal Energies=              -100.754383
 Sum of electronic and thermal Enthalpies=            -100.753439
 Sum of electronic and thermal Free Energies=         -100.782158

                     E (Thermal)             CV                S
                      KCal/Mol        Cal/Mol-Kelvin    Cal/Mol-Kelvin
 Total                    2.675              8.912             60.443
 Electronic               0.000              0.000              1.377
 Translational            0.889              2.981             35.068
 Rotational               0.592              1.987             15.270
 Vibrational              1.194              3.944              8.728
 Vibration     1          0.597              1.972              4.364
 Vibration     2          0.597              1.972              4.364

 Normal termination of Gaussian 16 at Sat Aug 23 01:27:14 2025.
