 Gaussian 16, Revision C.01,
 Gaussian 16:  ES64L-G16RevC.01  3-Jul-2019

 -----------------------------------------
 # sp b3lyp/6-311g** Force nosymm scf=(qc)
 -----------------------------------------

 -------------------
 Title Card Required
 -------------------
 Symbolic Z-matrix:
 Charge =  0 Multiplicity = 2

                          Input orientation:
 ---------------------------------------------------------------------
 Center     Atomic      Atomic             Coordinates (Angstroms)
 Number     Number       Type             X           Y           Z
 ---------------------------------------------------------------------
      1          1           0        0.000000    0.000000    0.000000
      2          1           0       -1.550000    0.000000    0.000000
      3          9           0        2.650000    0.000000    0.000000
 ---------------------------------------------------------------------

 SCF Done:  E(UB3LYP) =  -100.815497567     a.u. after   21 cycles

 Alpha  occ. eigenvalues --  -24.73900  -1.19977  -0.53055  -0.44534  -0.44534
 Alpha  occ. eigenvalues --   -0.35273
 Alpha virt. eigenvalues --   -0.11047   0.24125   0.30677   0.89798   0.92321
 Alpha virt. eigenvalues --    0.92321   1.03880   1.10125   1.19591   1.19591
 Alpha virt. eigenvalues --    1.38853   1.38853   1.76619   2.19035   2.45252

  Beta  occ. eigenvalues --  -24.70910  -1.11422  -0.41544  -0.41544  -0.34897
  Beta virt. eigenvalues --   -0.25048  -0.10505   0.25108   0.30743   0.93755
  Beta virt. eigenvalues --    0.93755   0.97257   1.05874   1.13570   1.20058
  Beta virt. eigenvalues --    1.20058   1.39257   1.39257   1.77201   2.19983

 Mulliken charges and spin densities:
               1          2
     1  H    0.013068  -0.380661
     2  H    0.032009   0.434601
     3  F   -0.045077   0.946060
 Sum of Mulliken charges =  -0.00000   1.00000

 Dipole moment (field-independent basis, Debye):
    X=             -0.8436    Y=             -0.0000    Z=             -0.0000  Tot=              0.8436
 Quadrupole moment (field-independent basis, Debye-Ang):
   XX=             -6.7889   YY=             -7.7021   ZZ=             -7.7021
   XY=             -0.0000   XZ=             -0.0000   YZ=             -0.0000

  Exact polarizability:      59.508      -0.000       2.039      -0.000      -0.000       2.039
 Approx polarizability:      78.622      -0.000       2.013      -0.000       0.000       2.013

 ******    2 imaginary frequencies (negative Signs) ******

                      1                      2                      3
                      A                      A                      A
 Frequencies --  -2078.9949              -277.6881              1088.0871
 Red. masses --      1.0082                 1.1081                 1.0128
 Frc consts  --      2.5673                 0.0503                 0.7065
 IR Inten    --    431.5289                32.1848                 0.0001

                      4
                      A
 Frequencies --   1088.0871
 Red. masses --      1.0128
 Frc consts  --      0.7065
 IR Inten    --      0.0001

 - Thermochemistry -
 -------------------
 Temperature   298.150 Kelvin.  Pressure   1.00000 Atm.
 Atom     1 has atomic number  1 and mass   1.00783

 Molecular mass:    21.01405 amu.
 Principal axes and moments of inertia in atomic units:
                           1         2         3
     Eigenvalues --     0.00000  80.66140  80.66140
           X            1.00000  -0.00000   0.00000
           Y            0.00000   1.00000   0.00000
           Z            0.00000   0.00000   1.00000
 This molecule is a prolate symmetric top.
 Rotational symmetry number  1.
 Rotational temperature (Kelvin)      1.07380
 Rotational constant (GHZ):          22.374286
    2 imaginary frequencies ignored.
 Zero-point vibrational energy      13016.4 (Joules/Mol)
                                    3.11100 (Kcal/Mol)
 Vibrational temperatures:   1565.51  1565.51
          (Kelvin)

 Zero-point correction=                           0.004958 (Hartree/Particle)
 Thermal correction to Energy=                    0.007370
 Thermal correction to Enthalpy=                  0.008315
 Thermal correction to Gibbs Free Energy=        -0.015321
 Sum of electronic and zero-point Energies=           -100.810540
 Sum of electronic and thermal Energies=              -100.808127
 Sum of electronic and thermal Enthalpies=            -100.807183
 Sum of electronic and thermal Free Energies=         -100.830818

                     E (Thermal)             CV                S
                      KCal/Mol        Cal/Mol-Kelvin    Cal/Mol-Kelvin
 Total                    4.625              5.549             49.744
 Electronic               0.000              0.000              1.377
 Translational            0.889              2.981             35.068
 Rotational               0.592              1.987             13.168
 Vibrational              3.144              0.581              0.131

 Normal termination of Gaussian 16 at Fri Aug 22 18:13:48 2025.
