 Gaussian 16, Revision C.01,
 Gaussian 16:  ES64L-G16RevC.01  3-Jul-2019

 -----------------------------------------
 # sp b3lyp/6-311g** Force nosymm scf=(qc)
 -----------------------------------------

 -------------------
 Title Card Required
 -------------------
 Symbolic Z-matrix:
 Charge =  0 Multiplicity = 2

                          Input orientation:
 ---------------------------------------------------------------------
 Center     Atomic      Atomic             Coordinates (Angstroms)
 Number     Number       Type             X           Y           Z
 ---------------------------------------------------------------------
      1          1           0        0.000000    0.000000    0.000000
      2          1           0       -4.000000    0.000000    0.000000
      3          9           0        1.600000    0.000000    0.000000
 ---------------------------------------------------------------------

 SCF Done:  E(UB3LYP) =  -100.833623268     a.u. after    7 cycles

 Alpha  occ. eigenvalues --  -24.64315  -1.09202  -0.42020  -0.36204  -0.36204
 Alpha  occ. eigenvalues --   -0.33605
 Alpha virt. eigenvalues --   -0.16861   0.20284   0.26647   0.94087   0.94087
 Alpha virt. eigenvalues --    1.00801   1.07012   1.23861   1.23901   1.23901
 Alpha virt. eigenvalues --    1.29311   1.29311   1.72620   2.12356   2.17443

  Beta  occ. eigenvalues --  -24.64333  -1.09251  -0.42058  -0.36221  -0.36221
  Beta virt. eigenvalues --   -0.16872  -0.06122   0.22720   0.38203   0.94096
  Beta virt. eigenvalues --    0.94096   1.00794   1.07012   1.29424   1.29424
  Beta virt. eigenvalues --    1.46487   1.46766   1.46766   1.72697   2.16179

 Mulliken charges and spin densities:
               1          2
     1  H    0.339336   0.006417
     2  H    0.000600   0.999371
     3  F   -0.339936  -0.005788
 Sum of Mulliken charges =  -0.00000   1.00000

 Dipole moment (field-independent basis, Debye):
    X=             -2.6784    Y=              0.0000    Z=              0.0000  Tot=              2.6784
 Quadrupole moment (field-independent basis, Debye-Ang):
   XX=            -10.3432   YY=             -7.3720   ZZ=             -7.3720
   XY=              0.0000   XZ=              0.0000   YZ=              0.0000

  Exact polarizability:      16.723       0.000       2.143      -0.000      -0.000       2.143
 Approx polarizability:      36.081      -0.000       2.060      -0.000      -0.000       2.060

 ******    2 imaginary frequencies (negative Signs) ******

                      1                      2                      3
                      A                      A                      A
 Frequencies --  -1182.1966               -45.1490               946.7389
 Red. masses --      1.0581                 1.0535                 1.0317
 Frc consts  --      0.8713                 0.0013                 0.5448
 IR Inten    --     32.7762                 0.0409               111.9214

                      4
                      A
 Frequencies --    946.7389
 Red. masses --      1.0317
 Frc consts  --      0.5448
 IR Inten    --    111.9214

 - Thermochemistry -
 -------------------
 Temperature   298.150 Kelvin.  Pressure   1.00000 Atm.
 Atom     1 has atomic number  1 and mass   1.00783

 Molecular mass:    21.01405 amu.
 Principal axes and moments of inertia in atomic units:
                           1         2         3
     Eigenvalues --     0.00000 113.13043 113.13043
           X            1.00000  -0.00000   0.00000
           Y            0.00000   1.00000   0.00000
           Z            0.00000   0.00000   1.00000
 This molecule is a prolate symmetric top.
 Rotational symmetry number  1.
 Rotational temperature (Kelvin)      0.76561
 Rotational constant (GHZ):          15.952748
    2 imaginary frequencies ignored.
 Zero-point vibrational energy      11325.5 (Joules/Mol)
                                    2.70686 (Kcal/Mol)
 Vibrational temperatures:   1362.15  1362.15
          (Kelvin)

 Zero-point correction=                           0.004314 (Hartree/Particle)
 Thermal correction to Energy=                    0.006765
 Thermal correction to Enthalpy=                  0.007709
 Thermal correction to Gibbs Free Energy=        -0.016294
 Sum of electronic and zero-point Energies=           -100.829310
 Sum of electronic and thermal Energies=              -100.826859
 Sum of electronic and thermal Enthalpies=            -100.825915
 Sum of electronic and thermal Free Energies=         -100.849917

                     E (Thermal)             CV                S
                      KCal/Mol        Cal/Mol-Kelvin    Cal/Mol-Kelvin
 Total                    4.245              5.847             50.517
 Electronic               0.000              0.000              1.377
 Translational            0.889              2.981             35.068
 Rotational               0.592              1.987             13.840
 Vibrational              2.764              0.879              0.232

 Normal termination of Gaussian 16 at Fri Aug 22 16:32:57 2025.
