 Gaussian 16, Revision C.01,
 Gaussian 16:  ES64L-G16RevC.01  3-Jul-2019

 -----------------------------------------
 # sp b3lyp/6-311g** Force nosymm scf=(qc)
 -----------------------------------------

 -------------------
 Title Card Required
 -------------------
 Symbolic Z-matrix:
 Charge =  0 Multiplicity = 2

                          Input orientation:
 ---------------------------------------------------------------------
 Center     Atomic      Atomic             Coordinates (Angstroms)
 Number     Number       Type             X           Y           Z
 ---------------------------------------------------------------------
      1          1           0        0.000000    0.000000    0.000000
      2          1           0       -3.800000    0.000000    0.000000
      3          9           0        1.000000    0.000000    0.000000
 ---------------------------------------------------------------------

 SCF Done:  E(UB3LYP) =  -100.966121091     a.u. after    6 cycles

 Alpha  occ. eigenvalues --  -24.64194  -1.16068  -0.51662  -0.38813  -0.38813
 Alpha  occ. eigenvalues --   -0.33478
 Alpha virt. eigenvalues --    0.00544   0.23552   0.34616   0.94028   0.94028
 Alpha virt. eigenvalues --    0.98563   1.23956   1.24030   1.24030   1.29050
 Alpha virt. eigenvalues --    1.35913   1.35913   1.89933   2.13992   2.33794

  Beta  occ. eigenvalues --  -24.64194  -1.16065  -0.51659  -0.38812  -0.38812
  Beta virt. eigenvalues --   -0.05277   0.00912   0.33203   0.39733   0.94028
  Beta virt. eigenvalues --    0.94028   0.98564   1.28996   1.35912   1.35912
  Beta virt. eigenvalues --    1.50226   1.50657   1.50657   1.89986   2.33439

 Mulliken charges and spin densities:
               1          2
     1  H    0.320235   0.000301
     2  H    0.000525   0.999413
     3  F   -0.320760   0.000286
 Sum of Mulliken charges =   0.00000   1.00000

 Dipole moment (field-independent basis, Debye):
    X=             -2.0294    Y=              0.0000    Z=             -0.0000  Tot=              2.0294
 Quadrupole moment (field-independent basis, Debye-Ang):
   XX=             -8.2584   YY=             -6.9622   ZZ=             -6.9622
   XY=             -0.0000   XZ=             -0.0000   YZ=              0.0000

  Exact polarizability:       6.436       0.000       2.396      -0.000       0.000       2.396
 Approx polarizability:       7.989       0.000       2.368      -0.000       0.000       2.368

 ******    1 imaginary frequencies (negative Signs) ******

                      1                      2                      3
                      A                      A                      A
 Frequencies --    -32.8163               986.6813               986.6813
 Red. masses --      1.0532                 1.0382                 1.0382
 Frc consts  --      0.0007                 0.5955                 0.5955
 IR Inten    --      0.0204               170.4971               170.4971

                      4
                      A
 Frequencies --   3027.4433
 Red. masses --      1.0583
 Frc consts  --      5.7151
 IR Inten    --     87.0081

 - Thermochemistry -
 -------------------
 Temperature   298.150 Kelvin.  Pressure   1.00000 Atm.
 Atom     1 has atomic number  1 and mass   1.00783

 Molecular mass:    21.01405 amu.
 Principal axes and moments of inertia in atomic units:
                           1         2         3
     Eigenvalues --     0.00000  80.71367  80.71367
           X            1.00000  -0.00000   0.00000
           Y            0.00000   1.00000   0.00000
           Z            0.00000   0.00000   1.00000
 This molecule is a prolate symmetric top.
 Rotational symmetry number  1.
 Rotational temperature (Kelvin)      1.07310
 Rotational constant (GHZ):          22.359796
    1 imaginary frequencies ignored.
 Zero-point vibrational energy      29911.5 (Joules/Mol)
                                    7.14901 (Kcal/Mol)
 Vibrational temperatures:   1419.61  1419.61  4355.82
          (Kelvin)

 Zero-point correction=                           0.011393 (Hartree/Particle)
 Thermal correction to Energy=                    0.013831
 Thermal correction to Enthalpy=                  0.014775
 Thermal correction to Gibbs Free Energy=        -0.008892
 Sum of electronic and zero-point Energies=           -100.954728
 Sum of electronic and thermal Energies=              -100.952290
 Sum of electronic and thermal Enthalpies=            -100.951346
 Sum of electronic and thermal Free Energies=         -100.975014

                     E (Thermal)             CV                S
                      KCal/Mol        Cal/Mol-Kelvin    Cal/Mol-Kelvin
 Total                    8.679              5.752             49.812
 Electronic               0.000              0.000              1.377
 Translational            0.889              2.981             35.068
 Rotational               0.592              1.987             13.169
 Vibrational              7.198              0.784              0.197

 Normal termination of Gaussian 16 at Fri Aug 22 16:01:43 2025.
