 Gaussian 16, Revision C.01,
 Gaussian 16:  ES64L-G16RevC.01  3-Jul-2019

 -----------------------------------------
 # sp b3lyp/6-311g** Force nosymm scf=(qc)
 -----------------------------------------

 -------------------
 Title Card Required
 -------------------
 Symbolic Z-matrix:
 Charge =  0 Multiplicity = 2

                          Input orientation:
 ---------------------------------------------------------------------
 Center     Atomic      Atomic             Coordinates (Angstroms)
 Number     Number       Type             X           Y           Z
 ---------------------------------------------------------------------
      1          1           0        0.000000    0.000000    0.000000
      2          1           0       -2.900000    0.000000    0.000000
      3          9           0        2.600000    0.000000    0.000000
 ---------------------------------------------------------------------

 SCF Done:  E(UB3LYP) =  -100.766714012     a.u. after   20 cycles

 Alpha  occ. eigenvalues --  -24.72314  -1.18492  -0.51421  -0.43189  -0.43189
 Alpha  occ. eigenvalues --   -0.33164
 Alpha virt. eigenvalues --   -0.10630   0.24396   0.34348   0.90086   0.93308
 Alpha virt. eigenvalues --    0.93308   1.06190   1.24390   1.24390   1.25587
 Alpha virt. eigenvalues --    1.40388   1.40388   1.42967   2.15227   2.35786

  Beta  occ. eigenvalues --  -24.69422  -1.10247  -0.40303  -0.40303  -0.34970
  Beta virt. eigenvalues --   -0.23719  -0.08105   0.24952   0.36324   0.94707
  Beta virt. eigenvalues --    0.94707   0.97493   1.09118   1.22456   1.22456
  Beta virt. eigenvalues --    1.27490   1.44102   1.44102   1.44303   2.14603

 Mulliken charges and spin densities:
               1          2
     1  H    0.072505  -0.904734
     2  H    0.003637   0.990326
     3  F   -0.076142   0.914408
 Sum of Mulliken charges =  -0.00000   1.00000

 Dipole moment (field-independent basis, Debye):
    X=             -1.0608    Y=             -0.0000    Z=              0.0000  Tot=              1.0608
 Quadrupole moment (field-independent basis, Debye-Ang):
   XX=             -8.9328   YY=             -7.5981   ZZ=             -7.5981
   XY=             -0.0000   XZ=              0.0000   YZ=              0.0000

  Exact polarizability:      36.203      -0.000       2.020       0.000       0.000       2.020
 Approx polarizability:      41.245      -0.000       1.919       0.000      -0.000       1.919

 ******    2 imaginary frequencies (negative Signs) ******

                      1                      2                      3
                      A                      A                      A
 Frequencies --   -615.3546              -233.5946               238.4637
 Red. masses --      1.0371                 1.0751                 1.0193
 Frc consts  --      0.2314                 0.0346                 0.0342
 IR Inten    --     64.9955                 5.7246                 4.7205

                      4
                      A
 Frequencies --    238.4637
 Red. masses --      1.0193
 Frc consts  --      0.0342
 IR Inten    --      4.7205

 - Thermochemistry -
 -------------------
 Temperature   298.150 Kelvin.  Pressure   1.00000 Atm.
 Atom     1 has atomic number  1 and mass   1.00783

 Molecular mass:    21.01405 amu.
 Principal axes and moments of inertia in atomic units:
                           1         2         3
     Eigenvalues --     0.00000 121.87457 121.87457
           X            1.00000  -0.00000   0.00000
           Y            0.00000   1.00000   0.00000
           Z            0.00000   0.00000   1.00000
 This molecule is a prolate symmetric top.
 Rotational symmetry number  1.
 Rotational temperature (Kelvin)      0.71068
 Rotational constant (GHZ):          14.808186
    2 imaginary frequencies ignored.
 Zero-point vibrational energy       2852.7 (Joules/Mol)
                                    0.68180 (Kcal/Mol)
 Warning -- explicit consideration of   2 degrees of freedom as
           vibrations may cause significant error
 Vibrational temperatures:    343.10   343.10
          (Kelvin)

 Zero-point correction=                           0.001087 (Hartree/Particle)
 Thermal correction to Energy=                    0.004453
 Thermal correction to Enthalpy=                  0.005397
 Thermal correction to Gibbs Free Energy=        -0.020290
 Sum of electronic and zero-point Energies=           -100.765627
 Sum of electronic and thermal Energies=              -100.762261
 Sum of electronic and thermal Enthalpies=            -100.761317
 Sum of electronic and thermal Free Energies=         -100.787004

                     E (Thermal)             CV                S
                      KCal/Mol        Cal/Mol-Kelvin    Cal/Mol-Kelvin
 Total                    2.794              8.531             54.062
 Electronic               0.000              0.000              1.377
 Translational            0.889              2.981             35.068
 Rotational               0.592              1.987             13.988
 Vibrational              1.313              3.563              3.629
 Vibration     1          0.656              1.782              1.814
 Vibration     2          0.656              1.782              1.814

 Normal termination of Gaussian 16 at Fri Aug 22 18:04:38 2025.
