 Gaussian 16, Revision C.01,
 Gaussian 16:  ES64L-G16RevC.01  3-Jul-2019

 -----------------------------------------
 # sp b3lyp/6-311g** Force nosymm scf=(qc)
 -----------------------------------------

 -------------------
 Title Card Required
 -------------------
 Symbolic Z-matrix:
 Charge =  0 Multiplicity = 2

                          Input orientation:
 ---------------------------------------------------------------------
 Center     Atomic      Atomic             Coordinates (Angstroms)
 Number     Number       Type             X           Y           Z
 ---------------------------------------------------------------------
      1          1           0        0.000000    0.000000    0.000000
      2          1           0       -2.400000    0.000000    0.000000
      3          9           0        1.050000    0.000000    0.000000
 ---------------------------------------------------------------------

 SCF Done:  E(UB3LYP) =  -100.958867272     a.u. after    6 cycles

 Alpha  occ. eigenvalues --  -24.64056  -1.14728  -0.50560  -0.38273  -0.38273
 Alpha  occ. eigenvalues --   -0.35292
 Alpha virt. eigenvalues --    0.00473   0.24941   0.32314   0.93962   0.93962
 Alpha virt. eigenvalues --    0.99043   1.19024   1.22250   1.22250   1.35704
 Alpha virt. eigenvalues --    1.35704   1.38935   1.85228   2.13178   2.33816

  Beta  occ. eigenvalues --  -24.64022  -1.14642  -0.50403  -0.38242  -0.38242
  Beta virt. eigenvalues --   -0.10800   0.02515   0.32228   0.36677   0.93964
  Beta virt. eigenvalues --    0.93964   0.99171   1.28114   1.35630   1.35630
  Beta virt. eigenvalues --    1.43361   1.43361   1.50241   1.85258   2.32769

 Mulliken charges and spin densities:
               1          2
     1  H    0.324099   0.002656
     2  H    0.009406   0.987039
     3  F   -0.333505   0.010305
 Sum of Mulliken charges =   0.00000   1.00000

 Dipole moment (field-independent basis, Debye):
    X=             -2.2124    Y=             -0.0000    Z=             -0.0000  Tot=              2.2124
 Quadrupole moment (field-independent basis, Debye-Ang):
   XX=             -8.0775   YY=             -6.9957   ZZ=             -6.9957
   XY=             -0.0000   XZ=             -0.0000   YZ=              0.0000

  Exact polarizability:      10.062       0.000       2.414       0.000      -0.000       2.414
 Approx polarizability:      11.672       0.000       2.387      -0.000      -0.000       2.387

 ******    1 imaginary frequencies (negative Signs) ******

                      1                      2                      3
                      A                      A                      A
 Frequencies --   -116.1667              1096.1966              1096.1966
 Red. masses --      1.0523                 1.0302                 1.0302
 Frc consts  --      0.0084                 0.7294                 0.7294
 IR Inten    --      1.8852               145.1581               145.1581

                      4
                      A
 Frequencies --   2427.4325
 Red. masses --      1.0593
 Frc consts  --      3.6775
 IR Inten    --    134.2073

 - Thermochemistry -
 -------------------
 Temperature   298.150 Kelvin.  Pressure   1.00000 Atm.
 Atom     1 has atomic number  1 and mass   1.00783

 Molecular mass:    21.01405 amu.
 Principal axes and moments of inertia in atomic units:
                           1         2         3
     Eigenvalues --     0.00000  43.30982  43.30982
           X            1.00000  -0.00000   0.00000
           Y            0.00000   1.00000   0.00000
           Z            0.00000   0.00000   1.00000
 This molecule is a prolate symmetric top.
 Rotational symmetry number  1.
 Rotational temperature (Kelvin)      1.99987
 Rotational constant (GHZ):          41.670489
    1 imaginary frequencies ignored.
 Zero-point vibrational energy      27632.7 (Joules/Mol)
                                    6.60437 (Kcal/Mol)
 Vibrational temperatures:   1577.18  1577.18  3492.53
          (Kelvin)

 Zero-point correction=                           0.010525 (Hartree/Particle)
 Thermal correction to Energy=                    0.012936
 Thermal correction to Enthalpy=                  0.013880
 Thermal correction to Gibbs Free Energy=        -0.009166
 Sum of electronic and zero-point Energies=           -100.948343
 Sum of electronic and thermal Energies=              -100.945931
 Sum of electronic and thermal Enthalpies=            -100.944987
 Sum of electronic and thermal Free Energies=         -100.968033

                     E (Thermal)             CV                S
                      KCal/Mol        Cal/Mol-Kelvin    Cal/Mol-Kelvin
 Total                    8.117              5.537             48.504
 Electronic               0.000              0.000              1.377
 Translational            0.889              2.981             35.068
 Rotational               0.592              1.987             11.932
 Vibrational              6.636              0.569              0.127

 Normal termination of Gaussian 16 at Fri Aug 22 16:03:12 2025.
