 Gaussian 16, Revision C.01,
 Gaussian 16:  ES64L-G16RevC.01  3-Jul-2019

 -----------------------------------------
 # sp b3lyp/6-311g** Force nosymm scf=(qc)
 -----------------------------------------

 -------------------
 Title Card Required
 -------------------
 Symbolic Z-matrix:
 Charge =  0 Multiplicity = 2

                          Input orientation:
 ---------------------------------------------------------------------
 Center     Atomic      Atomic             Coordinates (Angstroms)
 Number     Number       Type             X           Y           Z
 ---------------------------------------------------------------------
      1          1           0        0.000000    0.000000    0.000000
      2          1           0       -2.050000    0.000000    0.000000
      3          9           0        3.050000    0.000000    0.000000
 ---------------------------------------------------------------------

 SCF Done:  E(UB3LYP) =  -100.773995487     a.u. after   26 cycles

 Alpha  occ. eigenvalues --  -24.74487  -1.20513  -0.53606  -0.45010  -0.45010
 Alpha  occ. eigenvalues --   -0.33560
 Alpha virt. eigenvalues --   -0.11557   0.25558   0.32104   0.89417   0.92030
 Alpha virt. eigenvalues --    0.92030   1.03663   1.18728   1.24388   1.24388
 Alpha virt. eigenvalues --    1.37225   1.37225   1.48535   2.12634   2.36213

  Beta  occ. eigenvalues --  -24.71437  -1.11766  -0.41956  -0.41956  -0.33750
  Beta virt. eigenvalues --   -0.25058  -0.10933   0.25895   0.32724   0.93498
  Beta virt. eigenvalues --    0.93498   0.98224   1.07604   1.18613   1.24118
  Beta virt. eigenvalues --    1.24118   1.38189   1.38189   1.49294   2.13793

 Mulliken charges and spin densities:
               1          2
     1  H    0.016692  -0.848102
     2  H    0.012789   0.881571
     3  F   -0.029481   0.966532
 Sum of Mulliken charges =  -0.00000   1.00000

 Dipole moment (field-independent basis, Debye):
    X=             -0.5861    Y=              0.0000    Z=             -0.0000  Tot=              0.5861
 Quadrupole moment (field-independent basis, Debye-Ang):
   XX=             -7.3270   YY=             -7.7059   ZZ=             -7.7059
   XY=             -0.0000   XZ=              0.0000   YZ=              0.0000

  Exact polarizability:      56.495      -0.000       2.006       0.000       0.000       2.006
 Approx polarizability:      50.405      -0.000       1.930       0.000      -0.000       1.930

 ******    2 imaginary frequencies (negative Signs) ******

                      1                      2                      3
                      A                      A                      A
 Frequencies --  -1277.2359              -229.0876               508.8634
 Red. masses --      1.0080                 1.1083                 1.0138
 Frc consts  --      0.9688                 0.0343                 0.1547
 IR Inten    --     31.5776                25.3606                 0.1148

                      4
                      A
 Frequencies --    508.8634
 Red. masses --      1.0138
 Frc consts  --      0.1547
 IR Inten    --      0.1148

 - Thermochemistry -
 -------------------
 Temperature   298.150 Kelvin.  Pressure   1.00000 Atm.
 Atom     1 has atomic number  1 and mass   1.00783

 Molecular mass:    21.01405 amu.
 Principal axes and moments of inertia in atomic units:
                           1         2         3
     Eigenvalues --     0.00000 115.62501 115.62501
           X            1.00000  -0.00000   0.00000
           Y            0.00000   1.00000   0.00000
           Z            0.00000   0.00000   1.00000
 This molecule is a prolate symmetric top.
 Rotational symmetry number  1.
 Rotational temperature (Kelvin)      0.74909
 Rotational constant (GHZ):          15.608572
    2 imaginary frequencies ignored.
 Zero-point vibrational energy       6087.4 (Joules/Mol)
                                    1.45491 (Kcal/Mol)
 Warning -- explicit consideration of   2 degrees of freedom as
           vibrations may cause significant error
 Vibrational temperatures:    732.14   732.14
          (Kelvin)

 Zero-point correction=                           0.002319 (Hartree/Particle)
 Thermal correction to Energy=                    0.005114
 Thermal correction to Enthalpy=                  0.006058
 Thermal correction to Gibbs Free Energy=        -0.018459
 Sum of electronic and zero-point Energies=           -100.771677
 Sum of electronic and thermal Energies=              -100.768881
 Sum of electronic and thermal Enthalpies=            -100.767937
 Sum of electronic and thermal Free Energies=         -100.792455

                     E (Thermal)             CV                S
                      KCal/Mol        Cal/Mol-Kelvin    Cal/Mol-Kelvin
 Total                    3.209              7.429             51.602
 Electronic               0.000              0.000              1.377
 Translational            0.889              2.981             35.068
 Rotational               0.592              1.987             13.884
 Vibrational              1.728              2.461              1.273
 Vibration     1          0.864              1.230              0.636
 Vibration     2          0.864              1.230              0.636

 Normal termination of Gaussian 16 at Fri Aug 22 19:43:38 2025.
