 Gaussian 16, Revision C.01,
 Gaussian 16:  ES64L-G16RevC.01  3-Jul-2019

 -----------------------------------------
 # sp b3lyp/6-311g** Force nosymm scf=(qc)
 -----------------------------------------

 -------------------
 Title Card Required
 -------------------
 Symbolic Z-matrix:
 Charge =  0 Multiplicity = 2

                          Input orientation:
 ---------------------------------------------------------------------
 Center     Atomic      Atomic             Coordinates (Angstroms)
 Number     Number       Type             X           Y           Z
 ---------------------------------------------------------------------
      1          1           0        0.000000    0.000000    0.000000
      2          1           0       -3.850000    0.000000    0.000000
      3          9           0        3.500000    0.000000    0.000000
 ---------------------------------------------------------------------

 SCF Done:  E(UB3LYP) =  -100.758919138     a.u. after   32 cycles

 Alpha  occ. eigenvalues --  -24.75378  -1.21342  -0.54501  -0.45760  -0.45760
 Alpha  occ. eigenvalues --   -0.32301
 Alpha virt. eigenvalues --   -0.06438   0.24124   0.37231   0.87588   0.91486
 Alpha virt. eigenvalues --    0.91486   1.01814   1.25195   1.25195   1.25234
 Alpha virt. eigenvalues --    1.46026   1.46026   1.46510   2.14627   2.42186

  Beta  occ. eigenvalues --  -24.72265  -1.12396  -0.42639  -0.42639  -0.32812
  Beta virt. eigenvalues --   -0.25478  -0.05981   0.23860   0.38172   0.92975
  Beta virt. eigenvalues --    0.92975   0.96722   1.05819   1.24612   1.24612
  Beta virt. eigenvalues --    1.24635   1.46510   1.46652   1.46652   2.14786

 Mulliken charges and spin densities:
               1          2
     1  H    0.011576  -0.986321
     2  H    0.000072   0.999105
     3  F   -0.011647   0.987217
 Sum of Mulliken charges =  -0.00000   1.00000

 Dipole moment (field-independent basis, Debye):
    X=             -0.2110    Y=             -0.0000    Z=             -0.0000  Tot=              0.2110
 Quadrupole moment (field-independent basis, Debye-Ang):
   XX=             -7.4245   YY=             -7.6178   ZZ=             -7.6178
   XY=             -0.0000   XZ=             -0.0000   YZ=             -0.0000

  Exact polarizability:      22.932      -0.000       2.036      -0.000      -0.000       2.036
 Approx polarizability:      18.231      -0.000       1.934      -0.000      -0.000       1.934

 ******    2 imaginary frequencies (negative Signs) ******

                      1                      2                      3
                      A                      A                      A
 Frequencies --   -218.8996               -77.0181                61.8307
 Red. masses --      1.0421                 1.0698                 1.0191
 Frc consts  --      0.0294                 0.0037                 0.0023
 IR Inten    --     11.2624                 0.3140                 0.1213

                      4
                      A
 Frequencies --     61.8308
 Red. masses --      1.0191
 Frc consts  --      0.0023
 IR Inten    --      0.1213

 - Thermochemistry -
 -------------------
 Temperature   298.150 Kelvin.  Pressure   1.00000 Atm.
 Atom     1 has atomic number  1 and mass   1.00783

 Molecular mass:    21.01405 amu.
 Principal axes and moments of inertia in atomic units:
                           1         2         3
     Eigenvalues --     0.00000 218.19558 218.19558
           X            1.00000  -0.00000   0.00000
           Y            0.00000   1.00000   0.00000
           Z            0.00000   0.00000   1.00000
 This molecule is a prolate symmetric top.
 Rotational symmetry number  1.
 Rotational temperature (Kelvin)      0.39696
 Rotational constant (GHZ):           8.271209
    2 imaginary frequencies ignored.
 Zero-point vibrational energy        739.7 (Joules/Mol)
                                    0.17678 (Kcal/Mol)
 Warning -- explicit consideration of   2 degrees of freedom as
           vibrations may cause significant error
 Vibrational temperatures:     88.96    88.96
          (Kelvin)

 Zero-point correction=                           0.000282 (Hartree/Particle)
 Thermal correction to Energy=                    0.004263
 Thermal correction to Enthalpy=                  0.005207
 Thermal correction to Gibbs Free Energy=        -0.023485
 Sum of electronic and zero-point Energies=           -100.758637
 Sum of electronic and thermal Energies=              -100.754656
 Sum of electronic and thermal Enthalpies=            -100.753712
 Sum of electronic and thermal Free Energies=         -100.782404

                     E (Thermal)             CV                S
                      KCal/Mol        Cal/Mol-Kelvin    Cal/Mol-Kelvin
 Total                    2.675              8.913             60.387
 Electronic               0.000              0.000              1.377
 Translational            0.889              2.981             35.068
 Rotational               0.592              1.987             15.146
 Vibrational              1.194              3.945              8.796
 Vibration     1          0.597              1.973              4.398
 Vibration     2          0.597              1.973              4.398

 Normal termination of Gaussian 16 at Fri Aug 22 22:11:49 2025.
