 Gaussian 16, Revision C.01,
 Gaussian 16:  ES64L-G16RevC.01  3-Jul-2019

 -----------------------------------------
 # sp b3lyp/6-311g** Force nosymm scf=(qc)
 -----------------------------------------

 -------------------
 Title Card Required
 -------------------
 Symbolic Z-matrix:
 Charge =  0 Multiplicity = 2

                          Input orientation:
 ---------------------------------------------------------------------
 Center     Atomic      Atomic             Coordinates (Angstroms)
 Number     Number       Type             X           Y           Z
 ---------------------------------------------------------------------
      1          1           0        0.000000    0.000000    0.000000
      2          1           0       -0.900000    0.000000    0.000000
      3          9           0        2.250000    0.000000    0.000000
 ---------------------------------------------------------------------

 SCF Done:  E(UB3LYP) =  -100.922891607     a.u. after    7 cycles

 Alpha  occ. eigenvalues --  -24.75270  -1.21263  -0.54662  -0.45698  -0.45698
 Alpha  occ. eigenvalues --   -0.41662
 Alpha virt. eigenvalues --    0.02967   0.20872   0.41884   0.89529   0.91157
 Alpha virt. eigenvalues --    0.91157   1.07147   1.07147   1.12146   1.48003
 Alpha virt. eigenvalues --    1.71010   1.71010   2.17143   2.37354   2.73453

  Beta  occ. eigenvalues --  -24.72206  -1.12495  -0.42635  -0.42635  -0.41588
  Beta virt. eigenvalues --   -0.25911   0.03673   0.21291   0.42228   0.92586
  Beta virt. eigenvalues --    0.92586   0.97731   1.07555   1.07555   1.15898
  Beta virt. eigenvalues --    1.48995   1.71276   1.71276   2.17618   2.37756

 Mulliken charges and spin densities:
               1          2
     1  H   -0.004948  -0.023011
     2  H    0.026923   0.057214
     3  F   -0.021975   0.965797
 Sum of Mulliken charges =   0.00000   1.00000

 Dipole moment (field-independent basis, Debye):
    X=             -0.3586    Y=             -0.0000    Z=              0.0000  Tot=              0.3586
 Quadrupole moment (field-independent basis, Debye-Ang):
   XX=             -5.9444   YY=             -7.1249   ZZ=             -7.1249
   XY=             -0.0000   XZ=              0.0000   YZ=             -0.0000

  Exact polarizability:      21.602       0.000       2.124       0.000       0.000       2.124
 Approx polarizability:      24.515      -0.000       2.139      -0.000      -0.000       2.139

 ******    1 imaginary frequencies (negative Signs) ******

                      1                      2                      3
                      A                      A                      A
 Frequencies --   -231.2293              1308.2301              1308.2301
 Red. masses --      1.1084                 1.0106                 1.0106
 Frc consts  --      0.0349                 1.0190                 1.0190
 IR Inten    --     22.2448                 0.0101                 0.0101

                      4
                      A
 Frequencies --   2562.9426
 Red. masses --      1.0079
 Frc consts  --      3.9007
 IR Inten    --    191.2417

 - Thermochemistry -
 -------------------
 Temperature   298.150 Kelvin.  Pressure   1.00000 Atm.
 Atom     1 has atomic number  1 and mass   1.00783

 Molecular mass:    21.01405 amu.
 Principal axes and moments of inertia in atomic units:
                           1         2         3
     Eigenvalues --     0.00000  48.89793  48.89793
           X            1.00000  -0.00000   0.00000
           Y            0.00000   1.00000   0.00000
           Z            0.00000   0.00000   1.00000
 This molecule is a prolate symmetric top.
 Rotational symmetry number  1.
 Rotational temperature (Kelvin)      1.77132
 Rotational constant (GHZ):          36.908339
    1 imaginary frequencies ignored.
 Zero-point vibrational energy      30979.7 (Joules/Mol)
                                    7.40433 (Kcal/Mol)
 Vibrational temperatures:   1882.25  1882.25  3687.50
          (Kelvin)

 Zero-point correction=                           0.011800 (Hartree/Particle)
 Thermal correction to Energy=                    0.014182
 Thermal correction to Enthalpy=                  0.015126
 Thermal correction to Gibbs Free Energy=        -0.008000
 Sum of electronic and zero-point Energies=           -100.911092
 Sum of electronic and thermal Energies=              -100.908710
 Sum of electronic and thermal Enthalpies=            -100.907766
 Sum of electronic and thermal Free Energies=         -100.930891

                     E (Thermal)             CV                S
                      KCal/Mol        Cal/Mol-Kelvin    Cal/Mol-Kelvin
 Total                    8.899              5.257             48.672
 Electronic               0.000              0.000              1.377
 Translational            0.889              2.981             35.068
 Rotational               0.592              1.987             12.173
 Vibrational              7.418              0.289              0.053

 Normal termination of Gaussian 16 at Fri Aug 22 17:15:24 2025.
