 Gaussian 16, Revision C.01,
 Gaussian 16:  ES64L-G16RevC.01  3-Jul-2019

 -----------------------------------------
 # sp b3lyp/6-311g** Force nosymm scf=(qc)
 -----------------------------------------

 -------------------
 Title Card Required
 -------------------
 Symbolic Z-matrix:
 Charge =  0 Multiplicity = 2

                          Input orientation:
 ---------------------------------------------------------------------
 Center     Atomic      Atomic             Coordinates (Angstroms)
 Number     Number       Type             X           Y           Z
 ---------------------------------------------------------------------
      1          1           0        0.000000    0.000000    0.000000
      2          1           0       -3.500000    0.000000    0.000000
      3          9           0        3.950000    0.000000    0.000000
 ---------------------------------------------------------------------

 SCF Done:  E(UB3LYP) =  -100.758662635     a.u. after   34 cycles

 Alpha  occ. eigenvalues --  -24.75855  -1.21784  -0.54980  -0.46162  -0.46162
 Alpha  occ. eigenvalues --   -0.32263
 Alpha virt. eigenvalues --   -0.06660   0.24387   0.37657   0.86622   0.91186
 Alpha virt. eigenvalues --    0.91186   1.01117   1.25241   1.25241   1.25391
 Alpha virt. eigenvalues --    1.45571   1.45807   1.45807   2.15097   2.41222

  Beta  occ. eigenvalues --  -24.72711  -1.12744  -0.43010  -0.43010  -0.32470
  Beta virt. eigenvalues --   -0.25719  -0.06441   0.24229   0.37965   0.92684
  Beta virt. eigenvalues --    0.92684   0.95987   1.05239   1.25017   1.25017
  Beta virt. eigenvalues --    1.25153   1.45914   1.46137   1.46137   2.15088

 Mulliken charges and spin densities:
               1          2
     1  H    0.002793  -0.994662
     2  H    0.000073   0.997850
     3  F   -0.002866   0.996812
 Sum of Mulliken charges =  -0.00000   1.00000

 Dipole moment (field-independent basis, Debye):
    X=             -0.0599    Y=              0.0000    Z=              0.0000  Tot=              0.0599
 Quadrupole moment (field-independent basis, Debye-Ang):
   XX=             -6.9291   YY=             -7.6238   ZZ=             -7.6238
   XY=              0.0000   XZ=              0.0000   YZ=              0.0000

  Exact polarizability:      11.878      -0.000       2.017       0.000       0.000       2.017
 Approx polarizability:       8.853       0.000       1.936       0.000      -0.000       1.936

 ******    2 imaginary frequencies (negative Signs) ******

                      1                      2                      3
                      A                      A                      A
 Frequencies --   -193.8742               -71.6493                66.0728
 Red. masses --      1.0111                 1.1045                 1.0165
 Frc consts  --      0.0224                 0.0033                 0.0026
 IR Inten    --      1.0020                 0.5163                 0.0090

                      4
                      A
 Frequencies --     66.0729
 Red. masses --      1.0165
 Frc consts  --      0.0026
 IR Inten    --      0.0090

 - Thermochemistry -
 -------------------
 Temperature   298.150 Kelvin.  Pressure   1.00000 Atm.
 Atom     1 has atomic number  1 and mass   1.00783

 Molecular mass:    21.01405 amu.
 Principal axes and moments of inertia in atomic units:
                           1         2         3
     Eigenvalues --     0.00000 233.47551 233.47551
           X            1.00000  -0.00000   0.00000
           Y            0.00000   1.00000   0.00000
           Z            0.00000   0.00000   1.00000
 This molecule is a prolate symmetric top.
 Rotational symmetry number  1.
 Rotational temperature (Kelvin)      0.37098
 Rotational constant (GHZ):           7.729895
    2 imaginary frequencies ignored.
 Zero-point vibrational energy        790.4 (Joules/Mol)
                                    0.18891 (Kcal/Mol)
 Warning -- explicit consideration of   2 degrees of freedom as
           vibrations may cause significant error
 Vibrational temperatures:     95.06    95.06
          (Kelvin)

 Zero-point correction=                           0.000301 (Hartree/Particle)
 Thermal correction to Energy=                    0.004265
 Thermal correction to Enthalpy=                  0.005209
 Thermal correction to Gibbs Free Energy=        -0.023422
 Sum of electronic and zero-point Energies=           -100.758362
 Sum of electronic and thermal Energies=              -100.754398
 Sum of electronic and thermal Enthalpies=            -100.753454
 Sum of electronic and thermal Free Energies=         -100.782085

                     E (Thermal)             CV                S
                      KCal/Mol        Cal/Mol-Kelvin    Cal/Mol-Kelvin
 Total                    2.676              8.909             60.260
 Electronic               0.000              0.000              1.377
 Translational            0.889              2.981             35.068
 Rotational               0.592              1.987             15.280
 Vibrational              1.195              3.941              8.534
 Vibration     1          0.597              1.970              4.267
 Vibration     2          0.597              1.970              4.267

 Normal termination of Gaussian 16 at Sat Aug 23 01:41:50 2025.
