 Gaussian 16, Revision C.01,
 Gaussian 16:  ES64L-G16RevC.01  3-Jul-2019

 -----------------------------------------
 # sp b3lyp/6-311g** Force nosymm scf=(qc)
 -----------------------------------------

 -------------------
 Title Card Required
 -------------------
 Symbolic Z-matrix:
 Charge =  0 Multiplicity = 2

                          Input orientation:
 ---------------------------------------------------------------------
 Center     Atomic      Atomic             Coordinates (Angstroms)
 Number     Number       Type             X           Y           Z
 ---------------------------------------------------------------------
      1          1           0        0.000000    0.000000    0.000000
      2          1           0       -3.300000    0.000000    0.000000
      3          9           0        0.850000    0.000000    0.000000
 ---------------------------------------------------------------------

 SCF Done:  E(UB3LYP) =  -100.965529318     a.u. after    6 cycles

 Alpha  occ. eigenvalues --  -24.63850  -1.20899  -0.55008  -0.40131  -0.40131
 Alpha  occ. eigenvalues --   -0.33730
 Alpha virt. eigenvalues --    0.04269   0.24869   0.42528   0.94341   0.94341
 Alpha virt. eigenvalues --    0.97396   1.23387   1.23788   1.23788   1.30603
 Alpha virt. eigenvalues --    1.38362   1.38362   2.03203   2.14534   2.42914

  Beta  occ. eigenvalues --  -24.63849  -1.20895  -0.55004  -0.40129  -0.40129
  Beta virt. eigenvalues --   -0.05860   0.05018   0.39213   0.42498   0.94341
  Beta virt. eigenvalues --    0.94341   0.97385   1.29791   1.38362   1.38362
  Beta virt. eigenvalues --    1.50563   1.50770   1.50770   2.03245   2.42866

 Mulliken charges and spin densities:
               1          2
     1  H    0.283672   0.000875
     2  H    0.001251   0.998410
     3  F   -0.284923   0.000715
 Sum of Mulliken charges =   0.00000   1.00000

 Dipole moment (field-independent basis, Debye):
    X=             -1.8261    Y=              0.0000    Z=              0.0000  Tot=              1.8261
 Quadrupole moment (field-independent basis, Debye-Ang):
   XX=             -7.7240   YY=             -6.8196   ZZ=             -6.8196
   XY=             -0.0000   XZ=              0.0000   YZ=              0.0000

  Exact polarizability:       5.342      -0.000       2.439       0.000      -0.000       2.439
 Approx polarizability:       6.032      -0.000       2.419      -0.000      -0.000       2.419

 ******    3 imaginary frequencies (negative Signs) ******

                      1                      2                      3
                      A                      A                      A
 Frequencies --  -1323.3275             -1323.3275               -49.2574
 Red. masses --      1.0385                 1.0385                 1.0532
 Frc consts  --      1.0715                 1.0715                 0.0015
 IR Inten    --    186.8380               186.8380                 0.0651

                      4
                      A
 Frequencies --   5311.2803
 Red. masses --      1.0583
 Frc consts  --     17.5900
 IR Inten    --    105.9575

 - Thermochemistry -
 -------------------
 Temperature   298.150 Kelvin.  Pressure   1.00000 Atm.
 Atom     1 has atomic number  1 and mass   1.00783

 Molecular mass:    21.01405 amu.
 Principal axes and moments of inertia in atomic units:
                           1         2         3
     Eigenvalues --     0.00000  60.26904  60.26904
           X            1.00000  -0.00000   0.00000
           Y            0.00000   1.00000   0.00000
           Z            0.00000   0.00000   1.00000
 This molecule is a prolate symmetric top.
 Rotational symmetry number  1.
 Rotational temperature (Kelvin)      1.43712
 Rotational constant (GHZ):          29.944750
    3 imaginary frequencies ignored.
 Zero-point vibrational energy      31768.5 (Joules/Mol)
                                    7.59286 (Kcal/Mol)
 Vibrational temperatures:   7641.75
          (Kelvin)

 Zero-point correction=                           0.012100 (Hartree/Particle)
 Thermal correction to Energy=                    0.014460
 Thermal correction to Enthalpy=                  0.015405
 Thermal correction to Gibbs Free Energy=        -0.007893
 Sum of electronic and zero-point Energies=           -100.953429
 Sum of electronic and thermal Energies=              -100.951069
 Sum of electronic and thermal Enthalpies=            -100.950125
 Sum of electronic and thermal Free Energies=         -100.973422

                     E (Thermal)             CV                S
                      KCal/Mol        Cal/Mol-Kelvin    Cal/Mol-Kelvin
 Total                    9.074              4.968             49.034
 Electronic               0.000              0.000              1.377
 Translational            0.889              2.981             35.068
 Rotational               0.592              1.987             12.589
 Vibrational              7.593              0.000              0.000

 Normal termination of Gaussian 16 at Fri Aug 22 15:54:18 2025.
