 Gaussian 16, Revision C.01,
 Gaussian 16:  ES64L-G16RevC.01  3-Jul-2019

 -----------------------------------------
 # sp b3lyp/6-311g** Force nosymm scf=(qc)
 -----------------------------------------

 -------------------
 Title Card Required
 -------------------
 Symbolic Z-matrix:
 Charge =  0 Multiplicity = 2

                          Input orientation:
 ---------------------------------------------------------------------
 Center     Atomic      Atomic             Coordinates (Angstroms)
 Number     Number       Type             X           Y           Z
 ---------------------------------------------------------------------
      1          1           0        0.000000    0.000000    0.000000
      2          1           0       -1.550000    0.000000    0.000000
      3          9           0        2.400000    0.000000    0.000000
 ---------------------------------------------------------------------

 SCF Done:  E(UB3LYP) =  -100.818568514     a.u. after   19 cycles

 Alpha  occ. eigenvalues --  -24.72523  -1.18697  -0.51717  -0.43381  -0.43381
 Alpha  occ. eigenvalues --   -0.36134
 Alpha virt. eigenvalues --   -0.11231   0.23625   0.31177   0.88105   0.93058
 Alpha virt. eigenvalues --    0.93058   1.03066   1.16245   1.18762   1.18762
 Alpha virt. eigenvalues --    1.38245   1.38245   1.75956   2.18310   2.44477

  Beta  occ. eigenvalues --  -24.69645  -1.10496  -0.40510  -0.40510  -0.35636
  Beta virt. eigenvalues --   -0.24452  -0.10392   0.25102   0.31021   0.93991
  Beta virt. eigenvalues --    0.94422   0.94422   1.06180   1.19559   1.19559
  Beta virt. eigenvalues --    1.20009   1.38841   1.38841   1.76732   2.19362

 Mulliken charges and spin densities:
               1          2
     1  H    0.032058  -0.395333
     2  H    0.043643   0.486405
     3  F   -0.075701   0.908929
 Sum of Mulliken charges =  -0.00000   1.00000

 Dipole moment (field-independent basis, Debye):
    X=             -1.2416    Y=             -0.0000    Z=             -0.0000  Tot=              1.2416
 Quadrupole moment (field-independent basis, Debye-Ang):
   XX=             -7.2139   YY=             -7.6560   ZZ=             -7.6560
   XY=             -0.0000   XZ=             -0.0000   YZ=             -0.0000

  Exact polarizability:      59.414      -0.000       2.050      -0.000       0.000       2.050
 Approx polarizability:      83.127      -0.000       2.017      -0.000       0.000       2.017

 ******    2 imaginary frequencies (negative Signs) ******

                      1                      2                      3
                      A                      A                      A
 Frequencies --  -2074.7064              -355.6997              1065.1870
 Red. masses --      1.0087                 1.1075                 1.0135
 Frc consts  --      2.5581                 0.0826                 0.6775
 IR Inten    --    558.5599                37.1347                 0.1073

                      4
                      A
 Frequencies --   1065.1870
 Red. masses --      1.0135
 Frc consts  --      0.6775
 IR Inten    --      0.1073

 - Thermochemistry -
 -------------------
 Temperature   298.150 Kelvin.  Pressure   1.00000 Atm.
 Atom     1 has atomic number  1 and mass   1.00783

 Molecular mass:    21.01405 amu.
 Principal axes and moments of inertia in atomic units:
                           1         2         3
     Eigenvalues --     0.00000  69.92388  69.92388
           X            1.00000  -0.00000   0.00000
           Y            0.00000   1.00000   0.00000
           Z            0.00000   0.00000   1.00000
 This molecule is a prolate symmetric top.
 Rotational symmetry number  1.
 Rotational temperature (Kelvin)      1.23869
 Rotational constant (GHZ):          25.810085
    2 imaginary frequencies ignored.
 Zero-point vibrational energy      12742.5 (Joules/Mol)
                                    3.04552 (Kcal/Mol)
 Vibrational temperatures:   1532.57  1532.57
          (Kelvin)

 Zero-point correction=                           0.004853 (Hartree/Particle)
 Thermal correction to Energy=                    0.007271
 Thermal correction to Enthalpy=                  0.008215
 Thermal correction to Gibbs Free Energy=        -0.015291
 Sum of electronic and zero-point Energies=           -100.813715
 Sum of electronic and thermal Energies=              -100.811298
 Sum of electronic and thermal Enthalpies=            -100.810353
 Sum of electronic and thermal Free Energies=         -100.833860

                     E (Thermal)             CV                S
                      KCal/Mol        Cal/Mol-Kelvin    Cal/Mol-Kelvin
 Total                    4.563              5.590             49.473
 Electronic               0.000              0.000              1.377
 Translational            0.889              2.981             35.068
 Rotational               0.592              1.987             12.884
 Vibrational              3.081              0.622              0.144

 Normal termination of Gaussian 16 at Fri Aug 22 17:31:42 2025.
