 Gaussian 16, Revision C.01,
 Gaussian 16:  ES64L-G16RevC.01  3-Jul-2019

 -----------------------------------------
 # sp b3lyp/6-311g** Force nosymm scf=(qc)
 -----------------------------------------

 -------------------
 Title Card Required
 -------------------
 Symbolic Z-matrix:
 Charge =  0 Multiplicity = 2

                          Input orientation:
 ---------------------------------------------------------------------
 Center     Atomic      Atomic             Coordinates (Angstroms)
 Number     Number       Type             X           Y           Z
 ---------------------------------------------------------------------
      1          1           0        0.000000    0.000000    0.000000
      2          1           0       -1.300000    0.000000    0.000000
      3          9           0        2.050000    0.000000    0.000000
 ---------------------------------------------------------------------

 SCF Done:  E(UB3LYP) =  -100.861351360     a.u. after   13 cycles

 Alpha  occ. eigenvalues --  -24.71798  -1.18077  -0.51381  -0.42831  -0.42831
 Alpha  occ. eigenvalues --   -0.38465
 Alpha virt. eigenvalues --   -0.06991   0.22124   0.32749   0.87429   0.92711
 Alpha virt. eigenvalues --    0.92711   1.04837   1.12408   1.12408   1.32372
 Alpha virt. eigenvalues --    1.46737   1.46737   1.98007   2.25724   2.51334

  Beta  occ. eigenvalues --  -24.69028  -1.10237  -0.40080  -0.40080  -0.38013
  Beta virt. eigenvalues --   -0.24594  -0.05388   0.23295   0.33111   0.93314
  Beta virt. eigenvalues --    0.93930   0.93930   1.08158   1.13766   1.13766
  Beta virt. eigenvalues --    1.35912   1.47634   1.47634   1.99551   2.26958

 Mulliken charges and spin densities:
               1          2
     1  H    0.048346  -0.170591
     2  H    0.053873   0.300737
     3  F   -0.102219   0.869854
 Sum of Mulliken charges =   0.00000   1.00000

 Dipole moment (field-independent basis, Debye):
    X=             -1.3668    Y=             -0.0000    Z=             -0.0000  Tot=              1.3668
 Quadrupole moment (field-independent basis, Debye-Ang):
   XX=             -7.0672   YY=             -7.4598   ZZ=             -7.4598
   XY=             -0.0000   XZ=             -0.0000   YZ=             -0.0000

  Exact polarizability:      46.593      -0.000       2.149      -0.000       0.000       2.149
 Approx polarizability:      69.659       0.000       2.131       0.000       0.000       2.131

 ******    2 imaginary frequencies (negative Signs) ******

                      1                      2                      3
                      A                      A                      A
 Frequencies --  -1764.7671              -312.3841              1301.6778
 Red. masses --      1.0132                 1.1020                 1.0134
 Frc consts  --      1.8592                 0.0634                 1.0116
 IR Inten    --   1077.9836                 3.8766                 0.2008

                      4
                      A
 Frequencies --   1301.6778
 Red. masses --      1.0134
 Frc consts  --      1.0116
 IR Inten    --      0.2008

 - Thermochemistry -
 -------------------
 Temperature   298.150 Kelvin.  Pressure   1.00000 Atm.
 Atom     1 has atomic number  1 and mass   1.00783

 Molecular mass:    21.01405 amu.
 Principal axes and moments of inertia in atomic units:
                           1         2         3
     Eigenvalues --     0.00000  50.48149  50.48149
           X            1.00000  -0.00000   0.00000
           Y            0.00000   1.00000   0.00000
           Z            0.00000   0.00000   1.00000
 This molecule is a prolate symmetric top.
 Rotational symmetry number  1.
 Rotational temperature (Kelvin)      1.71576
 Rotational constant (GHZ):          35.750554
    2 imaginary frequencies ignored.
 Zero-point vibrational energy      15571.5 (Joules/Mol)
                                    3.72168 (Kcal/Mol)
 Vibrational temperatures:   1872.82  1872.82
          (Kelvin)

 Zero-point correction=                           0.005931 (Hartree/Particle)
 Thermal correction to Energy=                    0.008314
 Thermal correction to Enthalpy=                  0.009258
 Thermal correction to Gibbs Free Energy=        -0.013898
 Sum of electronic and zero-point Energies=           -100.855420
 Sum of electronic and thermal Energies=              -100.853038
 Sum of electronic and thermal Enthalpies=            -100.852094
 Sum of electronic and thermal Free Energies=         -100.875250

                     E (Thermal)             CV                S
                      KCal/Mol        Cal/Mol-Kelvin    Cal/Mol-Kelvin
 Total                    5.217              5.262             48.736
 Electronic               0.000              0.000              1.377
 Translational            0.889              2.981             35.068
 Rotational               0.592              1.987             12.237
 Vibrational              3.736              0.294              0.054

 Normal termination of Gaussian 16 at Fri Aug 22 16:59:29 2025.
