 Gaussian 16, Revision C.01,
 Gaussian 16:  ES64L-G16RevC.01  3-Jul-2019

 -----------------------------------------
 # sp b3lyp/6-311g** Force nosymm scf=(qc)
 -----------------------------------------

 -------------------
 Title Card Required
 -------------------
 Symbolic Z-matrix:
 Charge =  0 Multiplicity = 2

                          Input orientation:
 ---------------------------------------------------------------------
 Center     Atomic      Atomic             Coordinates (Angstroms)
 Number     Number       Type             X           Y           Z
 ---------------------------------------------------------------------
      1          1           0        0.000000    0.000000    0.000000
      2          1           0       -0.850000    0.000000    0.000000
      3          9           0        2.450000    0.000000    0.000000
 ---------------------------------------------------------------------

 SCF Done:  E(UB3LYP) =  -100.928005566     a.u. after    5 cycles

 Alpha  occ. eigenvalues --  -24.75853  -1.21779  -0.55096  -0.46169  -0.46169
 Alpha  occ. eigenvalues --   -0.42098
 Alpha virt. eigenvalues --    0.03905   0.20520   0.43869   0.89681   0.91042
 Alpha virt. eigenvalues --    0.91042   1.07384   1.07384   1.11647   1.48695
 Alpha virt. eigenvalues --    1.74719   1.74719   2.12147   2.38398   2.86608

  Beta  occ. eigenvalues --  -24.72743  -1.12851  -0.43055  -0.43055  -0.42048
  Beta virt. eigenvalues --   -0.26130   0.04406   0.20832   0.44184   0.92509
  Beta virt. eigenvalues --    0.92509   0.98072   1.07582   1.07582   1.15922
  Beta virt. eigenvalues --    1.49027   1.74846   1.74846   2.12344   2.38610

 Mulliken charges and spin densities:
               1          2
     1  H   -0.012123  -0.012132
     2  H    0.019707   0.029219
     3  F   -0.007584   0.982913
 Sum of Mulliken charges =   0.00000   1.00000

 Dipole moment (field-independent basis, Debye):
    X=             -0.1779    Y=              0.0000    Z=              0.0000  Tot=              0.1779
 Quadrupole moment (field-independent basis, Debye-Ang):
   XX=             -5.6930   YY=             -7.0758   ZZ=             -7.0758
   XY=              0.0000   XZ=              0.0000   YZ=             -0.0000

  Exact polarizability:      16.343       0.000       2.036      -0.000       0.000       2.036
 Approx polarizability:      18.010       0.000       2.105      -0.000       0.000       2.105

 ******    1 imaginary frequencies (negative Signs) ******

                      1                      2                      3
                      A                      A                      A
 Frequencies --   -152.9449              1300.8825              1300.8825
 Red. masses --      1.1085                 1.0100                 1.0100
 Frc consts  --      0.0153                 1.0070                 1.0070
 IR Inten    --      6.2850                 0.3281                 0.3281

                      4
                      A
 Frequencies --   3101.4924
 Red. masses --      1.0078
 Frc consts  --      5.7119
 IR Inten    --     64.0721

 - Thermochemistry -
 -------------------
 Temperature   298.150 Kelvin.  Pressure   1.00000 Atm.
 Atom     1 has atomic number  1 and mass   1.00783

 Molecular mass:    21.01405 amu.
 Principal axes and moments of inertia in atomic units:
                           1         2         3
     Eigenvalues --     0.00000  55.08944  55.08944
           X            1.00000  -0.00000   0.00000
           Y            0.00000   1.00000   0.00000
           Z            0.00000   0.00000   1.00000
 This molecule is a prolate symmetric top.
 Rotational symmetry number  1.
 Rotational temperature (Kelvin)      1.57224
 Rotational constant (GHZ):          32.760205
    1 imaginary frequencies ignored.
 Zero-point vibrational energy      34113.1 (Joules/Mol)
                                    8.15322 (Kcal/Mol)
 Vibrational temperatures:   1871.68  1871.68  4462.36
          (Kelvin)

 Zero-point correction=                           0.012993 (Hartree/Particle)
 Thermal correction to Energy=                    0.015376
 Thermal correction to Enthalpy=                  0.016320
 Thermal correction to Gibbs Free Energy=        -0.006919
 Sum of electronic and zero-point Energies=           -100.915013
 Sum of electronic and thermal Energies=              -100.912630
 Sum of electronic and thermal Enthalpies=            -100.911686
 Sum of electronic and thermal Free Energies=         -100.934924

                     E (Thermal)             CV                S
                      KCal/Mol        Cal/Mol-Kelvin    Cal/Mol-Kelvin
 Total                    9.648              5.263             48.910
 Electronic               0.000              0.000              1.377
 Translational            0.889              2.981             35.068
 Rotational               0.592              1.987             12.410
 Vibrational              8.167              0.295              0.054

 Normal termination of Gaussian 16 at Fri Aug 22 17:36:11 2025.
