 Gaussian 16, Revision C.01,
 Gaussian 16:  ES64L-G16RevC.01  3-Jul-2019

 -----------------------------------------
 # sp b3lyp/6-311g** Force nosymm scf=(qc)
 -----------------------------------------

 -------------------
 Title Card Required
 -------------------
 Symbolic Z-matrix:
 Charge =  0 Multiplicity = 2

                          Input orientation:
 ---------------------------------------------------------------------
 Center     Atomic      Atomic             Coordinates (Angstroms)
 Number     Number       Type             X           Y           Z
 ---------------------------------------------------------------------
      1          1           0        0.000000    0.000000    0.000000
      2          1           0       -3.850000    0.000000    0.000000
      3          9           0        3.750000    0.000000    0.000000
 ---------------------------------------------------------------------

 SCF Done:  E(UB3LYP) =  -100.758581463     a.u. after   35 cycles

 Alpha  occ. eigenvalues --  -24.75704  -1.21644  -0.54828  -0.46034  -0.46034
 Alpha  occ. eigenvalues --   -0.32256
 Alpha virt. eigenvalues --   -0.06202   0.24178   0.37627   0.86950   0.91282
 Alpha virt. eigenvalues --    0.91282   1.01330   1.25240   1.25240   1.25279
 Alpha virt. eigenvalues --    1.46231   1.46231   1.46460   2.14675   2.42207

  Beta  occ. eigenvalues --  -24.72570  -1.12633  -0.42892  -0.42892  -0.32570
  Beta virt. eigenvalues --   -0.25644  -0.05960   0.23963   0.38195   0.92778
  Beta virt. eigenvalues --    0.92778   0.96227   1.05413   1.24891   1.24891
  Beta virt. eigenvalues --    1.24913   1.46526   1.46661   1.46661   2.14717

 Mulliken charges and spin densities:
               1          2
     1  H    0.005551  -0.992923
     2  H    0.000042   0.999096
     3  F   -0.005594   0.993827
 Sum of Mulliken charges =  -0.00000   1.00000

 Dipole moment (field-independent basis, Debye):
    X=             -0.1090    Y=              0.0000    Z=             -0.0000  Tot=              0.1090
 Quadrupole moment (field-independent basis, Debye-Ang):
   XX=             -7.1141   YY=             -7.6194   ZZ=             -7.6194
   XY=              0.0000   XZ=             -0.0000   YZ=              0.0000

  Exact polarizability:      16.131      -0.000       2.032       0.000       0.000       2.032
 Approx polarizability:      11.952       0.000       1.936      -0.000      -0.000       1.936

 ******    2 imaginary frequencies (negative Signs) ******

                      1                      2                      3
                      A                      A                      A
 Frequencies --   -172.5750               -71.1247                53.8362
 Red. masses --      1.0309                 1.0818                 1.0183
 Frc consts  --      0.0181                 0.0032                 0.0017
 IR Inten    --      3.9002                 0.3500                 0.0306

                      4
                      A
 Frequencies --     53.8363
 Red. masses --      1.0183
 Frc consts  --      0.0017
 IR Inten    --      0.0306

 - Thermochemistry -
 -------------------
 Temperature   298.150 Kelvin.  Pressure   1.00000 Atm.
 Atom     1 has atomic number  1 and mass   1.00783

 Molecular mass:    21.01405 amu.
 Principal axes and moments of inertia in atomic units:
                           1         2         3
     Eigenvalues --     0.00000 236.25414 236.25414
           X            1.00000  -0.00000   0.00000
           Y            0.00000   1.00000   0.00000
           Z            0.00000   0.00000   1.00000
 This molecule is a prolate symmetric top.
 Rotational symmetry number  1.
 Rotational temperature (Kelvin)      0.36661
 Rotational constant (GHZ):           7.638982
    2 imaginary frequencies ignored.
 Zero-point vibrational energy        644.0 (Joules/Mol)
                                    0.15393 (Kcal/Mol)
 Warning -- explicit consideration of   2 degrees of freedom as
           vibrations may cause significant error
 Vibrational temperatures:     77.46    77.46
          (Kelvin)

 Zero-point correction=                           0.000245 (Hartree/Particle)
 Thermal correction to Energy=                    0.004259
 Thermal correction to Enthalpy=                  0.005204
 Thermal correction to Gibbs Free Energy=        -0.023823
 Sum of electronic and zero-point Energies=           -100.758336
 Sum of electronic and thermal Energies=              -100.754322
 Sum of electronic and thermal Enthalpies=            -100.753378
 Sum of electronic and thermal Free Energies=         -100.782404

                     E (Thermal)             CV                S
                      KCal/Mol        Cal/Mol-Kelvin    Cal/Mol-Kelvin
 Total                    2.673              8.920             61.091
 Electronic               0.000              0.000              1.377
 Translational            0.889              2.981             35.068
 Rotational               0.592              1.987             15.304
 Vibrational              1.192              3.952              9.342
 Vibration     1          0.596              1.976              4.671
 Vibration     2          0.596              1.976              4.671

 Normal termination of Gaussian 16 at Sat Aug 23 00:28:31 2025.
