 Gaussian 16, Revision C.01,
 Gaussian 16:  ES64L-G16RevC.01  3-Jul-2019

 -----------------------------------------
 # sp b3lyp/6-311g** Force nosymm scf=(qc)
 -----------------------------------------

 -------------------
 Title Card Required
 -------------------
 Symbolic Z-matrix:
 Charge =  0 Multiplicity = 2

                          Input orientation:
 ---------------------------------------------------------------------
 Center     Atomic      Atomic             Coordinates (Angstroms)
 Number     Number       Type             X           Y           Z
 ---------------------------------------------------------------------
      1          1           0        0.000000    0.000000    0.000000
      2          1           0       -0.500000    0.000000    0.000000
      3          9           0        2.600000    0.000000    0.000000
 ---------------------------------------------------------------------

 SCF Done:  E(UB3LYP) =  -100.862229674     a.u. after  400 cycles

 Alpha  occ. eigenvalues --  -24.76732  -1.22510  -0.55694  -0.49325  -0.46841
 Alpha  occ. eigenvalues --   -0.46583
 Alpha virt. eigenvalues --    0.11066   0.19030   0.57159   0.85780   0.90646
 Alpha virt. eigenvalues --    0.93820   1.12344   1.12362   1.12502   1.61853
 Alpha virt. eigenvalues --    1.85609   1.99880   1.99901   2.38276   3.64578

  Beta  occ. eigenvalues --  -24.73568  -1.13417  -0.49147  -0.43668  -0.43584
  Beta virt. eigenvalues --   -0.26307   0.11167   0.19106   0.57271   0.92142
  Beta virt. eigenvalues --    0.95225   0.95727   1.12350   1.12362   1.16029
  Beta virt. eigenvalues --    1.61868   1.85618   1.99880   1.99899   2.38293

 Mulliken charges and spin densities:
               1          2
     1  H   -0.013202  -0.002835
     2  H   -0.001559   0.000567
     3  F    0.014761   1.002268
 Sum of Mulliken charges =   0.00000   1.00000

 Dipole moment (field-independent basis, Debye):
    X=              0.1240    Y=              0.0000    Z=              0.0000  Tot=              0.1240
 Quadrupole moment (field-independent basis, Debye-Ang):
   XX=             -5.9384   YY=             -5.8721   ZZ=             -6.4622
   XY=              0.0000   XZ=             -0.0000   YZ=             -0.3150

  Exact polarizability:       5.967       0.000       2.206      -0.000      -0.163       1.901
 Approx polarizability:       6.203       0.000       2.386      -0.000      -0.205       2.002

 ******    2 imaginary frequencies (negative Signs) ******

                      1                      2                      3
                      A                      A                      A
 Frequencies --  -4819.1234             -4816.9495               181.0526
 Red. masses --      1.0086                 1.0086                 1.1085
 Frc consts  --     13.8008                13.7884                 0.0214
 IR Inten    --      0.1593                 0.1717                 0.2261

                      4
                      A
 Frequencies --   9960.6024
 Red. masses --      1.0078
 Frc consts  --     58.9124
 IR Inten    --      1.1641

 - Thermochemistry -
 -------------------
 Temperature   298.150 Kelvin.  Pressure   1.00000 Atm.
 Atom     1 has atomic number  1 and mass   1.00783

 Molecular mass:    21.01405 amu.
 Principal axes and moments of inertia in atomic units:
                           1         2         3
     Eigenvalues --     0.00000  53.30777  53.30777
           X            1.00000  -0.00000   0.00000
           Y            0.00000   1.00000   0.00000
           Z            0.00000   0.00000   1.00000
 This molecule is a prolate symmetric top.
 Rotational symmetry number  1.
 Rotational temperature (Kelvin)      1.62479
 Rotational constant (GHZ):          33.855124
    2 imaginary frequencies ignored.
 Zero-point vibrational energy      60660.6 (Joules/Mol)
                                   14.49822 (Kcal/Mol)
 Warning -- explicit consideration of   1 degrees of freedom as
           vibrations may cause significant error
 Vibrational temperatures:    260.49 14331.09
          (Kelvin)

 Zero-point correction=                           0.023104 (Hartree/Particle)
 Thermal correction to Energy=                    0.026056
 Thermal correction to Enthalpy=                  0.027000
 Thermal correction to Gibbs Free Energy=         0.002717
 Sum of electronic and zero-point Energies=           -100.839125
 Sum of electronic and thermal Energies=              -100.836174
 Sum of electronic and thermal Enthalpies=            -100.835230
 Sum of electronic and thermal Free Energies=         -100.859513

                     E (Thermal)             CV                S
                      KCal/Mol        Cal/Mol-Kelvin    Cal/Mol-Kelvin
 Total                   16.350              6.833             51.108
 Electronic               0.000              0.000              1.377
 Translational            0.889              2.981             35.068
 Rotational               0.592              1.987             12.345
 Vibrational             14.869              1.865              2.318
 Vibration     1          0.630              1.865              2.318

 Normal termination of Gaussian 16 at Fri Aug 22 17:57:10 2025.
