 Gaussian 16, Revision C.01,
 Gaussian 16:  ES64L-G16RevC.01  3-Jul-2019

 -----------------------------------------
 # sp b3lyp/6-311g** Force nosymm scf=(qc)
 -----------------------------------------

 -------------------
 Title Card Required
 -------------------
 Symbolic Z-matrix:
 Charge =  0 Multiplicity = 2

                          Input orientation:
 ---------------------------------------------------------------------
 Center     Atomic      Atomic             Coordinates (Angstroms)
 Number     Number       Type             X           Y           Z
 ---------------------------------------------------------------------
      1          1           0        0.000000    0.000000    0.000000
      2          1           0       -1.450000    0.000000    0.000000
      3          9           0        0.750000    0.000000    0.000000
 ---------------------------------------------------------------------

 SCF Done:  E(UB3LYP) =  -100.916108337     a.u. after    6 cycles

 Alpha  occ. eigenvalues --  -24.63392  -1.25680  -0.58465  -0.41200  -0.41200
 Alpha  occ. eigenvalues --   -0.36201
 Alpha virt. eigenvalues --    0.13232   0.21291   0.50026   0.93520   0.93520
 Alpha virt. eigenvalues --    0.95918   1.16054   1.16054   1.33849   1.47442
 Alpha virt. eigenvalues --    1.47442   1.57212   2.04250   2.17963   3.01095

  Beta  occ. eigenvalues --  -24.63229  -1.25230  -0.57447  -0.41069  -0.41069
  Beta virt. eigenvalues --   -0.13188   0.14566   0.28728   0.54325   0.93737
  Beta virt. eigenvalues --    0.93737   0.96274   1.28112   1.28112   1.39480
  Beta virt. eigenvalues --    1.52586   1.52586   1.64932   2.05012   2.38345

 Mulliken charges and spin densities:
               1          2
     1  H    0.251230   0.012433
     2  H    0.015445   0.957775
     3  F   -0.266675   0.029792
 Sum of Mulliken charges =   0.00000   1.00000

 Dipole moment (field-independent basis, Debye):
    X=             -1.7343    Y=              0.0000    Z=             -0.0000  Tot=              1.7343
 Quadrupole moment (field-independent basis, Debye-Ang):
   XX=             -7.1997   YY=             -6.6118   ZZ=             -6.6118
   XY=              0.0000   XZ=             -0.0000   YZ=              0.0000

  Exact polarizability:       8.085      -0.000       2.548       0.000      -0.000       2.548
 Approx polarizability:       7.981      -0.000       2.561      -0.000      -0.000       2.561

 ******    2 imaginary frequencies (negative Signs) ******

                      1                      2                      3
                      A                      A                      A
 Frequencies --  -2655.2133             -2655.2133               848.0183
 Red. masses --      1.0275                 1.0275                 1.0535
 Frc consts  --      4.2681                 4.2681                 0.4464
 IR Inten    --    138.6017               138.6017                 4.0097

                      4
                      A
 Frequencies --   7543.3377
 Red. masses --      1.0581
 Frc consts  --     35.4735
 IR Inten    --    158.9207

 - Thermochemistry -
 -------------------
 Temperature   298.150 Kelvin.  Pressure   1.00000 Atm.
 Atom     1 has atomic number  1 and mass   1.00783

 Molecular mass:    21.01405 amu.
 Principal axes and moments of inertia in atomic units:
                           1         2         3
     Eigenvalues --     0.00000  17.94153  17.94153
           X            1.00000  -0.00000   0.00000
           Y            0.00000   1.00000   0.00000
           Z            0.00000   0.00000   1.00000
 This molecule is a prolate symmetric top.
 Rotational symmetry number  1.
 Rotational temperature (Kelvin)      4.82757
 Rotational constant (GHZ):         100.590140
    2 imaginary frequencies ignored.
 Zero-point vibrational energy      50191.5 (Joules/Mol)
                                   11.99605 (Kcal/Mol)
 Vibrational temperatures:   1220.11 10853.18
          (Kelvin)

 Zero-point correction=                           0.019117 (Hartree/Particle)
 Thermal correction to Energy=                    0.021543
 Thermal correction to Enthalpy=                  0.022487
 Thermal correction to Gibbs Free Energy=         0.000252
 Sum of electronic and zero-point Energies=           -100.896991
 Sum of electronic and thermal Energies=              -100.894565
 Sum of electronic and thermal Enthalpies=            -100.893621
 Sum of electronic and thermal Free Energies=         -100.915856

                     E (Thermal)             CV                S
                      KCal/Mol        Cal/Mol-Kelvin    Cal/Mol-Kelvin
 Total                   13.518              5.543             46.798
 Electronic               0.000              0.000              1.377
 Translational            0.889              2.981             35.068
 Rotational               0.592              1.987             10.181
 Vibrational             12.037              0.575              0.172

 Normal termination of Gaussian 16 at Fri Aug 22 15:48:22 2025.
