 Gaussian 16, Revision C.01,
 Gaussian 16:  ES64L-G16RevC.01  3-Jul-2019

 -----------------------------------------
 # sp b3lyp/6-311g** Force nosymm scf=(qc)
 -----------------------------------------

 -------------------
 Title Card Required
 -------------------
 Symbolic Z-matrix:
 Charge =  0 Multiplicity = 2

                          Input orientation:
 ---------------------------------------------------------------------
 Center     Atomic      Atomic             Coordinates (Angstroms)
 Number     Number       Type             X           Y           Z
 ---------------------------------------------------------------------
      1          1           0        0.000000    0.000000    0.000000
      2          1           0       -3.700000    0.000000    0.000000
      3          9           0        2.550000    0.000000    0.000000
 ---------------------------------------------------------------------

 SCF Done:  E(UB3LYP) =  -100.766347047     a.u. after   23 cycles

 Alpha  occ. eigenvalues --  -24.72020  -1.18220  -0.51126  -0.42946  -0.42946
 Alpha  occ. eigenvalues --   -0.32784
 Alpha virt. eigenvalues --   -0.09914   0.23480   0.35425   0.89759   0.93464
 Alpha virt. eigenvalues --    0.93464   1.06116   1.24720   1.24720   1.24790
 Alpha virt. eigenvalues --    1.40964   1.40964   1.44468   2.14296   2.37516

  Beta  occ. eigenvalues --  -24.69153  -1.10052  -0.40087  -0.40087  -0.35156
  Beta virt. eigenvalues --   -0.23521  -0.06403   0.23802   0.38052   0.94847
  Beta virt. eigenvalues --    0.94847   0.96513   1.08598   1.22245   1.22245
  Beta virt. eigenvalues --    1.28361   1.46103   1.46342   1.46342   2.12807

 Mulliken charges and spin densities:
               1          2
     1  H    0.083010  -0.905037
     2  H    0.000502   0.998740
     3  F   -0.083512   0.906297
 Sum of Mulliken charges =  -0.00000   1.00000

 Dipole moment (field-independent basis, Debye):
    X=             -1.0939    Y=              0.0000    Z=              0.0000  Tot=              1.0939
 Quadrupole moment (field-independent basis, Debye-Ang):
   XX=             -9.2371   YY=             -7.5743   ZZ=             -7.5743
   XY=              0.0000   XZ=              0.0000   YZ=             -0.0000

  Exact polarizability:      30.679       0.000       2.025      -0.000      -0.000       2.025
 Approx polarizability:      38.333       0.000       1.921       0.000       0.000       1.921

 ******    2 imaginary frequencies (negative Signs) ******

                      1                      2                      3
                      A                      A                      A
 Frequencies --   -583.5810               -96.6405               225.8241
 Red. masses --      1.0554                 1.0562                 1.0230
 Frc consts  --      0.2118                 0.0058                 0.0307
 IR Inten    --     76.1604                 0.1271                 6.6557

                      4
                      A
 Frequencies --    225.8241
 Red. masses --      1.0230
 Frc consts  --      0.0307
 IR Inten    --      6.6557

 - Thermochemistry -
 -------------------
 Temperature   298.150 Kelvin.  Pressure   1.00000 Atm.
 Atom     1 has atomic number  1 and mass   1.00783

 Molecular mass:    21.01405 amu.
 Principal axes and moments of inertia in atomic units:
                           1         2         3
     Eigenvalues --     0.00000 150.62214 150.62214
           X            1.00000  -0.00000   0.00000
           Y            0.00000   1.00000   0.00000
           Z            0.00000   0.00000   1.00000
 This molecule is a prolate symmetric top.
 Rotational symmetry number  1.
 Rotational temperature (Kelvin)      0.57504
 Rotational constant (GHZ):          11.981911
    2 imaginary frequencies ignored.
 Zero-point vibrational energy       2701.5 (Joules/Mol)
                                    0.64566 (Kcal/Mol)
 Warning -- explicit consideration of   2 degrees of freedom as
           vibrations may cause significant error
 Vibrational temperatures:    324.91   324.91
          (Kelvin)

 Zero-point correction=                           0.001029 (Hartree/Particle)
 Thermal correction to Energy=                    0.004432
 Thermal correction to Enthalpy=                  0.005376
 Thermal correction to Gibbs Free Energy=        -0.020603
 Sum of electronic and zero-point Energies=           -100.765318
 Sum of electronic and thermal Energies=              -100.761915
 Sum of electronic and thermal Enthalpies=            -100.760971
 Sum of electronic and thermal Free Energies=         -100.786950

                     E (Thermal)             CV                S
                      KCal/Mol        Cal/Mol-Kelvin    Cal/Mol-Kelvin
 Total                    2.781              8.571             54.678
 Electronic               0.000              0.000              1.377
 Translational            0.889              2.981             35.068
 Rotational               0.592              1.987             14.409
 Vibrational              1.300              3.603              3.824
 Vibration     1          0.650              1.802              1.912
 Vibration     2          0.650              1.802              1.912

 Normal termination of Gaussian 16 at Fri Aug 22 17:55:30 2025.
