 Gaussian 16, Revision C.01,
 Gaussian 16:  ES64L-G16RevC.01  3-Jul-2019

 -----------------------------------------
 # sp b3lyp/6-311g** Force nosymm scf=(qc)
 -----------------------------------------

 -------------------
 Title Card Required
 -------------------
 Symbolic Z-matrix:
 Charge =  0 Multiplicity = 2

                          Input orientation:
 ---------------------------------------------------------------------
 Center     Atomic      Atomic             Coordinates (Angstroms)
 Number     Number       Type             X           Y           Z
 ---------------------------------------------------------------------
      1          1           0        0.000000    0.000000    0.000000
      2          1           0       -1.700000    0.000000    0.000000
      3          9           0        0.700000    0.000000    0.000000
 ---------------------------------------------------------------------

 SCF Done:  E(UB3LYP) =  -100.872533076     a.u. after    6 cycles

 Alpha  occ. eigenvalues --  -24.63084  -1.28225  -0.58945  -0.41681  -0.41681
 Alpha  occ. eigenvalues --   -0.35822
 Alpha virt. eigenvalues --    0.11999   0.22763   0.50283   0.93470   0.93470
 Alpha virt. eigenvalues --    0.95996   1.20284   1.20284   1.25655   1.45459
 Alpha virt. eigenvalues --    1.45459   1.57415   2.01720   2.15871   2.96831

  Beta  occ. eigenvalues --  -24.63009  -1.28012  -0.58537  -0.41625  -0.41625
  Beta virt. eigenvalues --   -0.11653   0.13429   0.31899   0.53133   0.93513
  Beta virt. eigenvalues --    0.93513   0.96168   1.33511   1.36339   1.36339
  Beta virt. eigenvalues --    1.48402   1.48402   1.65109   2.03787   2.37841

 Mulliken charges and spin densities:
               1          2
     1  H    0.243980   0.013240
     2  H    0.013478   0.974727
     3  F   -0.257458   0.012033
 Sum of Mulliken charges =   0.00000   1.00000

 Dipole moment (field-independent basis, Debye):
    X=             -1.6758    Y=              0.0000    Z=             -0.0000  Tot=              1.6758
 Quadrupole moment (field-independent basis, Debye-Ang):
   XX=             -7.0230   YY=             -6.5991   ZZ=             -6.5991
   XY=              0.0000   XZ=             -0.0000   YZ=              0.0000

  Exact polarizability:       7.043       0.000       2.519      -0.000      -0.000       2.519
 Approx polarizability:       6.885      -0.000       2.521       0.000      -0.000       2.521

 ******    2 imaginary frequencies (negative Signs) ******

                      1                      2                      3
                      A                      A                      A
 Frequencies --  -3483.4130             -3483.4130               580.2807
 Red. masses --      1.0312                 1.0312                 1.0534
 Frc consts  --      7.3723                 7.3723                 0.2090
 IR Inten    --    163.4996               163.4996                 0.2886

                      4
                      A
 Frequencies --   9062.2899
 Red. masses --      1.0582
 Frc consts  --     51.2027
 IR Inten    --    149.4199

 - Thermochemistry -
 -------------------
 Temperature   298.150 Kelvin.  Pressure   1.00000 Atm.
 Atom     1 has atomic number  1 and mass   1.00783

 Molecular mass:    21.01405 amu.
 Principal axes and moments of inertia in atomic units:
                           1         2         3
     Eigenvalues --     0.00000  20.83505  20.83505
           X            1.00000  -0.00000   0.00000
           Y            0.00000   1.00000   0.00000
           Z            0.00000   0.00000   1.00000
 This molecule is a prolate symmetric top.
 Rotational symmetry number  1.
 Rotational temperature (Kelvin)      4.15713
 Rotational constant (GHZ):          86.620436
    2 imaginary frequencies ignored.
 Zero-point vibrational energy      57675.4 (Joules/Mol)
                                   13.78475 (Kcal/Mol)
 Warning -- explicit consideration of   1 degrees of freedom as
           vibrations may cause significant error
 Vibrational temperatures:    834.89 13038.61
          (Kelvin)

 Zero-point correction=                           0.021967 (Hartree/Particle)
 Thermal correction to Energy=                    0.024499
 Thermal correction to Enthalpy=                  0.025443
 Thermal correction to Gibbs Free Energy=         0.002918
 Sum of electronic and zero-point Energies=           -100.850566
 Sum of electronic and thermal Energies=              -100.848034
 Sum of electronic and thermal Enthalpies=            -100.847090
 Sum of electronic and thermal Free Energies=         -100.869615

                     E (Thermal)             CV                S
                      KCal/Mol        Cal/Mol-Kelvin    Cal/Mol-Kelvin
 Total                   15.373              6.042             47.408
 Electronic               0.000              0.000              1.377
 Translational            0.889              2.981             35.068
 Rotational               0.592              1.987             10.478
 Vibrational             13.892              1.074              0.485
 Vibration     1          0.937              1.074              0.485

 Normal termination of Gaussian 16 at Fri Aug 22 15:46:13 2025.
