 Gaussian 16, Revision C.01,
 Gaussian 16:  ES64L-G16RevC.01  3-Jul-2019

 -----------------------------------------
 # sp b3lyp/6-311g** Force nosymm scf=(qc)
 -----------------------------------------

 -------------------
 Title Card Required
 -------------------
 Symbolic Z-matrix:
 Charge =  0 Multiplicity = 2

                          Input orientation:
 ---------------------------------------------------------------------
 Center     Atomic      Atomic             Coordinates (Angstroms)
 Number     Number       Type             X           Y           Z
 ---------------------------------------------------------------------
      1          1           0        0.000000    0.000000    0.000000
      2          1           0       -0.850000    0.000000    0.000000
      3          9           0        3.850000    0.000000    0.000000
 ---------------------------------------------------------------------

 SCF Done:  E(UB3LYP) =  -100.927669574     a.u. after   77 cycles

 Alpha  occ. eigenvalues --  -24.76214  -1.22105  -0.55308  -0.46486  -0.46464
 Alpha  occ. eigenvalues --   -0.41281
 Alpha virt. eigenvalues --    0.03680   0.20428   0.43219   0.86067   0.90945
 Alpha virt. eigenvalues --    0.91758   1.01105   1.08224   1.08226   1.48897
 Alpha virt. eigenvalues --    1.75562   1.75565   2.11114   2.37670   2.87592

  Beta  occ. eigenvalues --  -24.73058  -1.13030  -0.43325  -0.43300  -0.41277
  Beta virt. eigenvalues --   -0.25956   0.03684   0.20432   0.43242   0.92445
  Beta virt. eigenvalues --    0.93249   0.95533   1.05240   1.08224   1.08226
  Beta virt. eigenvalues --    1.48899   1.75562   1.75565   2.11120   2.37671

 Mulliken charges and spin densities:
               1          2
     1  H    0.000309  -0.000161
     2  H   -0.001888  -0.000011
     3  F    0.001579   1.000172
 Sum of Mulliken charges =   0.00000   1.00000

 Dipole moment (field-independent basis, Debye):
    X=              0.0250    Y=             -0.0000    Z=             -0.0000  Tot=              0.0250
 Quadrupole moment (field-independent basis, Debye-Ang):
   XX=             -6.3073   YY=             -6.9345   ZZ=             -6.3714
   XY=              0.0000   XZ=              0.0000   YZ=              0.3280

  Exact polarizability:       9.508       0.000       2.087       0.000       0.177       2.391
 Approx polarizability:      11.555       0.000       2.175       0.000       0.221       2.554

 ******    1 imaginary frequencies (negative Signs) ******

                      1                      2                      3
                      A                      A                      A
 Frequencies --    -50.5298              1323.0547              1325.0317
 Red. masses --      1.1085                 1.0088                 1.0088
 Frc consts  --      0.0017                 1.0404                 1.0436
 IR Inten    --      0.0572                 0.0005                 0.0002

                      4
                      A
 Frequencies --   3135.8730
 Red. masses --      1.0078
 Frc consts  --      5.8392
 IR Inten    --      0.0407

 - Thermochemistry -
 -------------------
 Temperature   298.150 Kelvin.  Pressure   1.00000 Atm.
 Atom     1 has atomic number  1 and mass   1.00783

 Molecular mass:    21.01405 amu.
 Principal axes and moments of inertia in atomic units:
                           1         2         3
     Eigenvalues --     0.00000 120.23041 120.23041
           X            1.00000  -0.00000   0.00000
           Y            0.00000   1.00000   0.00000
           Z            0.00000   0.00000   1.00000
 This molecule is a prolate symmetric top.
 Rotational symmetry number  1.
 Rotational temperature (Kelvin)      0.72040
 Rotational constant (GHZ):          15.010689
    1 imaginary frequencies ignored.
 Zero-point vibrational energy      34595.8 (Joules/Mol)
                                    8.26858 (Kcal/Mol)
 Vibrational temperatures:   1903.58  1906.43  4511.82
          (Kelvin)

 Zero-point correction=                           0.013177 (Hartree/Particle)
 Thermal correction to Energy=                    0.015558
 Thermal correction to Enthalpy=                  0.016502
 Thermal correction to Gibbs Free Energy=        -0.007472
 Sum of electronic and zero-point Energies=           -100.914493
 Sum of electronic and thermal Energies=              -100.912112
 Sum of electronic and thermal Enthalpies=            -100.911168
 Sum of electronic and thermal Free Energies=         -100.935141

                     E (Thermal)             CV                S
                      KCal/Mol        Cal/Mol-Kelvin    Cal/Mol-Kelvin
 Total                    9.763              5.242             50.456
 Electronic               0.000              0.000              1.377
 Translational            0.889              2.981             35.068
 Rotational               0.592              1.987             13.961
 Vibrational              8.281              0.274              0.049

 Normal termination of Gaussian 16 at Sat Aug 23 00:55:56 2025.
