 Gaussian 16, Revision C.01,
 Gaussian 16:  ES64L-G16RevC.01  3-Jul-2019

 -----------------------------------------
 # sp b3lyp/6-311g** Force nosymm scf=(qc)
 -----------------------------------------

 -------------------
 Title Card Required
 -------------------
 Symbolic Z-matrix:
 Charge =  0 Multiplicity = 2

                          Input orientation:
 ---------------------------------------------------------------------
 Center     Atomic      Atomic             Coordinates (Angstroms)
 Number     Number       Type             X           Y           Z
 ---------------------------------------------------------------------
      1          1           0        0.000000    0.000000    0.000000
      2          1           0       -1.200000    0.000000    0.000000
      3          9           0        1.950000    0.000000    0.000000
 ---------------------------------------------------------------------

 SCF Done:  E(UB3LYP) =  -100.879580411     a.u. after   14 cycles

 Alpha  occ. eigenvalues --  -24.71766  -1.18086  -0.51630  -0.42835  -0.42835
 Alpha  occ. eigenvalues --   -0.39435
 Alpha virt. eigenvalues --   -0.04447   0.21612   0.33624   0.89367   0.92214
 Alpha virt. eigenvalues --    0.92214   1.06113   1.10167   1.10167   1.40385
 Alpha virt. eigenvalues --    1.51697   1.51697   2.07585   2.28160   2.53602

  Beta  occ. eigenvalues --  -24.69017  -1.10327  -0.40109  -0.40109  -0.39212
  Beta virt. eigenvalues --   -0.24645  -0.02701   0.22721   0.34133   0.93390
  Beta virt. eigenvalues --    0.93390   0.95719   1.09190   1.11666   1.11666
  Beta virt. eigenvalues --    1.43738   1.52673   1.52673   2.09389   2.29560

 Mulliken charges and spin densities:
               1          2
     1  H    0.053754  -0.129557
     2  H    0.053952   0.268766
     3  F   -0.107707   0.860790
 Sum of Mulliken charges =  -0.00000   1.00000

 Dipole moment (field-independent basis, Debye):
    X=             -1.3327    Y=              0.0000    Z=              0.0000  Tot=              1.3327
 Quadrupole moment (field-independent basis, Debye-Ang):
   XX=             -7.0039   YY=             -7.3607   ZZ=             -7.3607
   XY=              0.0000   XZ=              0.0000   YZ=             -0.0000

  Exact polarizability:      41.025       0.000       2.187       0.000      -0.000       2.187
 Approx polarizability:      60.151      -0.000       2.177      -0.000       0.000       2.177

 ******    2 imaginary frequencies (negative Signs) ******

                      1                      2                      3
                      A                      A                      A
 Frequencies --  -1536.9963               -85.3912              1366.3495
 Red. masses --      1.0189                 1.0954                 1.0131
 Frc consts  --      1.4182                 0.0047                 1.1144
 IR Inten    --   1066.9480                 2.4057                 0.2203

                      4
                      A
 Frequencies --   1366.3495
 Red. masses --      1.0131
 Frc consts  --      1.1144
 IR Inten    --      0.2203

 - Thermochemistry -
 -------------------
 Temperature   298.150 Kelvin.  Pressure   1.00000 Atm.
 Atom     1 has atomic number  1 and mass   1.00783

 Molecular mass:    21.01405 amu.
 Principal axes and moments of inertia in atomic units:
                           1         2         3
     Eigenvalues --     0.00000  44.90689  44.90689
           X            1.00000  -0.00000   0.00000
           Y            0.00000   1.00000   0.00000
           Z            0.00000   0.00000   1.00000
 This molecule is a prolate symmetric top.
 Rotational symmetry number  1.
 Rotational temperature (Kelvin)      1.92874
 Rotational constant (GHZ):          40.188518
    2 imaginary frequencies ignored.
 Zero-point vibrational energy      16345.2 (Joules/Mol)
                                    3.90659 (Kcal/Mol)
 Vibrational temperatures:   1965.87  1965.87
          (Kelvin)

 Zero-point correction=                           0.006226 (Hartree/Particle)
 Thermal correction to Energy=                    0.008603
 Thermal correction to Enthalpy=                  0.009547
 Thermal correction to Gibbs Free Energy=        -0.013492
 Sum of electronic and zero-point Energies=           -100.873355
 Sum of electronic and thermal Energies=              -100.870977
 Sum of electronic and thermal Enthalpies=            -100.870033
 Sum of electronic and thermal Free Energies=         -100.893073

                     E (Thermal)             CV                S
                      KCal/Mol        Cal/Mol-Kelvin    Cal/Mol-Kelvin
 Total                    5.399              5.205             48.491
 Electronic               0.000              0.000              1.377
 Translational            0.889              2.981             35.068
 Rotational               0.592              1.987             12.004
 Vibrational              3.917              0.237              0.041

 Normal termination of Gaussian 16 at Fri Aug 22 16:52:33 2025.
