 Gaussian 16, Revision C.01,
 Gaussian 16:  ES64L-G16RevC.01  3-Jul-2019

 -----------------------------------------
 # sp b3lyp/6-311g** Force nosymm scf=(qc)
 -----------------------------------------

 -------------------
 Title Card Required
 -------------------
 Symbolic Z-matrix:
 Charge =  0 Multiplicity = 2

                          Input orientation:
 ---------------------------------------------------------------------
 Center     Atomic      Atomic             Coordinates (Angstroms)
 Number     Number       Type             X           Y           Z
 ---------------------------------------------------------------------
      1          1           0        0.000000    0.000000    0.000000
      2          1           0       -3.250000    0.000000    0.000000
      3          9           0        2.300000    0.000000    0.000000
 ---------------------------------------------------------------------

 SCF Done:  E(UB3LYP) =  -100.773171208     a.u. after   13 cycles

 Alpha  occ. eigenvalues --  -24.70471  -1.16752  -0.49549  -0.41649  -0.41649
 Alpha  occ. eigenvalues --   -0.33252
 Alpha virt. eigenvalues --   -0.11641   0.23351   0.34134   0.88894   0.94226
 Alpha virt. eigenvalues --    0.94226   1.06309   1.24271   1.24271   1.24661
 Alpha virt. eigenvalues --    1.38561   1.38561   1.48503   2.14582   2.33671

  Beta  occ. eigenvalues --  -24.67759  -1.09073  -0.38954  -0.38954  -0.36254
  Beta virt. eigenvalues --   -0.22478  -0.07358   0.23917   0.37457   0.93130
  Beta virt. eigenvalues --    0.95443   0.95443   1.08408   1.21628   1.21628
  Beta virt. eigenvalues --    1.37017   1.45206   1.45304   1.45304   2.12484

 Mulliken charges and spin densities:
               1          2
     1  H    0.121577  -0.851161
     2  H    0.002152   0.995952
     3  F   -0.123730   0.855209
 Sum of Mulliken charges =  -0.00000   1.00000

 Dipole moment (field-independent basis, Debye):
    X=             -1.4679    Y=              0.0000    Z=             -0.0000  Tot=              1.4679
 Quadrupole moment (field-independent basis, Debye-Ang):
   XX=             -9.5761   YY=             -7.5491   ZZ=             -7.5491
   XY=              0.0000   XZ=             -0.0000   YZ=              0.0000

  Exact polarizability:      30.488       0.000       2.032      -0.000      -0.000       2.032
 Approx polarizability:      39.833       0.000       1.923      -0.000      -0.000       1.923

 ******    2 imaginary frequencies (negative Signs) ******

                      1                      2                      3
                      A                      A                      A
 Frequencies --   -777.6429              -162.0087               317.3765
 Red. masses --      1.0535                 1.0580                 1.0226
 Frc consts  --      0.3754                 0.0164                 0.0607
 IR Inten    --     95.9080                 0.7942                13.8086

                      4
                      A
 Frequencies --    317.3765
 Red. masses --      1.0226
 Frc consts  --      0.0607
 IR Inten    --     13.8086

 - Thermochemistry -
 -------------------
 Temperature   298.150 Kelvin.  Pressure   1.00000 Atm.
 Atom     1 has atomic number  1 and mass   1.00783

 Molecular mass:    21.01405 amu.
 Principal axes and moments of inertia in atomic units:
                           1         2         3
     Eigenvalues --     0.00000 119.26075 119.26075
           X            1.00000  -0.00000   0.00000
           Y            0.00000   1.00000   0.00000
           Z            0.00000   0.00000   1.00000
 This molecule is a prolate symmetric top.
 Rotational symmetry number  1.
 Rotational temperature (Kelvin)      0.72626
 Rotational constant (GHZ):          15.132734
    2 imaginary frequencies ignored.
 Zero-point vibrational energy       3796.7 (Joules/Mol)
                                    0.90743 (Kcal/Mol)
 Warning -- explicit consideration of   2 degrees of freedom as
           vibrations may cause significant error
 Vibrational temperatures:    456.63   456.63
          (Kelvin)

 Zero-point correction=                           0.001446 (Hartree/Particle)
 Thermal correction to Energy=                    0.004604
 Thermal correction to Enthalpy=                  0.005548
 Thermal correction to Gibbs Free Energy=        -0.019651
 Sum of electronic and zero-point Energies=           -100.771725
 Sum of electronic and thermal Energies=              -100.768567
 Sum of electronic and thermal Enthalpies=            -100.767623
 Sum of electronic and thermal Free Energies=         -100.792823

                     E (Thermal)             CV                S
                      KCal/Mol        Cal/Mol-Kelvin    Cal/Mol-Kelvin
 Total                    2.889              8.249             53.038
 Electronic               0.000              0.000              1.377
 Translational            0.889              2.981             35.068
 Rotational               0.592              1.987             13.945
 Vibrational              1.408              3.281              2.647
 Vibration     1          0.704              1.640              1.324
 Vibration     2          0.704              1.640              1.324

 Normal termination of Gaussian 16 at Fri Aug 22 17:23:01 2025.
