 Gaussian 16, Revision C.01,
 Gaussian 16:  ES64L-G16RevC.01  3-Jul-2019

 -----------------------------------------
 # sp b3lyp/6-311g** Force nosymm scf=(qc)
 -----------------------------------------

 -------------------
 Title Card Required
 -------------------
 Symbolic Z-matrix:
 Charge =  0 Multiplicity = 2

                          Input orientation:
 ---------------------------------------------------------------------
 Center     Atomic      Atomic             Coordinates (Angstroms)
 Number     Number       Type             X           Y           Z
 ---------------------------------------------------------------------
      1          1           0        0.000000    0.000000    0.000000
      2          1           0       -3.350000    0.000000    0.000000
      3          9           0        2.850000    0.000000    0.000000
 ---------------------------------------------------------------------

 SCF Done:  E(UB3LYP) =  -100.762459740     a.u. after   21 cycles

 Alpha  occ. eigenvalues --  -24.73501  -1.19603  -0.52618  -0.44185  -0.44185
 Alpha  occ. eigenvalues --   -0.32681
 Alpha virt. eigenvalues --   -0.08885   0.24037   0.35701   0.89816   0.92623
 Alpha virt. eigenvalues --    0.92623   1.04797   1.24832   1.24832   1.25117
 Alpha virt. eigenvalues --    1.42995   1.42995   1.43548   2.14934   2.38821

  Beta  occ. eigenvalues --  -24.70516  -1.11060  -0.41200  -0.41200  -0.34142
  Beta virt. eigenvalues --   -0.24436  -0.06893   0.24158   0.37626   0.94070
  Beta virt. eigenvalues --    0.94070   0.98213   1.08334   1.23183   1.23183
  Beta virt. eigenvalues --    1.24422   1.45461   1.45722   1.45722   2.14835

 Mulliken charges and spin densities:
               1          2
     1  H    0.048618  -0.942487
     2  H    0.000828   0.997005
     3  F   -0.049445   0.945482
 Sum of Mulliken charges =  -0.00000   1.00000

 Dipole moment (field-independent basis, Debye):
    X=             -0.7361    Y=              0.0000    Z=             -0.0000  Tot=              0.7361
 Quadrupole moment (field-independent basis, Debye-Ang):
   XX=             -8.5863   YY=             -7.6042   ZZ=             -7.6042
   XY=              0.0000   XZ=             -0.0000   YZ=             -0.0000

  Exact polarizability:      32.999       0.000       2.023      -0.000       0.000       2.023
 Approx polarizability:      35.773       0.000       1.923      -0.000       0.000       1.923

 ******    2 imaginary frequencies (negative Signs) ******

                      1                      2                      3
                      A                      A                      A
 Frequencies --   -446.0499              -140.5043               162.5522
 Red. masses --      1.0459                 1.0658                 1.0200
 Frc consts  --      0.1226                 0.0124                 0.0159
 IR Inten    --     50.1581                 1.0258                 2.2067

                      4
                      A
 Frequencies --    162.5522
 Red. masses --      1.0200
 Frc consts  --      0.0159
 IR Inten    --      2.2067

 - Thermochemistry -
 -------------------
 Temperature   298.150 Kelvin.  Pressure   1.00000 Atm.
 Atom     1 has atomic number  1 and mass   1.00783

 Molecular mass:    21.01405 amu.
 Principal axes and moments of inertia in atomic units:
                           1         2         3
     Eigenvalues --     0.00000 153.44190 153.44190
           X            1.00000  -0.00000   0.00000
           Y            0.00000   1.00000   0.00000
           Z            0.00000   0.00000   1.00000
 This molecule is a prolate symmetric top.
 Rotational symmetry number  1.
 Rotational temperature (Kelvin)      0.56447
 Rotational constant (GHZ):          11.761724
    2 imaginary frequencies ignored.
 Zero-point vibrational energy       1944.6 (Joules/Mol)
                                    0.46476 (Kcal/Mol)
 Warning -- explicit consideration of   2 degrees of freedom as
           vibrations may cause significant error
 Vibrational temperatures:    233.88   233.88
          (Kelvin)

 Zero-point correction=                           0.000741 (Hartree/Particle)
 Thermal correction to Energy=                    0.004345
 Thermal correction to Enthalpy=                  0.005289
 Thermal correction to Gibbs Free Energy=        -0.021286
 Sum of electronic and zero-point Energies=           -100.761719
 Sum of electronic and thermal Energies=              -100.758115
 Sum of electronic and thermal Enthalpies=            -100.757171
 Sum of electronic and thermal Free Energies=         -100.783746

                     E (Thermal)             CV                S
                      KCal/Mol        Cal/Mol-Kelvin    Cal/Mol-Kelvin
 Total                    2.726              8.745             55.931
 Electronic               0.000              0.000              1.377
 Translational            0.889              2.981             35.068
 Rotational               0.592              1.987             14.446
 Vibrational              1.245              3.777              5.040
 Vibration     1          0.623              1.888              2.520
 Vibration     2          0.623              1.888              2.520

 Normal termination of Gaussian 16 at Fri Aug 22 18:54:46 2025.
