 Gaussian 16, Revision C.01,
 Gaussian 16:  ES64L-G16RevC.01  3-Jul-2019

 -----------------------------------------
 # sp b3lyp/6-311g** Force nosymm scf=(qc)
 -----------------------------------------

 -------------------
 Title Card Required
 -------------------
 Symbolic Z-matrix:
 Charge =  0 Multiplicity = 2

                          Input orientation:
 ---------------------------------------------------------------------
 Center     Atomic      Atomic             Coordinates (Angstroms)
 Number     Number       Type             X           Y           Z
 ---------------------------------------------------------------------
      1          1           0        0.000000    0.000000    0.000000
      2          1           0       -1.000000    0.000000    0.000000
      3          9           0        1.400000    0.000000    0.000000
 ---------------------------------------------------------------------

 SCF Done:  E(UB3LYP) =  -100.929931572     a.u. after    8 cycles

 Alpha  occ. eigenvalues --  -24.67888  -1.15406  -0.53518  -0.40156  -0.40156
 Alpha  occ. eigenvalues --   -0.39901
 Alpha virt. eigenvalues --    0.04630   0.19698   0.35072   0.89740   0.89740
 Alpha virt. eigenvalues --    0.98875   1.07749   1.07749   1.23463   1.63464
 Alpha virt. eigenvalues --    1.63464   1.63759   2.22403   2.32228   2.47052

  Beta  occ. eigenvalues --  -24.65822  -1.09856  -0.45356  -0.38177  -0.38177
  Beta virt. eigenvalues --   -0.22764   0.07145   0.21417   0.37690   0.90729
  Beta virt. eigenvalues --    0.90729   1.03737   1.11466   1.11466   1.27488
  Beta virt. eigenvalues --    1.65706   1.65706   1.67461   2.25661   2.36460

 Mulliken charges and spin densities:
               1          2
     1  H    0.195181  -0.093943
     2  H    0.046929   0.473875
     3  F   -0.242111   0.620068
 Sum of Mulliken charges =   0.00000   1.00000

 Dipole moment (field-independent basis, Debye):
    X=             -1.9195    Y=              0.0000    Z=              0.0000  Tot=              1.9195
 Quadrupole moment (field-independent basis, Debye-Ang):
   XX=             -7.4714   YY=             -6.9546   ZZ=             -6.9546
   XY=              0.0000   XZ=              0.0000   YZ=             -0.0000

  Exact polarizability:      26.099      -0.000       2.420       0.000       0.000       2.420
 Approx polarizability:      37.531      -0.000       2.414       0.000       0.000       2.414

 ******    1 imaginary frequencies (negative Signs) ******

                      1                      2                      3
                      A                      A                      A
 Frequencies --  -2005.8768              1084.0024              1171.1530
 Red. masses --      1.0416                 1.0704                 1.0144
 Frc consts  --      2.4692                 0.7410                 0.8197
 IR Inten    --    782.4011               141.1480                 8.7346

                      4
                      A
 Frequencies --   1171.1530
 Red. masses --      1.0144
 Frc consts  --      0.8197
 IR Inten    --      8.7346

 - Thermochemistry -
 -------------------
 Temperature   298.150 Kelvin.  Pressure   1.00000 Atm.
 Atom     1 has atomic number  1 and mass   1.00783

 Molecular mass:    21.01405 amu.
 Principal axes and moments of inertia in atomic units:
                           1         2         3
     Eigenvalues --     0.00000  25.29190  25.29190
           X            1.00000  -0.00000   0.00000
           Y            0.00000   1.00000   0.00000
           Z            0.00000   0.00000   1.00000
 This molecule is a prolate symmetric top.
 Rotational symmetry number  1.
 Rotational temperature (Kelvin)      3.42457
 Rotational constant (GHZ):          71.356484
    1 imaginary frequencies ignored.
 Zero-point vibrational energy      20493.9 (Joules/Mol)
                                    4.89815 (Kcal/Mol)
 Vibrational temperatures:   1559.64  1685.03  1685.03
          (Kelvin)

 Zero-point correction=                           0.007806 (Hartree/Particle)
 Thermal correction to Energy=                    0.010230
 Thermal correction to Enthalpy=                  0.011175
 Thermal correction to Gibbs Free Energy=        -0.011379
 Sum of electronic and zero-point Energies=           -100.922126
 Sum of electronic and thermal Energies=              -100.919701
 Sum of electronic and thermal Enthalpies=            -100.918757
 Sum of electronic and thermal Free Energies=         -100.941311

                     E (Thermal)             CV                S
                      KCal/Mol        Cal/Mol-Kelvin    Cal/Mol-Kelvin
 Total                    6.420              5.711             47.468
 Electronic               0.000              0.000              1.377
 Translational            0.889              2.981             35.068
 Rotational               0.592              1.987             10.863
 Vibrational              4.938              0.743              0.160

 Normal termination of Gaussian 16 at Fri Aug 22 16:19:20 2025.
