 Gaussian 16, Revision C.01,
 Gaussian 16:  ES64L-G16RevC.01  3-Jul-2019

 -----------------------------------------
 # sp b3lyp/6-311g** Force nosymm scf=(qc)
 -----------------------------------------

 -------------------
 Title Card Required
 -------------------
 Symbolic Z-matrix:
 Charge =  0 Multiplicity = 2

                          Input orientation:
 ---------------------------------------------------------------------
 Center     Atomic      Atomic             Coordinates (Angstroms)
 Number     Number       Type             X           Y           Z
 ---------------------------------------------------------------------
      1          1           0        0.000000    0.000000    0.000000
      2          1           0       -2.150000    0.000000    0.000000
      3          9           0        1.150000    0.000000    0.000000
 ---------------------------------------------------------------------

 SCF Done:  E(UB3LYP) =  -100.938735786     a.u. after    6 cycles

 Alpha  occ. eigenvalues --  -24.63911  -1.12713  -0.48643  -0.37458  -0.37458
 Alpha  occ. eigenvalues --   -0.36090
 Alpha virt. eigenvalues --   -0.02011   0.24346   0.29600   0.93678   0.93678
 Alpha virt. eigenvalues --    1.00261   1.15761   1.21351   1.21351   1.35374
 Alpha virt. eigenvalues --    1.35374   1.42219   1.75298   2.12720   2.32200

  Beta  occ. eigenvalues --  -24.63820  -1.12485  -0.48186  -0.37376  -0.37376
  Beta virt. eigenvalues --   -0.13019   0.00774   0.29506   0.35084   0.93678
  Beta virt. eigenvalues --    0.93678   1.00559   1.24368   1.34998   1.34998
  Beta virt. eigenvalues --    1.41428   1.41428   1.52587   1.75554   2.29132

 Mulliken charges and spin densities:
               1          2
     1  H    0.334075  -0.001364
     2  H    0.018379   0.974475
     3  F   -0.352454   0.026890
 Sum of Mulliken charges =  -0.00000   1.00000

 Dipole moment (field-independent basis, Debye):
    X=             -2.4378    Y=             -0.0000    Z=             -0.0000  Tot=              2.4378
 Quadrupole moment (field-independent basis, Debye-Ang):
   XX=             -8.2163   YY=             -7.0643   ZZ=             -7.0643
   XY=              0.0000   XZ=              0.0000   YZ=              0.0000

  Exact polarizability:      13.371       0.000       2.390      -0.000      -0.000       2.390
 Approx polarizability:      16.127      -0.000       2.356      -0.000      -0.000       2.356

 ******    1 imaginary frequencies (negative Signs) ******

                      1                      2                      3
                      A                      A                      A
 Frequencies --   -231.7537              1168.3666              1168.3666
 Red. masses --      1.0456                 1.0270                 1.0270
 Frc consts  --      0.0331                 0.8260                 0.8260
 IR Inten    --     10.2059               123.0989               123.0989

                      4
                      A
 Frequencies --   1362.0960
 Red. masses --      1.0662
 Frc consts  --      1.1655
 IR Inten    --    171.0973

 - Thermochemistry -
 -------------------
 Temperature   298.150 Kelvin.  Pressure   1.00000 Atm.
 Atom     1 has atomic number  1 and mass   1.00783

 Molecular mass:    21.01405 amu.
 Principal axes and moments of inertia in atomic units:
                           1         2         3
     Eigenvalues --     0.00000  40.53484  40.53484
           X            1.00000  -0.00000   0.00000
           Y            0.00000   1.00000   0.00000
           Z            0.00000   0.00000   1.00000
 This molecule is a prolate symmetric top.
 Rotational symmetry number  1.
 Rotational temperature (Kelvin)      2.13678
 Rotational constant (GHZ):          44.523207
    1 imaginary frequencies ignored.
 Zero-point vibrational energy      22123.9 (Joules/Mol)
                                    5.28774 (Kcal/Mol)
 Vibrational temperatures:   1681.02  1681.02  1959.75
          (Kelvin)

 Zero-point correction=                           0.008427 (Hartree/Particle)
 Thermal correction to Energy=                    0.010834
 Thermal correction to Enthalpy=                  0.011778
 Thermal correction to Gibbs Free Energy=        -0.011200
 Sum of electronic and zero-point Energies=           -100.930309
 Sum of electronic and thermal Energies=              -100.927902
 Sum of electronic and thermal Enthalpies=            -100.926958
 Sum of electronic and thermal Free Energies=         -100.949936

                     E (Thermal)             CV                S
                      KCal/Mol        Cal/Mol-Kelvin    Cal/Mol-Kelvin
 Total                    6.798              5.541             48.361
 Electronic               0.000              0.000              1.377
 Translational            0.889              2.981             35.068
 Rotational               0.592              1.987             11.801
 Vibrational              5.317              0.573              0.115

 Normal termination of Gaussian 16 at Fri Aug 22 16:07:50 2025.
