 Gaussian 16, Revision C.01,
 Gaussian 16:  ES64L-G16RevC.01  3-Jul-2019

 -----------------------------------------
 # sp b3lyp/6-311g** Force nosymm scf=(qc)
 -----------------------------------------

 -------------------
 Title Card Required
 -------------------
 Symbolic Z-matrix:
 Charge =  0 Multiplicity = 2

                          Input orientation:
 ---------------------------------------------------------------------
 Center     Atomic      Atomic             Coordinates (Angstroms)
 Number     Number       Type             X           Y           Z
 ---------------------------------------------------------------------
      1          1           0        0.000000    0.000000    0.000000
      2          1           0       -1.450000    0.000000    0.000000
      3          9           0        1.550000    0.000000    0.000000
 ---------------------------------------------------------------------

 SCF Done:  E(UB3LYP) =  -100.874129834     a.u. after   12 cycles

 Alpha  occ. eigenvalues --  -24.65716  -1.12400  -0.47602  -0.38857  -0.37866
 Alpha  occ. eigenvalues --   -0.37866
 Alpha virt. eigenvalues --   -0.06756   0.20840   0.29440   0.93299   0.93299
 Alpha virt. eigenvalues --    0.95368   1.03379   1.14368   1.14368   1.41552
 Alpha virt. eigenvalues --    1.41552   1.47192   1.89344   2.19357   2.44327

  Beta  occ. eigenvalues --  -24.64030  -1.07840  -0.41096  -0.36242  -0.36242
  Beta virt. eigenvalues --   -0.22255  -0.03599   0.23789   0.30398   0.93495
  Beta virt. eigenvalues --    0.93495   1.00051   1.06643   1.19975   1.19975
  Beta virt. eigenvalues --    1.43092   1.43092   1.52048   1.93076   2.22599

 Mulliken charges and spin densities:
               1          2
     1  H    0.215975  -0.233464
     2  H    0.072924   0.710848
     3  F   -0.288899   0.522616
 Sum of Mulliken charges =   0.00000   1.00000

 Dipole moment (field-independent basis, Debye):
    X=             -2.7009    Y=             -0.0000    Z=             -0.0000  Tot=              2.7009
 Quadrupole moment (field-independent basis, Debye-Ang):
   XX=             -8.0896   YY=             -7.2580   ZZ=             -7.2580
   XY=             -0.0000   XZ=             -0.0000   YZ=              0.0000

  Exact polarizability:      37.476      -0.000       2.287      -0.000      -0.000       2.287
 Approx polarizability:      55.847      -0.000       2.229      -0.000      -0.000       2.229

 ******    2 imaginary frequencies (negative Signs) ******

                      1                      2                      3
                      A                      A                      A
 Frequencies --  -2622.1563              -429.6163              1087.3469
 Red. masses --      1.0220                 1.0919                 1.0172
 Frc consts  --      4.1401                 0.1187                 0.7086
 IR Inten    --    526.0639                 4.8482                19.9208

                      4
                      A
 Frequencies --   1087.3469
 Red. masses --      1.0172
 Frc consts  --      0.7086
 IR Inten    --     19.9208

 - Thermochemistry -
 -------------------
 Temperature   298.150 Kelvin.  Pressure   1.00000 Atm.
 Atom     1 has atomic number  1 and mass   1.00783

 Molecular mass:    21.01405 amu.
 Principal axes and moments of inertia in atomic units:
                           1         2         3
     Eigenvalues --     0.00000  37.46430  37.46430
           X            1.00000  -0.00000   0.00000
           Y            0.00000   1.00000   0.00000
           Z            0.00000   0.00000   1.00000
 This molecule is a prolate symmetric top.
 Rotational symmetry number  1.
 Rotational temperature (Kelvin)      2.31191
 Rotational constant (GHZ):          48.172292
    2 imaginary frequencies ignored.
 Zero-point vibrational energy      13007.6 (Joules/Mol)
                                    3.10888 (Kcal/Mol)
 Vibrational temperatures:   1564.45  1564.45
          (Kelvin)

 Zero-point correction=                           0.004954 (Hartree/Particle)
 Thermal correction to Energy=                    0.007367
 Thermal correction to Enthalpy=                  0.008311
 Thermal correction to Gibbs Free Energy=        -0.014600
 Sum of electronic and zero-point Energies=           -100.869176
 Sum of electronic and thermal Energies=              -100.866763
 Sum of electronic and thermal Enthalpies=            -100.865818
 Sum of electronic and thermal Free Energies=         -100.888730

                     E (Thermal)             CV                S
                      KCal/Mol        Cal/Mol-Kelvin    Cal/Mol-Kelvin
 Total                    4.623              5.550             48.221
 Electronic               0.000              0.000              1.377
 Translational            0.889              2.981             35.068
 Rotational               0.592              1.987             11.644
 Vibrational              3.142              0.582              0.131

 Normal termination of Gaussian 16 at Fri Aug 22 16:27:46 2025.
