 Gaussian 16, Revision C.01,
 Gaussian 16:  ES64L-G16RevC.01  3-Jul-2019

 -----------------------------------------
 # sp b3lyp/6-311g** Force nosymm scf=(qc)
 -----------------------------------------

 -------------------
 Title Card Required
 -------------------
 Symbolic Z-matrix:
 Charge =  0 Multiplicity = 2

                          Input orientation:
 ---------------------------------------------------------------------
 Center     Atomic      Atomic             Coordinates (Angstroms)
 Number     Number       Type             X           Y           Z
 ---------------------------------------------------------------------
      1          1           0        0.000000    0.000000    0.000000
      2          1           0       -2.350000    0.000000    0.000000
      3          9           0        3.100000    0.000000    0.000000
 ---------------------------------------------------------------------

 SCF Done:  E(UB3LYP) =  -100.766217362     a.u. after   26 cycles

 Alpha  occ. eigenvalues --  -24.74529  -1.20552  -0.53647  -0.45044  -0.45044
 Alpha  occ. eigenvalues --   -0.33121
 Alpha virt. eigenvalues --   -0.10687   0.25558   0.33264   0.89166   0.92008
 Alpha virt. eigenvalues --    0.92008   1.03374   1.24609   1.24609   1.25729
 Alpha virt. eigenvalues --    1.39333   1.39333   1.42539   2.14738   2.35812

  Beta  occ. eigenvalues --  -24.71473  -1.11789  -0.41985  -0.41985  -0.33606
  Beta virt. eigenvalues --   -0.25046  -0.09784   0.25658   0.34296   0.93479
  Beta virt. eigenvalues --    0.93479   0.98046   1.07318   1.24004   1.24004
  Beta virt. eigenvalues --    1.24990   1.40782   1.40782   1.43933   2.15820

 Mulliken charges and spin densities:
               1          2
     1  H    0.021560  -0.922061
     2  H    0.006724   0.953718
     3  F   -0.028283   0.968344
 Sum of Mulliken charges =  -0.00000   1.00000

 Dipole moment (field-independent basis, Debye):
    X=             -0.5253    Y=             -0.0000    Z=              0.0000  Tot=              0.5253
 Quadrupole moment (field-independent basis, Debye-Ang):
   XX=             -7.6192   YY=             -7.6707   ZZ=             -7.6707
   XY=             -0.0000   XZ=              0.0000   YZ=              0.0000

  Exact polarizability:      46.877      -0.000       2.012       0.000      -0.000       2.012
 Approx polarizability:      39.687      -0.000       1.924       0.000      -0.000       1.924

 ******    2 imaginary frequencies (negative Signs) ******

                      1                      2                      3
                      A                      A                      A
 Frequencies --   -844.7452              -216.8510               318.9493
 Red. masses --      1.0084                 1.1078                 1.0149
 Frc consts  --      0.4240                 0.0307                 0.0608
 IR Inten    --     18.4767                19.2673                 0.3157

                      4
                      A
 Frequencies --    318.9493
 Red. masses --      1.0149
 Frc consts  --      0.0608
 IR Inten    --      0.3157

 - Thermochemistry -
 -------------------
 Temperature   298.150 Kelvin.  Pressure   1.00000 Atm.
 Atom     1 has atomic number  1 and mass   1.00783

 Molecular mass:    21.01405 amu.
 Principal axes and moments of inertia in atomic units:
                           1         2         3
     Eigenvalues --     0.00000 128.86803 128.86803
           X            1.00000  -0.00000   0.00000
           Y            0.00000   1.00000   0.00000
           Z            0.00000   0.00000   1.00000
 This molecule is a prolate symmetric top.
 Rotational symmetry number  1.
 Rotational temperature (Kelvin)      0.67211
 Rotational constant (GHZ):          14.004569
    2 imaginary frequencies ignored.
 Zero-point vibrational energy       3815.5 (Joules/Mol)
                                    0.91192 (Kcal/Mol)
 Warning -- explicit consideration of   2 degrees of freedom as
           vibrations may cause significant error
 Vibrational temperatures:    458.90   458.90
          (Kelvin)

 Zero-point correction=                           0.001453 (Hartree/Particle)
 Thermal correction to Energy=                    0.004608
 Thermal correction to Enthalpy=                  0.005552
 Thermal correction to Gibbs Free Energy=        -0.019714
 Sum of electronic and zero-point Energies=           -100.764764
 Sum of electronic and thermal Energies=              -100.761610
 Sum of electronic and thermal Enthalpies=            -100.760665
 Sum of electronic and thermal Free Energies=         -100.785931

                     E (Thermal)             CV                S
                      KCal/Mol        Cal/Mol-Kelvin    Cal/Mol-Kelvin
 Total                    2.891              8.243             53.175
 Electronic               0.000              0.000              1.377
 Translational            0.889              2.981             35.068
 Rotational               0.592              1.987             14.099
 Vibrational              1.410              3.275              2.631
 Vibration     1          0.705              1.637              1.315
 Vibration     2          0.705              1.637              1.315

 Normal termination of Gaussian 16 at Fri Aug 22 19:54:59 2025.
