 Gaussian 16, Revision C.01,
 Gaussian 16:  ES64L-G16RevC.01  3-Jul-2019

 -----------------------------------------
 # sp b3lyp/6-311g** Force nosymm scf=(qc)
 -----------------------------------------

 -------------------
 Title Card Required
 -------------------
 Symbolic Z-matrix:
 Charge =  0 Multiplicity = 2

                          Input orientation:
 ---------------------------------------------------------------------
 Center     Atomic      Atomic             Coordinates (Angstroms)
 Number     Number       Type             X           Y           Z
 ---------------------------------------------------------------------
      1          1           0        0.000000    0.000000    0.000000
      2          1           0       -2.250000    0.000000    0.000000
      3          9           0        0.600000    0.000000    0.000000
 ---------------------------------------------------------------------

 SCF Done:  E(UB3LYP) =  -100.687885273     a.u. after    6 cycles

 Alpha  occ. eigenvalues --  -24.62682  -1.34677  -0.61037  -0.42925  -0.42925
 Alpha  occ. eigenvalues --   -0.34680
 Alpha virt. eigenvalues --    0.09804   0.25203   0.56343   0.92178   0.92178
 Alpha virt. eigenvalues --    0.93404   1.16840   1.22867   1.22867   1.50310
 Alpha virt. eigenvalues --    1.50310   1.51982   1.94870   2.17045   3.36697

  Beta  occ. eigenvalues --  -24.62668  -1.34634  -0.60989  -0.42917  -0.42917
  Beta virt. eigenvalues --   -0.08845   0.11238   0.37439   0.56201   0.92166
  Beta virt. eigenvalues --    0.92166   0.93548   1.28610   1.44301   1.44301
  Beta virt. eigenvalues --    1.50307   1.50307   1.62340   1.96931   2.44718

 Mulliken charges and spin densities:
               1          2
     1  H    0.227552   0.006098
     2  H    0.006594   0.990795
     3  F   -0.234146   0.003107
 Sum of Mulliken charges =   0.00000   1.00000

 Dipole moment (field-independent basis, Debye):
    X=             -1.4982    Y=             -0.0000    Z=             -0.0000  Tot=              1.4982
 Quadrupole moment (field-independent basis, Debye-Ang):
   XX=             -6.7692   YY=             -6.5369   ZZ=             -6.5369
   XY=             -0.0000   XZ=             -0.0000   YZ=              0.0000

  Exact polarizability:       5.303       0.000       2.471       0.000      -0.000       2.471
 Approx polarizability:       5.236       0.000       2.459       0.000      -0.000       2.459

 ******    2 imaginary frequencies (negative Signs) ******

                      1                      2                      3
                      A                      A                      A
 Frequencies --  -5821.9400             -5821.9400               228.6655
 Red. masses --      1.0380                 1.0380                 1.0533
 Frc consts  --     20.7290                20.7290                 0.0324
 IR Inten    --    215.7237               215.7237                 0.1253

                      4
                      A
 Frequencies --  13070.4553
 Red. masses --      1.0583
 Frc consts  --    106.5223
 IR Inten    --    112.9638

 - Thermochemistry -
 -------------------
 Temperature   298.150 Kelvin.  Pressure   1.00000 Atm.
 Atom     1 has atomic number  1 and mass   1.00783

 Molecular mass:    21.01405 amu.
 Principal axes and moments of inertia in atomic units:
                           1         2         3
     Eigenvalues --     0.00000  28.47414  28.47414
           X            1.00000  -0.00000   0.00000
           Y            0.00000   1.00000   0.00000
           Z            0.00000   0.00000   1.00000
 This molecule is a prolate symmetric top.
 Rotational symmetry number  1.
 Rotational temperature (Kelvin)      3.04185
 Rotational constant (GHZ):          63.381772
    2 imaginary frequencies ignored.
 Zero-point vibrational energy      79546.4 (Joules/Mol)
                                   19.01205 (Kcal/Mol)
 Warning -- explicit consideration of   1 degrees of freedom as
           vibrations may cause significant error
 Vibrational temperatures:    329.00 18805.47
          (Kelvin)

 Zero-point correction=                           0.030298 (Hartree/Particle)
 Thermal correction to Energy=                    0.033175
 Thermal correction to Enthalpy=                  0.034119
 Thermal correction to Gibbs Free Energy=         0.010632
 Sum of electronic and zero-point Energies=           -100.657588
 Sum of electronic and thermal Energies=              -100.654710
 Sum of electronic and thermal Enthalpies=            -100.653766
 Sum of electronic and thermal Free Energies=         -100.677253

                     E (Thermal)             CV                S
                      KCal/Mol        Cal/Mol-Kelvin    Cal/Mol-Kelvin
 Total                   20.818              6.765             49.434
 Electronic               0.000              0.000              1.377
 Translational            0.889              2.981             35.068
 Rotational               0.592              1.987             11.099
 Vibrational             19.337              1.797              1.889
 Vibration     1          0.651              1.797              1.889

 Normal termination of Gaussian 16 at Fri Aug 22 15:41:52 2025.
