 Gaussian 16, Revision C.01,
 Gaussian 16:  ES64L-G16RevC.01  3-Jul-2019

 -----------------------------------------
 # sp b3lyp/6-311g** Force nosymm scf=(qc)
 -----------------------------------------

 -------------------
 Title Card Required
 -------------------
 Symbolic Z-matrix:
 Charge =  0 Multiplicity = 2

                          Input orientation:
 ---------------------------------------------------------------------
 Center     Atomic      Atomic             Coordinates (Angstroms)
 Number     Number       Type             X           Y           Z
 ---------------------------------------------------------------------
      1          1           0        0.000000    0.000000    0.000000
      2          1           0       -2.000000    0.000000    0.000000
      3          9           0        1.500000    0.000000    0.000000
 ---------------------------------------------------------------------

 SCF Done:  E(UB3LYP) =  -100.860507929     a.u. after   11 cycles

 Alpha  occ. eigenvalues --  -24.63877  -1.09933  -0.44219  -0.37199  -0.36129
 Alpha  occ. eigenvalues --   -0.36129
 Alpha virt. eigenvalues --   -0.11392   0.23140   0.27441   0.94203   0.94203
 Alpha virt. eigenvalues --    1.01425   1.05583   1.19951   1.19951   1.33555
 Alpha virt. eigenvalues --    1.33665   1.33665   1.73160   2.09990   2.26774

  Beta  occ. eigenvalues --  -24.63166  -1.08048  -0.41814  -0.35453  -0.35453
  Beta virt. eigenvalues --   -0.18268  -0.07252   0.25909   0.32397   0.94028
  Beta virt. eigenvalues --    0.94028   1.04127   1.08058   1.30279   1.30279
  Beta virt. eigenvalues --    1.37777   1.37777   1.45885   1.73164   2.16019

 Mulliken charges and spin densities:
               1          2
     1  H    0.304349  -0.155078
     2  H    0.045756   0.932434
     3  F   -0.350106   0.222644
 Sum of Mulliken charges =   0.00000   1.00000

 Dipole moment (field-independent basis, Debye):
    X=             -3.0249    Y=              0.0000    Z=             -0.0000  Tot=              3.0249
 Quadrupole moment (field-independent basis, Debye-Ang):
   XX=             -8.8346   YY=             -7.3005   ZZ=             -7.3005
   XY=              0.0000   XZ=             -0.0000   YZ=             -0.0000

  Exact polarizability:      28.602      -0.000       2.229       0.000      -0.000       2.229
 Approx polarizability:      40.476      -0.000       2.160       0.000       0.000       2.160

 ******    2 imaginary frequencies (negative Signs) ******

                      1                      2                      3
                      A                      A                      A
 Frequencies --  -1880.6971              -398.8814               982.3849
 Red. masses --      1.0363                 1.0760                 1.0218
 Frc consts  --      2.1596                 0.1009                 0.5810
 IR Inten    --     24.9262                 0.7141                68.6294

                      4
                      A
 Frequencies --    982.3849
 Red. masses --      1.0218
 Frc consts  --      0.5810
 IR Inten    --     68.6294

 - Thermochemistry -
 -------------------
 Temperature   298.150 Kelvin.  Pressure   1.00000 Atm.
 Atom     1 has atomic number  1 and mass   1.00783

 Molecular mass:    21.01405 amu.
 Principal axes and moments of inertia in atomic units:
                           1         2         3
     Eigenvalues --     0.00000  47.87045  47.87045
           X            1.00000  -0.00000   0.00000
           Y            0.00000   1.00000   0.00000
           Z            0.00000   0.00000   1.00000
 This molecule is a prolate symmetric top.
 Rotational symmetry number  1.
 Rotational temperature (Kelvin)      1.80934
 Rotational constant (GHZ):          37.700526
    2 imaginary frequencies ignored.
 Zero-point vibrational energy      11751.9 (Joules/Mol)
                                    2.80878 (Kcal/Mol)
 Vibrational temperatures:   1413.43  1413.43
          (Kelvin)

 Zero-point correction=                           0.004476 (Hartree/Particle)
 Thermal correction to Energy=                    0.006915
 Thermal correction to Enthalpy=                  0.007860
 Thermal correction to Gibbs Free Energy=        -0.015316
 Sum of electronic and zero-point Energies=           -100.856032
 Sum of electronic and thermal Energies=              -100.853593
 Sum of electronic and thermal Enthalpies=            -100.852648
 Sum of electronic and thermal Free Energies=         -100.875824

                     E (Thermal)             CV                S
                      KCal/Mol        Cal/Mol-Kelvin    Cal/Mol-Kelvin
 Total                    4.339              5.762             48.777
 Electronic               0.000              0.000              1.377
 Translational            0.889              2.981             35.068
 Rotational               0.592              1.987             12.131
 Vibrational              2.858              0.794              0.201

 Normal termination of Gaussian 16 at Fri Aug 22 16:25:31 2025.
