 Gaussian 16, Revision C.01,
 Gaussian 16:  ES64L-G16RevC.01  3-Jul-2019

 -----------------------------------------
 # sp b3lyp/6-311g** Force nosymm scf=(qc)
 -----------------------------------------

 -------------------
 Title Card Required
 -------------------
 Symbolic Z-matrix:
 Charge =  0 Multiplicity = 2

                          Input orientation:
 ---------------------------------------------------------------------
 Center     Atomic      Atomic             Coordinates (Angstroms)
 Number     Number       Type             X           Y           Z
 ---------------------------------------------------------------------
      1          1           0        0.000000    0.000000    0.000000
      2          1           0       -2.650000    0.000000    0.000000
      3          9           0        2.400000    0.000000    0.000000
 ---------------------------------------------------------------------

 SCF Done:  E(UB3LYP) =  -100.772253508     a.u. after   17 cycles

 Alpha  occ. eigenvalues --  -24.71124  -1.17368  -0.50213  -0.42188  -0.42188
 Alpha  occ. eigenvalues --   -0.33735
 Alpha virt. eigenvalues --   -0.11977   0.24483   0.33265   0.89663   0.93940
 Alpha virt. eigenvalues --    0.93940   1.06660   1.23869   1.23869   1.26130
 Alpha virt. eigenvalues --    1.38162   1.38162   1.45119   2.14904   2.33042

  Beta  occ. eigenvalues --  -24.68342  -1.09466  -0.39418  -0.39418  -0.35741
  Beta virt. eigenvalues --   -0.22962  -0.09078   0.25405   0.35317   0.95248
  Beta virt. eigenvalues --    0.95248   0.95532   1.09086   1.21984   1.21984
  Beta virt. eigenvalues --    1.33232   1.42595   1.42595   1.43697   2.13927

 Mulliken charges and spin densities:
               1          2
     1  H    0.096497  -0.859021
     2  H    0.008572   0.980623
     3  F   -0.105069   0.878398
 Sum of Mulliken charges =  -0.00000   1.00000

 Dipole moment (field-independent basis, Debye):
    X=             -1.3862    Y=              0.0000    Z=             -0.0000  Tot=              1.3862
 Quadrupole moment (field-independent basis, Debye-Ang):
   XX=             -9.1118   YY=             -7.5877   ZZ=             -7.5877
   XY=              0.0000   XZ=             -0.0000   YZ=             -0.0000

  Exact polarizability:      39.099       0.000       2.022      -0.000       0.000       2.022
 Approx polarizability:      44.858       0.000       1.920      -0.000      -0.000       1.920

 ******    2 imaginary frequencies (negative Signs) ******

                      1                      2                      3
                      A                      A                      A
 Frequencies --   -791.9172              -314.8432               318.8252
 Red. masses --      1.0328                 1.0798                 1.0192
 Frc consts  --      0.3816                 0.0631                 0.0610
 IR Inten    --     71.5719                13.6584                 8.0034

                      4
                      A
 Frequencies --    318.8252
 Red. masses --      1.0192
 Frc consts  --      0.0610
 IR Inten    --      8.0034

 - Thermochemistry -
 -------------------
 Temperature   298.150 Kelvin.  Pressure   1.00000 Atm.
 Atom     1 has atomic number  1 and mass   1.00783

 Molecular mass:    21.01405 amu.
 Principal axes and moments of inertia in atomic units:
                           1         2         3
     Eigenvalues --     0.00000 102.93389 102.93389
           X            1.00000  -0.00000   0.00000
           Y            0.00000   1.00000   0.00000
           Z            0.00000   0.00000   1.00000
 This molecule is a prolate symmetric top.
 Rotational symmetry number  1.
 Rotational temperature (Kelvin)      0.84145
 Rotational constant (GHZ):          17.533013
    2 imaginary frequencies ignored.
 Zero-point vibrational energy       3814.0 (Joules/Mol)
                                    0.91157 (Kcal/Mol)
 Warning -- explicit consideration of   2 degrees of freedom as
           vibrations may cause significant error
 Vibrational temperatures:    458.72   458.72
          (Kelvin)

 Zero-point correction=                           0.001453 (Hartree/Particle)
 Thermal correction to Energy=                    0.004607
 Thermal correction to Enthalpy=                  0.005552
 Thermal correction to Gibbs Free Energy=        -0.019502
 Sum of electronic and zero-point Energies=           -100.770801
 Sum of electronic and thermal Energies=              -100.767646
 Sum of electronic and thermal Enthalpies=            -100.766702
 Sum of electronic and thermal Free Energies=         -100.791756

                     E (Thermal)             CV                S
                      KCal/Mol        Cal/Mol-Kelvin    Cal/Mol-Kelvin
 Total                    2.891              8.243             52.730
 Electronic               0.000              0.000              1.377
 Translational            0.889              2.981             35.068
 Rotational               0.592              1.987             13.653
 Vibrational              1.410              3.275              2.632
 Vibration     1          0.705              1.638              1.316
 Vibration     2          0.705              1.638              1.316

 Normal termination of Gaussian 16 at Fri Aug 22 17:32:46 2025.
