 Gaussian 16, Revision C.01,
 Gaussian 16:  ES64L-G16RevC.01  3-Jul-2019

 -----------------------------------------
 # sp b3lyp/6-311g** Force nosymm scf=(qc)
 -----------------------------------------

 -------------------
 Title Card Required
 -------------------
 Symbolic Z-matrix:
 Charge =  0 Multiplicity = 2

                          Input orientation:
 ---------------------------------------------------------------------
 Center     Atomic      Atomic             Coordinates (Angstroms)
 Number     Number       Type             X           Y           Z
 ---------------------------------------------------------------------
      1          1           0        0.000000    0.000000    0.000000
      2          1           0       -3.300000    0.000000    0.000000
      3          9           0        2.850000    0.000000    0.000000
 ---------------------------------------------------------------------

 SCF Done:  E(UB3LYP) =  -100.762525600     a.u. after   21 cycles

 Alpha  occ. eigenvalues --  -24.73503  -1.19605  -0.52620  -0.44187  -0.44187
 Alpha  occ. eigenvalues --   -0.32699
 Alpha virt. eigenvalues --   -0.08956   0.24095   0.35619   0.89825   0.92622
 Alpha virt. eigenvalues --    0.92622   1.04805   1.24817   1.24817   1.25154
 Alpha virt. eigenvalues --    1.42884   1.42884   1.43450   2.15003   2.38722

  Beta  occ. eigenvalues --  -24.70517  -1.11061  -0.41201  -0.41201  -0.34144
  Beta virt. eigenvalues --   -0.24438  -0.06993   0.24224   0.37524   0.94069
  Beta virt. eigenvalues --    0.94069   0.98228   1.08351   1.23184   1.23184
  Beta virt. eigenvalues --    1.24452   1.45346   1.45596   1.45596   2.14934

 Mulliken charges and spin densities:
               1          2
     1  H    0.048464  -0.942107
     2  H    0.000941   0.996602
     3  F   -0.049405   0.945505
 Sum of Mulliken charges =  -0.00000   1.00000

 Dipole moment (field-independent basis, Debye):
    X=             -0.7371    Y=             -0.0000    Z=             -0.0000  Tot=              0.7371
 Quadrupole moment (field-independent basis, Debye-Ang):
   XX=             -8.5762   YY=             -7.6052   ZZ=             -7.6052
   XY=             -0.0000   XZ=             -0.0000   YZ=              0.0000

  Exact polarizability:      33.266      -0.000       2.023      -0.000      -0.000       2.023
 Approx polarizability:      35.933      -0.000       1.923      -0.000      -0.000       1.923

 ******    2 imaginary frequencies (negative Signs) ******

                      1                      2                      3
                      A                      A                      A
 Frequencies --   -449.8514              -147.9371               164.4039
 Red. masses --      1.0445                 1.0673                 1.0198
 Frc consts  --      0.1245                 0.0138                 0.0162
 IR Inten    --     49.9078                 1.2904                 2.1833

                      4
                      A
 Frequencies --    164.4039
 Red. masses --      1.0198
 Frc consts  --      0.0162
 IR Inten    --      2.1833

 - Thermochemistry -
 -------------------
 Temperature   298.150 Kelvin.  Pressure   1.00000 Atm.
 Atom     1 has atomic number  1 and mass   1.00783

 Molecular mass:    21.01405 amu.
 Principal axes and moments of inertia in atomic units:
                           1         2         3
     Eigenvalues --     0.00000 151.37529 151.37529
           X            1.00000  -0.00000   0.00000
           Y            0.00000   1.00000   0.00000
           Z            0.00000   0.00000   1.00000
 This molecule is a prolate symmetric top.
 Rotational symmetry number  1.
 Rotational temperature (Kelvin)      0.57218
 Rotational constant (GHZ):          11.922297
    2 imaginary frequencies ignored.
 Zero-point vibrational energy       1966.7 (Joules/Mol)
                                    0.47005 (Kcal/Mol)
 Warning -- explicit consideration of   2 degrees of freedom as
           vibrations may cause significant error
 Vibrational temperatures:    236.54   236.54
          (Kelvin)

 Zero-point correction=                           0.000749 (Hartree/Particle)
 Thermal correction to Energy=                    0.004347
 Thermal correction to Enthalpy=                  0.005291
 Thermal correction to Gibbs Free Energy=        -0.021251
 Sum of electronic and zero-point Energies=           -100.761777
 Sum of electronic and thermal Energies=              -100.758179
 Sum of electronic and thermal Enthalpies=            -100.757235
 Sum of electronic and thermal Free Energies=         -100.783776

                     E (Thermal)             CV                S
                      KCal/Mol        Cal/Mol-Kelvin    Cal/Mol-Kelvin
 Total                    2.728              8.740             55.861
 Electronic               0.000              0.000              1.377
 Translational            0.889              2.981             35.068
 Rotational               0.592              1.987             14.419
 Vibrational              1.246              3.772              4.997
 Vibration     1          0.623              1.886              2.499
 Vibration     2          0.623              1.886              2.499

 Normal termination of Gaussian 16 at Fri Aug 22 18:54:43 2025.
