 Gaussian 16, Revision C.01,
 Gaussian 16:  ES64L-G16RevC.01  3-Jul-2019

 -----------------------------------------
 # sp b3lyp/6-311g** Force nosymm scf=(qc)
 -----------------------------------------

 -------------------
 Title Card Required
 -------------------
 Symbolic Z-matrix:
 Charge =  0 Multiplicity = 2

                          Input orientation:
 ---------------------------------------------------------------------
 Center     Atomic      Atomic             Coordinates (Angstroms)
 Number     Number       Type             X           Y           Z
 ---------------------------------------------------------------------
      1          1           0        0.000000    0.000000    0.000000
      2          1           0       -0.600000    0.000000    0.000000
      3          9           0        2.150000    0.000000    0.000000
 ---------------------------------------------------------------------

 SCF Done:  E(UB3LYP) =  -100.913433597     a.u. after   32 cycles

 Alpha  occ. eigenvalues --  -24.77052  -1.22891  -0.56032  -0.48901  -0.47180
 Alpha  occ. eigenvalues --   -0.44347
 Alpha virt. eigenvalues --    0.10667   0.20454   0.51848   0.85163   0.89963
 Alpha virt. eigenvalues --    0.94473   1.11071   1.11163   1.15583   1.64271
 Alpha virt. eigenvalues --    1.82914   1.93612   1.93670   2.42848   3.64357

  Beta  occ. eigenvalues --  -24.73888  -1.13801  -0.47426  -0.44007  -0.42645
  Beta virt. eigenvalues --   -0.26648   0.10813   0.20574   0.51932   0.91434
  Beta virt. eigenvalues --    0.94461   0.96266   1.11180   1.11202   1.19050
  Beta virt. eigenvalues --    1.64401   1.82942   1.93627   1.93669   2.42901

 Mulliken charges and spin densities:
               1          2
     1  H   -0.007022  -0.002140
     2  H   -0.012352  -0.000876
     3  F    0.019374   1.003016
 Sum of Mulliken charges =   0.00000   1.00000

 Dipole moment (field-independent basis, Debye):
    X=              0.2077    Y=              0.0000    Z=              0.0000  Tot=              0.2077
 Quadrupole moment (field-independent basis, Debye-Ang):
   XX=             -6.0300   YY=             -6.7474   ZZ=             -5.8842
   XY=              0.0000   XZ=              0.0000   YZ=             -0.0001

  Exact polarizability:       7.090      -0.000       1.968       0.000      -0.000       2.362
 Approx polarizability:       7.562      -0.000       2.056      -0.000      -0.000       2.580

 ******    2 imaginary frequencies (negative Signs) ******

                      1                      2                      3
                      A                      A                      A
 Frequencies --  -2736.8133             -2717.9377               413.0382
 Red. masses --      1.0093                 1.0093                 1.1085
 Frc consts  --      4.4542                 4.3930                 0.1114
 IR Inten    --      0.0916                 0.0288                 1.3602

                      4
                      A
 Frequencies --   7044.8099
 Red. masses --      1.0078
 Frc consts  --     29.4696
 IR Inten    --     12.6232

 - Thermochemistry -
 -------------------
 Temperature   298.150 Kelvin.  Pressure   1.00000 Atm.
 Atom     1 has atomic number  1 and mass   1.00783

 Molecular mass:    21.01405 amu.
 Principal axes and moments of inertia in atomic units:
                           1         2         3
     Eigenvalues --     0.00000  39.70963  39.70963
           X            1.00000  -0.00000   0.00000
           Y            0.00000   1.00000   0.00000
           Z            0.00000   0.00000   1.00000
 This molecule is a prolate symmetric top.
 Rotational symmetry number  1.
 Rotational temperature (Kelvin)      2.18118
 Rotational constant (GHZ):          45.448455
    2 imaginary frequencies ignored.
 Zero-point vibrational energy      44607.8 (Joules/Mol)
                                   10.66153 (Kcal/Mol)
 Warning -- explicit consideration of   1 degrees of freedom as
           vibrations may cause significant error
 Vibrational temperatures:    594.27 10135.91
          (Kelvin)

 Zero-point correction=                           0.016990 (Hartree/Particle)
 Thermal correction to Energy=                    0.019648
 Thermal correction to Enthalpy=                  0.020592
 Thermal correction to Gibbs Free Energy=        -0.002747
 Sum of electronic and zero-point Energies=           -100.896443
 Sum of electronic and thermal Energies=              -100.893786
 Sum of electronic and thermal Enthalpies=            -100.892842
 Sum of electronic and thermal Free Energies=         -100.916181

                     E (Thermal)             CV                S
                      KCal/Mol        Cal/Mol-Kelvin    Cal/Mol-Kelvin
 Total                   12.329              6.410             49.121
 Electronic               0.000              0.000              1.377
 Translational            0.889              2.981             35.068
 Rotational               0.592              1.987             11.760
 Vibrational             10.848              1.442              0.916
 Vibration     1          0.777              1.442              0.916

 Normal termination of Gaussian 16 at Fri Aug 22 17:06:26 2025.
