 Gaussian 16, Revision C.01,
 Gaussian 16:  ES64L-G16RevC.01  3-Jul-2019

 -----------------------------------------
 # sp b3lyp/6-311g** Force nosymm scf=(qc)
 -----------------------------------------

 -------------------
 Title Card Required
 -------------------
 Symbolic Z-matrix:
 Charge =  0 Multiplicity = 2

                          Input orientation:
 ---------------------------------------------------------------------
 Center     Atomic      Atomic             Coordinates (Angstroms)
 Number     Number       Type             X           Y           Z
 ---------------------------------------------------------------------
      1          1           0        0.000000    0.000000    0.000000
      2          1           0       -1.900000    0.000000    0.000000
      3          9           0        2.250000    0.000000    0.000000
 ---------------------------------------------------------------------

 SCF Done:  E(UB3LYP) =  -100.793085075     a.u. after   14 cycles

 Alpha  occ. eigenvalues --  -24.70292  -1.16572  -0.49406  -0.41479  -0.41479
 Alpha  occ. eigenvalues --   -0.35857
 Alpha virt. eigenvalues --   -0.13090   0.24218   0.31554   0.87906   0.94305
 Alpha virt. eigenvalues --    0.94305   1.04460   1.21985   1.21985   1.23485
 Alpha virt. eigenvalues --    1.34257   1.34257   1.55542   2.11298   2.34820

  Beta  occ. eigenvalues --  -24.67601  -1.08955  -0.38806  -0.38806  -0.36102
  Beta virt. eigenvalues --   -0.22796  -0.11867   0.26535   0.31246   0.92472
  Beta virt. eigenvalues --    0.95507   0.95507   1.07830   1.22528   1.22528
  Beta virt. eigenvalues --    1.29080   1.35864   1.35864   1.55251   2.11980

 Mulliken charges and spin densities:
               1          2
     1  H    0.083031  -0.679474
     2  H    0.041817   0.831078
     3  F   -0.124848   0.848397
 Sum of Mulliken charges =   0.00000   1.00000

 Dipole moment (field-independent basis, Debye):
    X=             -1.7976    Y=              0.0000    Z=             -0.0000  Tot=              1.7976
 Quadrupole moment (field-independent basis, Debye-Ang):
   XX=             -8.3030   YY=             -7.6225   ZZ=             -7.6225
   XY=              0.0000   XZ=             -0.0000   YZ=              0.0000

  Exact polarizability:      57.368       0.000       2.028      -0.000      -0.000       2.028
 Approx polarizability:      67.979      -0.000       1.949       0.000      -0.000       1.949

 ******    2 imaginary frequencies (negative Signs) ******

                      1                      2                      3
                      A                      A                      A
 Frequencies --  -1604.4634              -483.6389               666.5832
 Red. masses --      1.0107                 1.1050                 1.0160
 Frc consts  --      1.5330                 0.1523                 0.2660
 IR Inten    --    136.6223                50.4329                 3.5179

                      4
                      A
 Frequencies --    666.5832
 Red. masses --      1.0160
 Frc consts  --      0.2660
 IR Inten    --      3.5179

 - Thermochemistry -
 -------------------
 Temperature   298.150 Kelvin.  Pressure   1.00000 Atm.
 Atom     1 has atomic number  1 and mass   1.00783

 Molecular mass:    21.01405 amu.
 Principal axes and moments of inertia in atomic units:
                           1         2         3
     Eigenvalues --     0.00000  73.13393  73.13393
           X            1.00000  -0.00000   0.00000
           Y            0.00000   1.00000   0.00000
           Z            0.00000   0.00000   1.00000
 This molecule is a prolate symmetric top.
 Rotational symmetry number  1.
 Rotational temperature (Kelvin)      1.18432
 Rotational constant (GHZ):          24.677209
    2 imaginary frequencies ignored.
 Zero-point vibrational energy       7974.1 (Joules/Mol)
                                    1.90586 (Kcal/Mol)
 Vibrational temperatures:    959.06   959.06
          (Kelvin)

 Zero-point correction=                           0.003037 (Hartree/Particle)
 Thermal correction to Energy=                    0.005651
 Thermal correction to Enthalpy=                  0.006595
 Thermal correction to Gibbs Free Energy=        -0.017216
 Sum of electronic and zero-point Energies=           -100.790048
 Sum of electronic and thermal Energies=              -100.787434
 Sum of electronic and thermal Enthalpies=            -100.786490
 Sum of electronic and thermal Free Energies=         -100.810301

                     E (Thermal)             CV                S
                      KCal/Mol        Cal/Mol-Kelvin    Cal/Mol-Kelvin
 Total                    3.546              6.757             50.115
 Electronic               0.000              0.000              1.377
 Translational            0.889              2.981             35.068
 Rotational               0.592              1.987             12.973
 Vibrational              2.065              1.789              0.696

 Normal termination of Gaussian 16 at Fri Aug 22 17:16:21 2025.
