 Gaussian 16, Revision C.01,
 Gaussian 16:  ES64L-G16RevC.01  3-Jul-2019

 -----------------------------------------
 # sp b3lyp/6-311g** Force nosymm scf=(qc)
 -----------------------------------------

 -------------------
 Title Card Required
 -------------------
 Symbolic Z-matrix:
 Charge =  0 Multiplicity = 2

                          Input orientation:
 ---------------------------------------------------------------------
 Center     Atomic      Atomic             Coordinates (Angstroms)
 Number     Number       Type             X           Y           Z
 ---------------------------------------------------------------------
      1          1           0        0.000000    0.000000    0.000000
      2          1           0       -1.700000    0.000000    0.000000
      3          9           0        3.550000    0.000000    0.000000
 ---------------------------------------------------------------------

 SCF Done:  E(UB3LYP) =  -100.794922623     a.u. after  179 cycles

 Alpha  occ. eigenvalues --  -24.76300  -1.22185  -0.55387  -0.46570  -0.46542
 Alpha  occ. eigenvalues --   -0.33041
 Alpha virt. eigenvalues --   -0.10517   0.25756   0.30942   0.85996   0.90872
 Alpha virt. eigenvalues --    0.91868   1.01198   1.07680   1.23875   1.23877
 Alpha virt. eigenvalues --    1.38312   1.38316   1.67807   2.16995   2.41839

  Beta  occ. eigenvalues --  -24.73146  -1.13113  -0.43416  -0.43379  -0.33025
  Beta virt. eigenvalues --   -0.26033  -0.10561   0.25735   0.31032   0.92375
  Beta virt. eigenvalues --    0.93315   0.95464   1.05288   1.07667   1.23868
  Beta virt. eigenvalues --    1.23872   1.38299   1.38300   1.67846   2.17284

 Mulliken charges and spin densities:
               1          2
     1  H    0.000479  -0.611640
     2  H   -0.002587   0.611641
     3  F    0.002109   0.999998
 Sum of Mulliken charges =   0.00000   1.00000

 Dipole moment (field-independent basis, Debye):
    X=              0.0430    Y=              0.0000    Z=              0.0000  Tot=              0.0430
 Quadrupole moment (field-independent basis, Debye-Ang):
   XX=             -6.5630   YY=             -7.7701   ZZ=             -6.9057
   XY=              0.0000   XZ=              0.0000   YZ=              0.0019

  Exact polarizability:      23.970       0.000       2.018       0.000       0.001       2.482
 Approx polarizability:      37.937       0.000       1.980      -0.000       0.001       2.563

 ******    2 imaginary frequencies (negative Signs) ******

                      1                      2                      3
                      A                      A                      A
 Frequencies --  -1905.7810               -35.6451               907.0413
 Red. masses --      1.0078                 1.1085                 1.0115
 Frc consts  --      2.1567                 0.0008                 0.4903
 IR Inten    --      0.0225                 0.1291                 0.0021

                      4
                      A
 Frequencies --    907.7153
 Red. masses --      1.0115
 Frc consts  --      0.4910
 IR Inten    --      0.0012

 - Thermochemistry -
 -------------------
 Temperature   298.150 Kelvin.  Pressure   1.00000 Atm.
 Atom     1 has atomic number  1 and mass   1.00783

 Molecular mass:    21.01405 amu.
 Principal axes and moments of inertia in atomic units:
                           1         2         3
     Eigenvalues --     0.00000 131.18750 131.18750
           X            1.00000  -0.00000   0.00000
           Y            0.00000   1.00000   0.00000
           Z            0.00000   0.00000   1.00000
 This molecule is a prolate symmetric top.
 Rotational symmetry number  1.
 Rotational temperature (Kelvin)      0.66023
 Rotational constant (GHZ):          13.756960
    2 imaginary frequencies ignored.
 Zero-point vibrational energy      10854.7 (Joules/Mol)
                                    2.59432 (Kcal/Mol)
 Vibrational temperatures:   1305.03  1306.00
          (Kelvin)

 Zero-point correction=                           0.004134 (Hartree/Particle)
 Thermal correction to Energy=                    0.006600
 Thermal correction to Enthalpy=                  0.007544
 Thermal correction to Gibbs Free Energy=        -0.016617
 Sum of electronic and zero-point Energies=           -100.790788
 Sum of electronic and thermal Energies=              -100.788323
 Sum of electronic and thermal Enthalpies=            -100.787379
 Sum of electronic and thermal Free Energies=         -100.811540

                     E (Thermal)             CV                S
                      KCal/Mol        Cal/Mol-Kelvin    Cal/Mol-Kelvin
 Total                    4.141              5.948             50.851
 Electronic               0.000              0.000              1.377
 Translational            0.889              2.981             35.068
 Rotational               0.592              1.987             14.135
 Vibrational              2.660              0.980              0.271

 Normal termination of Gaussian 16 at Fri Aug 22 22:37:55 2025.
