 Gaussian 16, Revision C.01,
 Gaussian 16:  ES64L-G16RevC.01  3-Jul-2019

 -----------------------------------------
 # sp b3lyp/6-311g** Force nosymm scf=(qc)
 -----------------------------------------

 -------------------
 Title Card Required
 -------------------
 Symbolic Z-matrix:
 Charge =  0 Multiplicity = 2

                          Input orientation:
 ---------------------------------------------------------------------
 Center     Atomic      Atomic             Coordinates (Angstroms)
 Number     Number       Type             X           Y           Z
 ---------------------------------------------------------------------
      1          1           0        0.000000    0.000000    0.000000
      2          1           0       -2.400000    0.000000    0.000000
      3          9           0        2.300000    0.000000    0.000000
 ---------------------------------------------------------------------

 SCF Done:  E(UB3LYP) =  -100.777586084     a.u. after   19 cycles

 Alpha  occ. eigenvalues --  -24.70430  -1.16702  -0.49505  -0.41599  -0.41599
 Alpha  occ. eigenvalues --   -0.34393
 Alpha virt. eigenvalues --   -0.12834   0.24592   0.32473   0.89366   0.94277
 Alpha virt. eigenvalues --    0.94277   1.06595   1.23305   1.23305   1.26976
 Alpha virt. eigenvalues --    1.36398   1.36398   1.47153   2.13783   2.31280

  Beta  occ. eigenvalues --  -24.67719  -1.09026  -0.38905  -0.38905  -0.36108
  Beta virt. eigenvalues --   -0.22534  -0.10171   0.25884   0.34175   0.94423
  Beta virt. eigenvalues --    0.95503   0.95503   1.09090   1.22002   1.22002
  Beta virt. eigenvalues --    1.37496   1.40580   1.40580   1.42987   2.13226

 Mulliken charges and spin densities:
               1          2
     1  H    0.105231  -0.815714
     2  H    0.017032   0.960806
     3  F   -0.122263   0.854908
 Sum of Mulliken charges =  -0.00000   1.00000

 Dipole moment (field-independent basis, Debye):
    X=             -1.6139    Y=             -0.0000    Z=              0.0000  Tot=              1.6139
 Quadrupole moment (field-independent basis, Debye-Ang):
   XX=             -9.0056   YY=             -7.5902   ZZ=             -7.5902
   XY=             -0.0000   XZ=              0.0000   YZ=             -0.0000

  Exact polarizability:      44.401      -0.000       2.023       0.000      -0.000       2.023
 Approx polarizability:      49.393       0.000       1.923      -0.000      -0.000       1.923

 ******    2 imaginary frequencies (negative Signs) ******

                      1                      2                      3
                      A                      A                      A
 Frequencies --   -977.2460              -401.9552               398.7051
 Red. masses --      1.0240                 1.0896                 1.0185
 Frc consts  --      0.5762                 0.1037                 0.0954
 IR Inten    --     64.5502                29.1950                 8.7693

                      4
                      A
 Frequencies --    398.7051
 Red. masses --      1.0185
 Frc consts  --      0.0954
 IR Inten    --      8.7693

 - Thermochemistry -
 -------------------
 Temperature   298.150 Kelvin.  Pressure   1.00000 Atm.
 Atom     1 has atomic number  1 and mass   1.00783

 Molecular mass:    21.01405 amu.
 Principal axes and moments of inertia in atomic units:
                           1         2         3
     Eigenvalues --     0.00000  90.08311  90.08311
           X            1.00000  -0.00000   0.00000
           Y            0.00000   1.00000   0.00000
           Z            0.00000   0.00000   1.00000
 This molecule is a prolate symmetric top.
 Rotational symmetry number  1.
 Rotational temperature (Kelvin)      0.96149
 Rotational constant (GHZ):          20.034178
    2 imaginary frequencies ignored.
 Zero-point vibrational energy       4769.6 (Joules/Mol)
                                    1.13996 (Kcal/Mol)
 Warning -- explicit consideration of   2 degrees of freedom as
           vibrations may cause significant error
 Vibrational temperatures:    573.65   573.65
          (Kelvin)

 Zero-point correction=                           0.001817 (Hartree/Particle)
 Thermal correction to Energy=                    0.004798
 Thermal correction to Enthalpy=                  0.005743
 Thermal correction to Gibbs Free Energy=        -0.018854
 Sum of electronic and zero-point Energies=           -100.775769
 Sum of electronic and thermal Energies=              -100.772788
 Sum of electronic and thermal Enthalpies=            -100.771844
 Sum of electronic and thermal Free Energies=         -100.796440

                     E (Thermal)             CV                S
                      KCal/Mol        Cal/Mol-Kelvin    Cal/Mol-Kelvin
 Total                    3.011              7.914             51.768
 Electronic               0.000              0.000              1.377
 Translational            0.889              2.981             35.068
 Rotational               0.592              1.987             13.388
 Vibrational              1.530              2.946              1.935
 Vibration     1          0.765              1.473              0.967
 Vibration     2          0.765              1.473              0.967

 Normal termination of Gaussian 16 at Fri Aug 22 17:22:17 2025.
