 Gaussian 16, Revision C.01,
 Gaussian 16:  ES64L-G16RevC.01  3-Jul-2019

 -----------------------------------------
 # sp b3lyp/6-311g** Force nosymm scf=(qc)
 -----------------------------------------

 -------------------
 Title Card Required
 -------------------
 Symbolic Z-matrix:
 Charge =  0 Multiplicity = 2

                          Input orientation:
 ---------------------------------------------------------------------
 Center     Atomic      Atomic             Coordinates (Angstroms)
 Number     Number       Type             X           Y           Z
 ---------------------------------------------------------------------
      1          1           0        0.000000    0.000000    0.000000
      2          1           0       -1.600000    0.000000    0.000000
      3          9           0        0.650000    0.000000    0.000000
 ---------------------------------------------------------------------

 SCF Done:  E(UB3LYP) =  -100.796484511     a.u. after    7 cycles

 Alpha  occ. eigenvalues --  -24.62942  -1.31479  -0.60353  -0.42392  -0.42392
 Alpha  occ. eigenvalues --   -0.35766
 Alpha virt. eigenvalues --    0.13075   0.22284   0.54468   0.92678   0.92678
 Alpha virt. eigenvalues --    0.94505   1.19394   1.19394   1.32982   1.49223
 Alpha virt. eigenvalues --    1.49223   1.59777   1.99574   2.17582   3.24228

  Beta  occ. eigenvalues --  -24.62855  -1.31221  -0.59894  -0.42330  -0.42330
  Beta virt. eigenvalues --   -0.11633   0.14346   0.31117   0.58255   0.92764
  Beta virt. eigenvalues --    0.92764   0.94706   1.34873   1.34873   1.39063
  Beta virt. eigenvalues --    1.52417   1.52417   1.68764   2.00099   2.41057

 Mulliken charges and spin densities:
               1          2
     1  H    0.236265   0.014810
     2  H    0.012445   0.974376
     3  F   -0.248710   0.010813
 Sum of Mulliken charges =   0.00000   1.00000

 Dipole moment (field-independent basis, Debye):
    X=             -1.5658    Y=              0.0000    Z=             -0.0000  Tot=              1.5658
 Quadrupole moment (field-independent basis, Debye-Ang):
   XX=             -6.9289   YY=             -6.5359   ZZ=             -6.5359
   XY=              0.0000   XZ=             -0.0000   YZ=             -0.0000

  Exact polarizability:       6.664      -0.000       2.519       0.000       0.000       2.519
 Approx polarizability:       6.431      -0.000       2.526       0.000       0.000       2.526

 ******    2 imaginary frequencies (negative Signs) ******

                      1                      2                      3
                      A                      A                      A
 Frequencies --  -4490.8481             -4490.8481               728.6538
 Red. masses --      1.0314                 1.0314                 1.0534
 Frc consts  --     12.2559                12.2559                 0.3295
 IR Inten    --    168.2507               168.2507                 1.8995

                      4
                      A
 Frequencies --  10866.8415
 Red. masses --      1.0581
 Frc consts  --     73.6207
 IR Inten    --    132.3706

 - Thermochemistry -
 -------------------
 Temperature   298.150 Kelvin.  Pressure   1.00000 Atm.
 Atom     1 has atomic number  1 and mass   1.00783

 Molecular mass:    21.01405 amu.
 Principal axes and moments of inertia in atomic units:
                           1         2         3
     Eigenvalues --     0.00000  18.28894  18.28894
           X            1.00000  -0.00000   0.00000
           Y            0.00000   1.00000   0.00000
           Z            0.00000   0.00000   1.00000
 This molecule is a prolate symmetric top.
 Rotational symmetry number  1.
 Rotational temperature (Kelvin)      4.73586
 Rotational constant (GHZ):          98.679389
    2 imaginary frequencies ignored.
 Zero-point vibrational energy      69356.5 (Joules/Mol)
                                   16.57659 (Kcal/Mol)
 Vibrational temperatures:   1048.37 15634.96
          (Kelvin)

 Zero-point correction=                           0.026416 (Hartree/Particle)
 Thermal correction to Energy=                    0.028879
 Thermal correction to Enthalpy=                  0.029823
 Thermal correction to Gibbs Free Energy=         0.007521
 Sum of electronic and zero-point Energies=           -100.770068
 Sum of electronic and thermal Energies=              -100.767606
 Sum of electronic and thermal Enthalpies=            -100.766662
 Sum of electronic and thermal Free Energies=         -100.788964

                     E (Thermal)             CV                S
                      KCal/Mol        Cal/Mol-Kelvin    Cal/Mol-Kelvin
 Total                   18.122              5.743             46.938
 Electronic               0.000              0.000              1.377
 Translational            0.889              2.981             35.068
 Rotational               0.592              1.987             10.219
 Vibrational             16.640              0.775              0.274

 Normal termination of Gaussian 16 at Fri Aug 22 15:43:48 2025.
