 Gaussian 16, Revision C.01,
 Gaussian 16:  ES64L-G16RevC.01  3-Jul-2019

 -----------------------------------------
 # sp b3lyp/6-311g** Force nosymm scf=(qc)
 -----------------------------------------

 -------------------
 Title Card Required
 -------------------
 Symbolic Z-matrix:
 Charge =  0 Multiplicity = 2

                          Input orientation:
 ---------------------------------------------------------------------
 Center     Atomic      Atomic             Coordinates (Angstroms)
 Number     Number       Type             X           Y           Z
 ---------------------------------------------------------------------
      1          1           0        0.000000    0.000000    0.000000
      2          1           0       -0.650000    0.000000    0.000000
      3          9           0        1.400000    0.000000    0.000000
 ---------------------------------------------------------------------

 SCF Done:  E(UB3LYP) =  -100.925664319     a.u. after    7 cycles

 Alpha  occ. eigenvalues --  -24.70830  -1.18420  -0.58651  -0.42698  -0.42698
 Alpha  occ. eigenvalues --   -0.42519
 Alpha virt. eigenvalues --    0.11141   0.19466   0.48981   0.88095   0.88095
 Alpha virt. eigenvalues --    0.96767   1.10207   1.10207   1.39432   1.63874
 Alpha virt. eigenvalues --    1.87371   1.87371   1.88757   2.43969   3.46177

  Beta  occ. eigenvalues --  -24.68218  -1.11352  -0.50589  -0.40184  -0.40184
  Beta virt. eigenvalues --   -0.22491   0.12294   0.20285   0.51772   0.89338
  Beta virt. eigenvalues --    0.89338   1.02615   1.12637   1.12637   1.43329
  Beta virt. eigenvalues --    1.67029   1.88879   1.88879   1.89727   2.47444

 Mulliken charges and spin densities:
               1          2
     1  H    0.164520  -0.030219
     2  H   -0.004673   0.255513
     3  F   -0.159847   0.774706
 Sum of Mulliken charges =   0.00000   1.00000

 Dipole moment (field-independent basis, Debye):
    X=             -1.1209    Y=             -0.0000    Z=             -0.0000  Tot=              1.1209
 Quadrupole moment (field-independent basis, Debye-Ang):
   XX=             -6.8765   YY=             -6.6337   ZZ=             -6.6337
   XY=             -0.0000   XZ=              0.0000   YZ=             -0.0000

  Exact polarizability:      16.677       0.000       2.319      -0.000       0.000       2.319
 Approx polarizability:      20.705      -0.000       2.368       0.000       0.000       2.368

 ******    2 imaginary frequencies (negative Signs) ******

                      1                      2                      3
                      A                      A                      A
 Frequencies --  -2248.4305             -2248.4305               473.6853
 Red. masses --      1.0113                 1.0113                 1.1083
 Frc consts  --      3.0122                 3.0122                 0.1465
 IR Inten    --      1.0971                 1.0971                68.0667

                      4
                      A
 Frequencies --   5677.2565
 Red. masses --      1.0080
 Frc consts  --     19.1416
 IR Inten    --    585.5449

 - Thermochemistry -
 -------------------
 Temperature   298.150 Kelvin.  Pressure   1.00000 Atm.
 Atom     1 has atomic number  1 and mass   1.00783

 Molecular mass:    21.01405 amu.
 Principal axes and moments of inertia in atomic units:
                           1         2         3
     Eigenvalues --     0.00000  20.12444  20.12444
           X            1.00000  -0.00000   0.00000
           Y            0.00000   1.00000   0.00000
           Z            0.00000   0.00000   1.00000
 This molecule is a prolate symmetric top.
 Rotational symmetry number  1.
 Rotational temperature (Kelvin)      4.30392
 Rotational constant (GHZ):          89.679093
    2 imaginary frequencies ignored.
 Zero-point vibrational energy      36790.8 (Joules/Mol)
                                    8.79321 (Kcal/Mol)
 Warning -- explicit consideration of   1 degrees of freedom as
           vibrations may cause significant error
 Vibrational temperatures:    681.53  8168.31
          (Kelvin)

 Zero-point correction=                           0.014013 (Hartree/Particle)
 Thermal correction to Energy=                    0.016618
 Thermal correction to Enthalpy=                  0.017562
 Thermal correction to Gibbs Free Energy=        -0.005046
 Sum of electronic and zero-point Energies=           -100.911651
 Sum of electronic and thermal Energies=              -100.909047
 Sum of electronic and thermal Enthalpies=            -100.908102
 Sum of electronic and thermal Free Energies=         -100.930710

                     E (Thermal)             CV                S
                      KCal/Mol        Cal/Mol-Kelvin    Cal/Mol-Kelvin
 Total                   10.428              6.276             47.582
 Electronic               0.000              0.000              1.377
 Translational            0.889              2.981             35.068
 Rotational               0.592              1.987             10.409
 Vibrational              8.947              1.308              0.727
 Vibration     1          0.830              1.308              0.727

 Normal termination of Gaussian 16 at Fri Aug 22 16:19:05 2025.
