 Gaussian 16, Revision C.01,
 Gaussian 16:  ES64L-G16RevC.01  3-Jul-2019

 -----------------------------------------
 # sp b3lyp/6-311g** Force nosymm scf=(qc)
 -----------------------------------------

 -------------------
 Title Card Required
 -------------------
 Symbolic Z-matrix:
 Charge =  0 Multiplicity = 2

                          Input orientation:
 ---------------------------------------------------------------------
 Center     Atomic      Atomic             Coordinates (Angstroms)
 Number     Number       Type             X           Y           Z
 ---------------------------------------------------------------------
      1          1           0        0.000000    0.000000    0.000000
      2          1           0       -2.050000    0.000000    0.000000
      3          9           0        2.250000    0.000000    0.000000
 ---------------------------------------------------------------------

 SCF Done:  E(UB3LYP) =  -100.786861874     a.u. after   13 cycles

 Alpha  occ. eigenvalues --  -24.70128  -1.16411  -0.49215  -0.41338  -0.41338
 Alpha  occ. eigenvalues --   -0.35439
 Alpha virt. eigenvalues --   -0.13249   0.24456   0.31835   0.88669   0.94409
 Alpha virt. eigenvalues --    0.94409   1.05562   1.22475   1.22475   1.25893
 Alpha virt. eigenvalues --    1.34571   1.34571   1.50768   2.11020   2.32537

  Beta  occ. eigenvalues --  -24.67450  -1.08837  -0.38679  -0.38679  -0.36161
  Beta virt. eigenvalues --   -0.22523  -0.11600   0.26492   0.32172   0.93347
  Beta virt. eigenvalues --    0.95596   0.95596   1.08571   1.22461   1.22461
  Beta virt. eigenvalues --    1.33341   1.37075   1.37075   1.49018   2.11501

 Mulliken charges and spin densities:
               1          2
     1  H    0.094381  -0.736387
     2  H    0.034421   0.892334
     3  F   -0.128802   0.844053
 Sum of Mulliken charges =  -0.00000   1.00000

 Dipole moment (field-independent basis, Debye):
    X=             -1.7986    Y=              0.0000    Z=              0.0000  Tot=              1.7986
 Quadrupole moment (field-independent basis, Debye-Ang):
   XX=             -8.5707   YY=             -7.6107   ZZ=             -7.6107
   XY=              0.0000   XZ=              0.0000   YZ=             -0.0000

  Exact polarizability:      53.960       0.000       2.025       0.000       0.000       2.025
 Approx polarizability:      60.658      -0.000       1.936      -0.000       0.000       1.936

 ******    2 imaginary frequencies (negative Signs) ******

                      1                      2                      3
                      A                      A                      A
 Frequencies --  -1366.4968              -480.9101               558.1187
 Red. masses --      1.0129                 1.1024                 1.0169
 Frc consts  --      1.1144                 0.1502                 0.1866
 IR Inten    --     83.3904                48.6047                 5.5203

                      4
                      A
 Frequencies --    558.1187
 Red. masses --      1.0169
 Frc consts  --      0.1866
 IR Inten    --      5.5203

 - Thermochemistry -
 -------------------
 Temperature   298.150 Kelvin.  Pressure   1.00000 Atm.
 Atom     1 has atomic number  1 and mass   1.00783

 Molecular mass:    21.01405 amu.
 Principal axes and moments of inertia in atomic units:
                           1         2         3
     Eigenvalues --     0.00000  77.36038  77.36038
           X            1.00000  -0.00000   0.00000
           Y            0.00000   1.00000   0.00000
           Z            0.00000   0.00000   1.00000
 This molecule is a prolate symmetric top.
 Rotational symmetry number  1.
 Rotational temperature (Kelvin)      1.11962
 Rotational constant (GHZ):          23.329011
    2 imaginary frequencies ignored.
 Zero-point vibrational energy       6676.6 (Joules/Mol)
                                    1.59574 (Kcal/Mol)
 Warning -- explicit consideration of   2 degrees of freedom as
           vibrations may cause significant error
 Vibrational temperatures:    803.01   803.01
          (Kelvin)

 Zero-point correction=                           0.002543 (Hartree/Particle)
 Thermal correction to Energy=                    0.005273
 Thermal correction to Enthalpy=                  0.006217
 Thermal correction to Gibbs Free Energy=        -0.017818
 Sum of electronic and zero-point Energies=           -100.784319
 Sum of electronic and thermal Energies=              -100.781589
 Sum of electronic and thermal Enthalpies=            -100.780645
 Sum of electronic and thermal Free Energies=         -100.804680

                     E (Thermal)             CV                S
                      KCal/Mol        Cal/Mol-Kelvin    Cal/Mol-Kelvin
 Total                    3.309              7.212             50.586
 Electronic               0.000              0.000              1.377
 Translational            0.889              2.981             35.068
 Rotational               0.592              1.987             13.085
 Vibrational              1.827              2.244              1.055
 Vibration     1          0.914              1.122              0.528
 Vibration     2          0.914              1.122              0.528

 Normal termination of Gaussian 16 at Fri Aug 22 17:16:29 2025.
