 Gaussian 16, Revision C.01,
 Gaussian 16:  ES64L-G16RevC.01  3-Jul-2019

 -----------------------------------------
 # sp b3lyp/6-311g** Force nosymm scf=(qc)
 -----------------------------------------

 -------------------
 Title Card Required
 -------------------
 Symbolic Z-matrix:
 Charge =  0 Multiplicity = 2

                          Input orientation:
 ---------------------------------------------------------------------
 Center     Atomic      Atomic             Coordinates (Angstroms)
 Number     Number       Type             X           Y           Z
 ---------------------------------------------------------------------
      1          1           0        0.000000    0.000000    0.000000
      2          1           0       -2.050000    0.000000    0.000000
      3          9           0        3.250000    0.000000    0.000000
 ---------------------------------------------------------------------

 SCF Done:  E(UB3LYP) =  -100.773154724     a.u. after   27 cycles

 Alpha  occ. eigenvalues --  -24.75076  -1.21060  -0.54196  -0.45507  -0.45507
 Alpha  occ. eigenvalues --   -0.33290
 Alpha virt. eigenvalues --   -0.11223   0.25729   0.32246   0.88564   0.91664
 Alpha virt. eigenvalues --    0.91664   1.02609   1.18784   1.24664   1.24664
 Alpha virt. eigenvalues --    1.37712   1.37712   1.48966   2.12938   2.36244

  Beta  occ. eigenvalues --  -24.71987  -1.12191  -0.42412  -0.42412  -0.33431
  Beta virt. eigenvalues --   -0.25371  -0.10780   0.25785   0.32854   0.93145
  Beta virt. eigenvalues --    0.93145   0.97561   1.06596   1.18688   1.24465
  Beta virt. eigenvalues --    1.24465   1.38374   1.38374   1.49479   2.13873

 Mulliken charges and spin densities:
               1          2
     1  H    0.009189  -0.859428
     2  H    0.009021   0.880218
     3  F   -0.018210   0.979211
 Sum of Mulliken charges =  -0.00000   1.00000

 Dipole moment (field-independent basis, Debye):
    X=             -0.3914    Y=              0.0000    Z=             -0.0000  Tot=              0.3914
 Quadrupole moment (field-independent basis, Debye-Ang):
   XX=             -7.0034   YY=             -7.7137   ZZ=             -7.7137
   XY=             -0.0000   XZ=              0.0000   YZ=              0.0000

  Exact polarizability:      51.555      -0.000       2.010       0.000       0.000       2.010
 Approx polarizability:      43.936      -0.000       1.932       0.000      -0.000       1.932

 ******    2 imaginary frequencies (negative Signs) ******

                      1                      2                      3
                      A                      A                      A
 Frequencies --  -1271.7071              -183.7466               507.5451
 Red. masses --      1.0079                 1.1084                 1.0133
 Frc consts  --      0.9604                 0.0220                 0.1538
 IR Inten    --     20.1996                15.7558                 0.0259

                      4
                      A
 Frequencies --    507.5451
 Red. masses --      1.0133
 Frc consts  --      0.1538
 IR Inten    --      0.0259

 - Thermochemistry -
 -------------------
 Temperature   298.150 Kelvin.  Pressure   1.00000 Atm.
 Atom     1 has atomic number  1 and mass   1.00783

 Molecular mass:    21.01405 amu.
 Principal axes and moments of inertia in atomic units:
                           1         2         3
     Eigenvalues --     0.00000 126.49268 126.49268
           X            1.00000  -0.00000   0.00000
           Y            0.00000   1.00000   0.00000
           Z            0.00000   0.00000   1.00000
 This molecule is a prolate symmetric top.
 Rotational symmetry number  1.
 Rotational temperature (Kelvin)      0.68473
 Rotational constant (GHZ):          14.267554
    2 imaginary frequencies ignored.
 Zero-point vibrational energy       6071.6 (Joules/Mol)
                                    1.45114 (Kcal/Mol)
 Warning -- explicit consideration of   2 degrees of freedom as
           vibrations may cause significant error
 Vibrational temperatures:    730.24   730.24
          (Kelvin)

 Zero-point correction=                           0.002313 (Hartree/Particle)
 Thermal correction to Energy=                    0.005110
 Thermal correction to Enthalpy=                  0.006054
 Thermal correction to Gibbs Free Energy=        -0.018551
 Sum of electronic and zero-point Energies=           -100.770842
 Sum of electronic and thermal Energies=              -100.768045
 Sum of electronic and thermal Enthalpies=            -100.767100
 Sum of electronic and thermal Free Energies=         -100.791706

                     E (Thermal)             CV                S
                      KCal/Mol        Cal/Mol-Kelvin    Cal/Mol-Kelvin
 Total                    3.207              7.435             51.787
 Electronic               0.000              0.000              1.377
 Translational            0.889              2.981             35.068
 Rotational               0.592              1.987             14.062
 Vibrational              1.725              2.467              1.279
 Vibration     1          0.863              1.233              0.640
 Vibration     2          0.863              1.233              0.640

 Normal termination of Gaussian 16 at Fri Aug 22 20:34:28 2025.
