 Gaussian 16, Revision C.01,
 Gaussian 16:  ES64L-G16RevC.01  3-Jul-2019

 -----------------------------------------
 # sp b3lyp/6-311g** Force nosymm scf=(qc)
 -----------------------------------------

 -------------------
 Title Card Required
 -------------------
 Symbolic Z-matrix:
 Charge =  0 Multiplicity = 2

                          Input orientation:
 ---------------------------------------------------------------------
 Center     Atomic      Atomic             Coordinates (Angstroms)
 Number     Number       Type             X           Y           Z
 ---------------------------------------------------------------------
      1          1           0        0.000000    0.000000    0.000000
      2          1           0       -3.000000    0.000000    0.000000
      3          9           0        3.800000    0.000000    0.000000
 ---------------------------------------------------------------------

 SCF Done:  E(UB3LYP) =  -100.759619830     a.u. after   33 cycles

 Alpha  occ. eigenvalues --  -24.75765  -1.21701  -0.54889  -0.46086  -0.46086
 Alpha  occ. eigenvalues --   -0.32367
 Alpha virt. eigenvalues --   -0.07770   0.25038   0.36370   0.86856   0.91242
 Alpha virt. eigenvalues --    0.91242   1.01257   1.25169   1.25169   1.25874
 Alpha virt. eigenvalues --    1.44255   1.44285   1.44285   2.15791   2.39552

  Beta  occ. eigenvalues --  -24.72627  -1.12679  -0.42941  -0.42941  -0.32608
  Beta virt. eigenvalues --   -0.25679  -0.07474   0.24854   0.36799   0.92739
  Beta virt. eigenvalues --    0.92739   0.96167   1.05357   1.24900   1.24900
  Beta virt. eigenvalues --    1.25582   1.44709   1.44738   1.44738   2.15889

 Mulliken charges and spin densities:
               1          2
     1  H    0.004219  -0.987258
     2  H    0.000362   0.992369
     3  F   -0.004581   0.994889
 Sum of Mulliken charges =   0.00000   1.00000

 Dipole moment (field-independent basis, Debye):
    X=             -0.0950    Y=             -0.0000    Z=             -0.0000  Tot=              0.0950
 Quadrupole moment (field-independent basis, Debye-Ang):
   XX=             -6.9717   YY=             -7.6361   ZZ=             -7.6361
   XY=             -0.0000   XZ=             -0.0000   YZ=              0.0000

  Exact polarizability:      17.798      -0.000       2.028       0.000       0.000       2.028
 Approx polarizability:      13.162      -0.000       1.934      -0.000      -0.000       1.934

 ******    2 imaginary frequencies (negative Signs) ******

                      1                      2                      3
                      A                      A                      A
 Frequencies --   -341.3983               -93.8060               120.1559
 Red. masses --      1.0085                 1.1077                 1.0153
 Frc consts  --      0.0693                 0.0057                 0.0086
 IR Inten    --      1.8475                 1.4920                 0.0157

                      4
                      A
 Frequencies --    120.1559
 Red. masses --      1.0153
 Frc consts  --      0.0086
 IR Inten    --      0.0157

 - Thermochemistry -
 -------------------
 Temperature   298.150 Kelvin.  Pressure   1.00000 Atm.
 Atom     1 has atomic number  1 and mass   1.00783

 Molecular mass:    21.01405 amu.
 Principal axes and moments of inertia in atomic units:
                           1         2         3
     Eigenvalues --     0.00000 198.99373 198.99373
           X            1.00000  -0.00000   0.00000
           Y            0.00000   1.00000   0.00000
           Z            0.00000   0.00000   1.00000
 This molecule is a prolate symmetric top.
 Rotational symmetry number  1.
 Rotational temperature (Kelvin)      0.43526
 Rotational constant (GHZ):           9.069337
    2 imaginary frequencies ignored.
 Zero-point vibrational energy       1437.4 (Joules/Mol)
                                    0.34354 (Kcal/Mol)
 Warning -- explicit consideration of   2 degrees of freedom as
           vibrations may cause significant error
 Vibrational temperatures:    172.88   172.88
          (Kelvin)

 Zero-point correction=                           0.000547 (Hartree/Particle)
 Thermal correction to Energy=                    0.004301
 Thermal correction to Enthalpy=                  0.005246
 Thermal correction to Gibbs Free Energy=        -0.022124
 Sum of electronic and zero-point Energies=           -100.759072
 Sum of electronic and thermal Energies=              -100.755318
 Sum of electronic and thermal Enthalpies=            -100.754374
 Sum of electronic and thermal Free Energies=         -100.781744

                     E (Thermal)             CV                S
                      KCal/Mol        Cal/Mol-Kelvin    Cal/Mol-Kelvin
 Total                    2.699              8.833             57.604
 Electronic               0.000              0.000              1.377
 Translational            0.889              2.981             35.068
 Rotational               0.592              1.987             14.962
 Vibrational              1.218              3.865              6.196
 Vibration     1          0.609              1.932              3.098
 Vibration     2          0.609              1.932              3.098

 Normal termination of Gaussian 16 at Sat Aug 23 00:51:22 2025.
