 Gaussian 16, Revision C.01,
 Gaussian 16:  ES64L-G16RevC.01  3-Jul-2019

 -----------------------------------------
 # sp b3lyp/6-311g** Force nosymm scf=(qc)
 -----------------------------------------

 -------------------
 Title Card Required
 -------------------
 Symbolic Z-matrix:
 Charge =  0 Multiplicity = 2

                          Input orientation:
 ---------------------------------------------------------------------
 Center     Atomic      Atomic             Coordinates (Angstroms)
 Number     Number       Type             X           Y           Z
 ---------------------------------------------------------------------
      1          1           0        0.000000    0.000000    0.000000
      2          1           0       -1.650000    0.000000    0.000000
      3          9           0        3.400000    0.000000    0.000000
 ---------------------------------------------------------------------

 SCF Done:  E(UB3LYP) =  -100.800286887     a.u. after   99 cycles

 Alpha  occ. eigenvalues --  -24.76320  -1.22198  -0.55396  -0.46592  -0.46557
 Alpha  occ. eigenvalues --   -0.33166
 Alpha virt. eigenvalues --   -0.10418   0.25586   0.30678   0.86076   0.90857
 Alpha virt. eigenvalues --    0.92158   1.01522   1.06952   1.23192   1.23194
 Alpha virt. eigenvalues --    1.38782   1.38786   1.71214   2.18180   2.43188

  Beta  occ. eigenvalues --  -24.73168  -1.13135  -0.43445  -0.43397  -0.33144
  Beta virt. eigenvalues --   -0.26068  -0.10446   0.25591   0.30793   0.92358
  Beta virt. eigenvalues --    0.93532   0.95601   1.05570   1.06947   1.23188
  Beta virt. eigenvalues --    1.23192   1.38782   1.38784   1.71286   2.18530

 Mulliken charges and spin densities:
               1          2
     1  H    0.000209  -0.539774
     2  H   -0.002234   0.540713
     3  F    0.002025   0.999060
 Sum of Mulliken charges =   0.00000   1.00000

 Dipole moment (field-independent basis, Debye):
    X=              0.0321    Y=              0.0007    Z=             -0.0001  Tot=              0.0321
 Quadrupole moment (field-independent basis, Debye-Ang):
   XX=             -6.4393   YY=             -6.9859   ZZ=             -7.7624
   XY=              0.2300   XZ=             -0.0259   YZ=             -0.0885

  Exact polarizability:      -4.719       0.464       2.441      -0.291      -0.044       2.026
 Approx polarizability:      41.363       0.122       2.522      -0.014      -0.060       1.999

 ******    1 imaginary frequencies (negative Signs) ******

                      1                      2                      3
                      A                      A                      A
 Frequencies --  -1954.7179                76.7572               978.6383
 Red. masses --      1.0078                 1.1085                 1.0115
 Frc consts  --      2.2689                 0.0038                 0.5708
 IR Inten    --    142.8579                11.1447                 0.0157

                      4
                      A
 Frequencies --    979.8015
 Red. masses --      1.0115
 Frc consts  --      0.5722
 IR Inten    --      2.8737

 - Thermochemistry -
 -------------------
 Temperature   298.150 Kelvin.  Pressure   1.00000 Atm.
 Atom     1 has atomic number  1 and mass   1.00783

 Molecular mass:    21.01405 amu.
 Principal axes and moments of inertia in atomic units:
                           1         2         3
     Eigenvalues --     0.00000 121.06369 121.06369
           X            1.00000  -0.00000   0.00000
           Y            0.00000   1.00000   0.00000
           Z            0.00000   0.00000   1.00000
 This molecule is a prolate symmetric top.
 Rotational symmetry number  1.
 Rotational temperature (Kelvin)      0.71544
 Rotational constant (GHZ):          14.907370
    1 imaginary frequencies ignored.
 Zero-point vibrational energy      12173.2 (Joules/Mol)
                                    2.90946 (Kcal/Mol)
 Warning -- explicit consideration of   1 degrees of freedom as
           vibrations may cause significant error
 Vibrational temperatures:    110.44  1408.04  1409.72
          (Kelvin)

 Zero-point correction=                           0.004637 (Hartree/Particle)
 Thermal correction to Energy=                    0.007857
 Thermal correction to Enthalpy=                  0.008801
 Thermal correction to Gibbs Free Energy=        -0.017139
 Sum of electronic and zero-point Energies=           -100.795650
 Sum of electronic and thermal Energies=              -100.792430
 Sum of electronic and thermal Enthalpies=            -100.791486
 Sum of electronic and thermal Free Energies=         -100.817426

                     E (Thermal)             CV                S
                      KCal/Mol        Cal/Mol-Kelvin    Cal/Mol-Kelvin
 Total                    4.930              7.734             54.596
 Electronic               0.000              0.000              1.377
 Translational            0.889              2.981             35.068
 Rotational               0.592              1.987             13.975
 Vibrational              3.449              2.766              4.176
 Vibration     1          0.599              1.965              3.972

 Normal termination of Gaussian 16 at Fri Aug 22 21:15:57 2025.
