 Gaussian 16, Revision C.01,
 Gaussian 16:  ES64L-G16RevC.01  3-Jul-2019

 -----------------------------------------
 # sp b3lyp/6-311g** Force nosymm scf=(qc)
 -----------------------------------------

 -------------------
 Title Card Required
 -------------------
 Symbolic Z-matrix:
 Charge =  0 Multiplicity = 2

                          Input orientation:
 ---------------------------------------------------------------------
 Center     Atomic      Atomic             Coordinates (Angstroms)
 Number     Number       Type             X           Y           Z
 ---------------------------------------------------------------------
      1          1           0        0.000000    0.000000    0.000000
      2          1           0       -0.750000    0.000000    0.000000
      3          9           0        1.350000    0.000000    0.000000
 ---------------------------------------------------------------------

 SCF Done:  E(UB3LYP) =  -100.939429188     a.u. after    6 cycles

 Alpha  occ. eigenvalues --  -24.69544  -1.17450  -0.57645  -0.41749  -0.41749
 Alpha  occ. eigenvalues --   -0.40968
 Alpha virt. eigenvalues --    0.10038   0.19423   0.44760   0.88200   0.88200
 Alpha virt. eigenvalues --    0.97080   1.08884   1.08884   1.38322   1.64632
 Alpha virt. eigenvalues --    1.79952   1.79952   2.00039   2.39724   3.05406

  Beta  occ. eigenvalues --  -24.67160  -1.11065  -0.49275  -0.39472  -0.39472
  Beta virt. eigenvalues --   -0.22239   0.11591   0.20460   0.47993   0.89459
  Beta virt. eigenvalues --    0.89459   1.02391   1.11849   1.11849   1.42166
  Beta virt. eigenvalues --    1.68413   1.81915   1.81915   2.00940   2.44114

 Mulliken charges and spin densities:
               1          2
     1  H    0.190073  -0.042198
     2  H    0.007128   0.340894
     3  F   -0.197201   0.701303
 Sum of Mulliken charges =   0.00000   1.00000

 Dipole moment (field-independent basis, Debye):
    X=             -1.4010    Y=             -0.0000    Z=             -0.0000  Tot=              1.4010
 Quadrupole moment (field-independent basis, Debye-Ang):
   XX=             -7.1232   YY=             -6.7185   ZZ=             -6.7185
   XY=             -0.0000   XZ=             -0.0000   YZ=             -0.0000

  Exact polarizability:      19.048       0.000       2.388       0.000       0.000       2.388
 Approx polarizability:      24.902       0.000       2.422      -0.000       0.000       2.422

 ******    3 imaginary frequencies (negative Signs) ******

                      1                      2                      3
                      A                      A                      A
 Frequencies --  -1093.1807             -1093.1807              -418.8436
 Red. masses --      1.0124                 1.0124                 1.1067
 Frc consts  --      0.7128                 0.7128                 0.1144
 IR Inten    --      3.5871                 3.5871               105.5846

                      4
                      A
 Frequencies --   3805.4125
 Red. masses --      1.0094
 Frc consts  --      8.6118
 IR Inten    --    646.1937

 - Thermochemistry -
 -------------------
 Temperature   298.150 Kelvin.  Pressure   1.00000 Atm.
 Atom     1 has atomic number  1 and mass   1.00783

 Molecular mass:    21.01405 amu.
 Principal axes and moments of inertia in atomic units:
                           1         2         3
     Eigenvalues --     0.00000  20.37637  20.37637
           X            1.00000  -0.00000   0.00000
           Y            0.00000   1.00000   0.00000
           Z            0.00000   0.00000   1.00000
 This molecule is a prolate symmetric top.
 Rotational symmetry number  1.
 Rotational temperature (Kelvin)      4.25070
 Rotational constant (GHZ):          88.570313
    3 imaginary frequencies ignored.
 Zero-point vibrational energy      22761.4 (Joules/Mol)
                                    5.44011 (Kcal/Mol)
 Vibrational temperatures:   5475.14
          (Kelvin)

 Zero-point correction=                           0.008669 (Hartree/Particle)
 Thermal correction to Energy=                    0.011030
 Thermal correction to Enthalpy=                  0.011974
 Thermal correction to Gibbs Free Energy=        -0.010300
 Sum of electronic and zero-point Energies=           -100.930760
 Sum of electronic and thermal Energies=              -100.928399
 Sum of electronic and thermal Enthalpies=            -100.927455
 Sum of electronic and thermal Free Energies=         -100.949729

                     E (Thermal)             CV                S
                      KCal/Mol        Cal/Mol-Kelvin    Cal/Mol-Kelvin
 Total                    6.921              4.968             46.879
 Electronic               0.000              0.000              1.377
 Translational            0.889              2.981             35.068
 Rotational               0.592              1.987             10.434
 Vibrational              5.440              0.000              0.000

 Normal termination of Gaussian 16 at Fri Aug 22 16:16:36 2025.
