 Gaussian 16, Revision C.01,
 Gaussian 16:  ES64L-G16RevC.01  3-Jul-2019

 -----------------------------------------
 # sp b3lyp/6-311g** Force nosymm scf=(qc)
 -----------------------------------------

 -------------------
 Title Card Required
 -------------------
 Symbolic Z-matrix:
 Charge =  0 Multiplicity = 2

                          Input orientation:
 ---------------------------------------------------------------------
 Center     Atomic      Atomic             Coordinates (Angstroms)
 Number     Number       Type             X           Y           Z
 ---------------------------------------------------------------------
      1          1           0        0.000000    0.000000    0.000000
      2          1           0       -3.800000    0.000000    0.000000
      3          9           0        4.000000    0.000000    0.000000
 ---------------------------------------------------------------------

 SCF Done:  E(UB3LYP) =  -100.758442524     a.u. after   67 cycles

 Alpha  occ. eigenvalues --  -24.75878  -1.21805  -0.55003  -0.46181  -0.46181
 Alpha  occ. eigenvalues --   -0.32234
 Alpha virt. eigenvalues --   -0.06206   0.24220   0.37910   0.86561   0.91172
 Alpha virt. eigenvalues --    0.91172   1.01083   1.25262   1.25262   1.25311
 Alpha virt. eigenvalues --    1.46133   1.46313   1.46313   2.14747   2.41974

  Beta  occ. eigenvalues --  -24.72732  -1.12760  -0.43028  -0.43028  -0.32431
  Beta virt. eigenvalues --   -0.25729  -0.06010   0.24064   0.38197   0.92671
  Beta virt. eigenvalues --    0.92671   0.95938   1.05209   1.25051   1.25051
  Beta virt. eigenvalues --    1.25086   1.46456   1.46604   1.46604   2.14715

 Mulliken charges and spin densities:
               1          2
     1  H    0.002405  -0.996264
     2  H    0.000029   0.998970
     3  F   -0.002435   0.997294
 Sum of Mulliken charges =  -0.00000   1.00000

 Dipole moment (field-independent basis, Debye):
    X=             -0.0511    Y=             -0.0000    Z=              0.0000  Tot=              0.0511
 Quadrupole moment (field-independent basis, Debye-Ang):
   XX=             -6.9186   YY=             -7.6203   ZZ=             -7.6203
   XY=              0.0000   XZ=              0.0000   YZ=              0.0000

  Exact polarizability:      10.272      -0.000       2.035       0.000       0.000       2.035
 Approx polarizability:       7.681       0.000       1.937       0.000       0.000       1.937

 ******    2 imaginary frequencies (negative Signs) ******

                      1                      2                      3
                      A                      A                      A
 Frequencies --   -150.0213               -63.1117                48.5298
 Red. masses --      1.0173                 1.0973                 1.0173
 Frc consts  --      0.0135                 0.0026                 0.0014
 IR Inten    --      0.9052                 0.2531                 0.0056

                      4
                      A
 Frequencies --     48.5298
 Red. masses --      1.0173
 Frc consts  --      0.0014
 IR Inten    --      0.0056

 - Thermochemistry -
 -------------------
 Temperature   298.150 Kelvin.  Pressure   1.00000 Atm.
 Atom     1 has atomic number  1 and mass   1.00783

 Molecular mass:    21.01405 amu.
 Principal axes and moments of inertia in atomic units:
                           1         2         3
     Eigenvalues --     0.00000 252.51403 252.51403
           X            1.00000  -0.00000   0.00000
           Y            0.00000   1.00000   0.00000
           Z            0.00000   0.00000   1.00000
 This molecule is a prolate symmetric top.
 Rotational symmetry number  1.
 Rotational temperature (Kelvin)      0.34301
 Rotational constant (GHZ):           7.147093
    2 imaginary frequencies ignored.
 Zero-point vibrational energy        580.5 (Joules/Mol)
                                    0.13875 (Kcal/Mol)
 Warning -- explicit consideration of   2 degrees of freedom as
           vibrations may cause significant error
 Vibrational temperatures:     69.82    69.82
          (Kelvin)

 Zero-point correction=                           0.000221 (Hartree/Particle)
 Thermal correction to Energy=                    0.004257
 Thermal correction to Enthalpy=                  0.005202
 Thermal correction to Gibbs Free Energy=        -0.024083
 Sum of electronic and zero-point Energies=           -100.758221
 Sum of electronic and thermal Energies=              -100.754185
 Sum of electronic and thermal Enthalpies=            -100.753241
 Sum of electronic and thermal Free Energies=         -100.782525

                     E (Thermal)             CV                S
                      KCal/Mol        Cal/Mol-Kelvin    Cal/Mol-Kelvin
 Total                    2.672              8.924             61.634
 Electronic               0.000              0.000              1.377
 Translational            0.889              2.981             35.068
 Rotational               0.592              1.987             15.436
 Vibrational              1.190              3.956              9.753
 Vibration     1          0.595              1.978              4.876
 Vibration     2          0.595              1.978              4.876

 Normal termination of Gaussian 16 at Sat Aug 23 01:59:07 2025.
