 Gaussian 16, Revision C.01,
 Gaussian 16:  ES64L-G16RevC.01  3-Jul-2019

 -----------------------------------------
 # sp b3lyp/6-311g** Force nosymm scf=(qc)
 -----------------------------------------

 -------------------
 Title Card Required
 -------------------
 Symbolic Z-matrix:
 Charge =  0 Multiplicity = 2

                          Input orientation:
 ---------------------------------------------------------------------
 Center     Atomic      Atomic             Coordinates (Angstroms)
 Number     Number       Type             X           Y           Z
 ---------------------------------------------------------------------
      1          1           0        0.000000    0.000000    0.000000
      2          1           0       -2.650000    0.000000    0.000000
      3          9           0        2.750000    0.000000    0.000000
 ---------------------------------------------------------------------

 SCF Done:  E(UB3LYP) =  -100.765822646     a.u. after   19 cycles

 Alpha  occ. eigenvalues --  -24.73089  -1.19216  -0.52202  -0.43837  -0.43837
 Alpha  occ. eigenvalues --   -0.33216
 Alpha virt. eigenvalues --   -0.10703   0.24953   0.33791   0.90165   0.92869
 Alpha virt. eigenvalues --    0.92869   1.05496   1.24386   1.24386   1.26334
 Alpha virt. eigenvalues --    1.39858   1.39858   1.41723   2.15392   2.36252

  Beta  occ. eigenvalues --  -24.70136  -1.10774  -0.40885  -0.40885  -0.34461
  Beta virt. eigenvalues --   -0.24204  -0.08842   0.25425   0.35363   0.94302
  Beta virt. eigenvalues --    0.94302   0.98396   1.09081   1.22974   1.22974
  Beta virt. eigenvalues --    1.25911   1.42791   1.42791   1.43705   2.15713

 Mulliken charges and spin densities:
               1          2
     1  H    0.052635  -0.915831
     2  H    0.005597   0.980920
     3  F   -0.058232   0.934912
 Sum of Mulliken charges =  -0.00000   1.00000

 Dipole moment (field-independent basis, Debye):
    X=             -0.8907    Y=             -0.0000    Z=              0.0000  Tot=              0.8907
 Quadrupole moment (field-independent basis, Debye-Ang):
   XX=             -8.5124   YY=             -7.6251   ZZ=             -7.6251
   XY=             -0.0000   XZ=              0.0000   YZ=              0.0000

  Exact polarizability:      41.100      -0.000       2.015       0.000       0.000       2.015
 Approx polarizability:      42.166      -0.000       1.919       0.000      -0.000       1.919

 ******    2 imaginary frequencies (negative Signs) ******

                      1                      2                      3
                      A                      A                      A
 Frequencies --   -646.3821              -269.4129               247.4259
 Red. masses --      1.0187                 1.0957                 1.0175
 Frc consts  --      0.2508                 0.0469                 0.0367
 IR Inten    --     42.5645                16.6372                 2.3383

                      4
                      A
 Frequencies --    247.4259
 Red. masses --      1.0175
 Frc consts  --      0.0367
 IR Inten    --      2.3383

 - Thermochemistry -
 -------------------
 Temperature   298.150 Kelvin.  Pressure   1.00000 Atm.
 Atom     1 has atomic number  1 and mass   1.00783

 Molecular mass:    21.01405 amu.
 Principal axes and moments of inertia in atomic units:
                           1         2         3
     Eigenvalues --     0.00000 120.69961 120.69961
           X            1.00000  -0.00000   0.00000
           Y            0.00000   1.00000   0.00000
           Z            0.00000   0.00000   1.00000
 This molecule is a prolate symmetric top.
 Rotational symmetry number  1.
 Rotational temperature (Kelvin)      0.71760
 Rotational constant (GHZ):          14.952337
    2 imaginary frequencies ignored.
 Zero-point vibrational energy       2959.9 (Joules/Mol)
                                    0.70743 (Kcal/Mol)
 Warning -- explicit consideration of   2 degrees of freedom as
           vibrations may cause significant error
 Vibrational temperatures:    355.99   355.99
          (Kelvin)

 Zero-point correction=                           0.001127 (Hartree/Particle)
 Thermal correction to Energy=                    0.004468
 Thermal correction to Enthalpy=                  0.005412
 Thermal correction to Gibbs Free Energy=        -0.020203
 Sum of electronic and zero-point Energies=           -100.764695
 Sum of electronic and thermal Energies=              -100.761355
 Sum of electronic and thermal Enthalpies=            -100.760410
 Sum of electronic and thermal Free Energies=         -100.786026

                     E (Thermal)             CV                S
                      KCal/Mol        Cal/Mol-Kelvin    Cal/Mol-Kelvin
 Total                    2.804              8.502             53.912
 Electronic               0.000              0.000              1.377
 Translational            0.889              2.981             35.068
 Rotational               0.592              1.987             13.969
 Vibrational              1.323              3.534              3.498
 Vibration     1          0.661              1.767              1.749
 Vibration     2          0.661              1.767              1.749

 Normal termination of Gaussian 16 at Fri Aug 22 18:34:19 2025.
