 Gaussian 16, Revision C.01,
 Gaussian 16:  ES64L-G16RevC.01  3-Jul-2019

 -----------------------------------------
 # sp b3lyp/6-311g** Force nosymm scf=(qc)
 -----------------------------------------

 -------------------
 Title Card Required
 -------------------
 Symbolic Z-matrix:
 Charge =  0 Multiplicity = 2

                          Input orientation:
 ---------------------------------------------------------------------
 Center     Atomic      Atomic             Coordinates (Angstroms)
 Number     Number       Type             X           Y           Z
 ---------------------------------------------------------------------
      1          1           0        0.000000    0.000000    0.000000
      2          1           0       -2.850000    0.000000    0.000000
      3          9           0        3.350000    0.000000    0.000000
 ---------------------------------------------------------------------

 SCF Done:  E(UB3LYP) =  -100.760872532     a.u. after   24 cycles

 Alpha  occ. eigenvalues --  -24.75126  -1.21107  -0.54247  -0.45547  -0.45547
 Alpha  occ. eigenvalues --   -0.32566
 Alpha virt. eigenvalues --   -0.08674   0.25133   0.35175   0.88131   0.91642
 Alpha virt. eigenvalues --    0.91642   1.02264   1.24992   1.24992   1.26049
 Alpha virt. eigenvalues --    1.42899   1.42899   1.43158   2.15826   2.38872

  Beta  occ. eigenvalues --  -24.72029  -1.12215  -0.42444  -0.42444  -0.33096
  Beta virt. eigenvalues --   -0.25353  -0.07949   0.24937   0.36232   0.93125
  Beta virt. eigenvalues --    0.93125   0.97187   1.06239   1.24367   1.24367
  Beta virt. eigenvalues --    1.25351   1.44059   1.44059   1.44275   2.16337

 Mulliken charges and spin densities:
               1          2
     1  H    0.015269  -0.970499
     2  H    0.001297   0.988829
     3  F   -0.016566   0.981669
 Sum of Mulliken charges =  -0.00000   1.00000

 Dipole moment (field-independent basis, Debye):
    X=             -0.3028    Y=             -0.0000    Z=              0.0000  Tot=              0.3028
 Quadrupole moment (field-independent basis, Debye-Ang):
   XX=             -7.4980   YY=             -7.6390   ZZ=             -7.6390
   XY=              0.0000   XZ=             -0.0000   YZ=              0.0000

  Exact polarizability:      31.585       0.000       2.026      -0.000       0.000       2.026
 Approx polarizability:      25.655       0.000       1.929      -0.000      -0.000       1.929

 ******    2 imaginary frequencies (negative Signs) ******

                      1                      2                      3
                      A                      A                      A
 Frequencies --   -438.6640              -157.1918               156.1733
 Red. masses --      1.0108                 1.1050                 1.0161
 Frc consts  --      0.1146                 0.0161                 0.0146
 IR Inten    --     11.8534                 6.9333                 0.1931

                      4
                      A
 Frequencies --    156.1733
 Red. masses --      1.0161
 Frc consts  --      0.0146
 IR Inten    --      0.1931

 - Thermochemistry -
 -------------------
 Temperature   298.150 Kelvin.  Pressure   1.00000 Atm.
 Atom     1 has atomic number  1 and mass   1.00783

 Molecular mass:    21.01405 amu.
 Principal axes and moments of inertia in atomic units:
                           1         2         3
     Eigenvalues --     0.00000 162.99358 162.99358
           X            1.00000  -0.00000   0.00000
           Y            0.00000   1.00000   0.00000
           Z            0.00000   0.00000   1.00000
 This molecule is a prolate symmetric top.
 Rotational symmetry number  1.
 Rotational temperature (Kelvin)      0.53139
 Rotational constant (GHZ):          11.072468
    2 imaginary frequencies ignored.
 Zero-point vibrational energy       1868.2 (Joules/Mol)
                                    0.44652 (Kcal/Mol)
 Warning -- explicit consideration of   2 degrees of freedom as
           vibrations may cause significant error
 Vibrational temperatures:    224.70   224.70
          (Kelvin)

 Zero-point correction=                           0.000712 (Hartree/Particle)
 Thermal correction to Energy=                    0.004337
 Thermal correction to Enthalpy=                  0.005282
 Thermal correction to Gibbs Free Energy=        -0.021422
 Sum of electronic and zero-point Energies=           -100.760161
 Sum of electronic and thermal Energies=              -100.756535
 Sum of electronic and thermal Enthalpies=            -100.755591
 Sum of electronic and thermal Free Energies=         -100.782295

                     E (Thermal)             CV                S
                      KCal/Mol        Cal/Mol-Kelvin    Cal/Mol-Kelvin
 Total                    2.722              8.760             56.203
 Electronic               0.000              0.000              1.377
 Translational            0.889              2.981             35.068
 Rotational               0.592              1.987             14.566
 Vibrational              1.241              3.792              5.191
 Vibration     1          0.620              1.896              2.596
 Vibration     2          0.620              1.896              2.596

 Normal termination of Gaussian 16 at Fri Aug 22 21:02:23 2025.
