 Gaussian 16, Revision C.01,
 Gaussian 16:  ES64L-G16RevC.01  3-Jul-2019

 -----------------------------------------
 # sp b3lyp/6-311g** Force nosymm scf=(qc)
 -----------------------------------------

 -------------------
 Title Card Required
 -------------------
 Symbolic Z-matrix:
 Charge =  0 Multiplicity = 2

                          Input orientation:
 ---------------------------------------------------------------------
 Center     Atomic      Atomic             Coordinates (Angstroms)
 Number     Number       Type             X           Y           Z
 ---------------------------------------------------------------------
      1          1           0        0.000000    0.000000    0.000000
      2          1           0       -1.750000    0.000000    0.000000
      3          9           0        1.300000    0.000000    0.000000
 ---------------------------------------------------------------------

 SCF Done:  E(UB3LYP) =  -100.907090457     a.u. after    9 cycles

 Alpha  occ. eigenvalues --  -24.63467  -1.10731  -0.46979  -0.37457  -0.36387
 Alpha  occ. eigenvalues --   -0.36387
 Alpha virt. eigenvalues --   -0.04678   0.22195   0.28161   0.93721   0.93721
 Alpha virt. eigenvalues --    1.02045   1.04610   1.18479   1.18479   1.36441
 Alpha virt. eigenvalues --    1.36441   1.48836   1.72880   2.15221   2.34117

  Beta  occ. eigenvalues --  -24.63034  -1.09617  -0.44741  -0.35985  -0.35985
  Beta virt. eigenvalues --   -0.17757  -0.00952   0.26540   0.31691   0.93713
  Beta virt. eigenvalues --    0.93713   1.03390   1.11478   1.30393   1.30393
  Beta virt. eigenvalues --    1.39963   1.39963   1.55035   1.76782   2.24339

 Mulliken charges and spin densities:
               1          2
     1  H    0.317654  -0.050616
     2  H    0.048372   0.919091
     3  F   -0.366026   0.131524
 Sum of Mulliken charges =   0.00000   1.00000

 Dipole moment (field-independent basis, Debye):
    X=             -2.8566    Y=              0.0000    Z=             -0.0000  Tot=              2.8566
 Quadrupole moment (field-independent basis, Debye-Ang):
   XX=             -8.2799   YY=             -7.1229   ZZ=             -7.1229
   XY=              0.0000   XZ=             -0.0000   YZ=              0.0000

  Exact polarizability:      21.395      -0.000       2.357       0.000      -0.000       2.357
 Approx polarizability:      27.990       0.000       2.313       0.000      -0.000       2.313

 ******    1 imaginary frequencies (negative Signs) ******

                      1                      2                      3
                      A                      A                      A
 Frequencies --  -1506.6152                93.8323              1110.1147
 Red. masses --      1.0237                 1.0899                 1.0219
 Frc consts  --      1.3691                 0.0057                 0.7420
 IR Inten    --    155.1072                10.1260                77.1081

                      4
                      A
 Frequencies --   1110.1147
 Red. masses --      1.0219
 Frc consts  --      0.7420
 IR Inten    --     77.1081

 - Thermochemistry -
 -------------------
 Temperature   298.150 Kelvin.  Pressure   1.00000 Atm.
 Atom     1 has atomic number  1 and mass   1.00783

 Molecular mass:    21.01405 amu.
 Principal axes and moments of inertia in atomic units:
                           1         2         3
     Eigenvalues --     0.00000  36.29595  36.29595
           X            1.00000  -0.00000   0.00000
           Y            0.00000   1.00000   0.00000
           Z            0.00000   0.00000   1.00000
 This molecule is a prolate symmetric top.
 Rotational symmetry number  1.
 Rotational temperature (Kelvin)      2.38632
 Rotational constant (GHZ):          49.722940
    1 imaginary frequencies ignored.
 Zero-point vibrational energy      13841.2 (Joules/Mol)
                                    3.30812 (Kcal/Mol)
 Warning -- explicit consideration of   1 degrees of freedom as
           vibrations may cause significant error
 Vibrational temperatures:    135.00  1597.21  1597.21
          (Kelvin)

 Zero-point correction=                           0.005272 (Hartree/Particle)
 Thermal correction to Energy=                    0.008427
 Thermal correction to Enthalpy=                  0.009371
 Thermal correction to Gibbs Free Energy=        -0.015205
 Sum of electronic and zero-point Energies=           -100.901819
 Sum of electronic and thermal Energies=              -100.898664
 Sum of electronic and thermal Enthalpies=            -100.897720
 Sum of electronic and thermal Free Energies=         -100.922296

                     E (Thermal)             CV                S
                      KCal/Mol        Cal/Mol-Kelvin    Cal/Mol-Kelvin
 Total                    5.288              7.464             51.725
 Electronic               0.000              0.000              1.377
 Translational            0.889              2.981             35.068
 Rotational               0.592              1.987             11.581
 Vibrational              3.807              2.496              3.698
 Vibration     1          0.603              1.954              3.579

 Normal termination of Gaussian 16 at Fri Aug 22 16:14:52 2025.
