 Gaussian 16, Revision C.01,
 Gaussian 16:  ES64L-G16RevC.01  3-Jul-2019

 -----------------------------------------
 # sp b3lyp/6-311g** Force nosymm scf=(qc)
 -----------------------------------------

 -------------------
 Title Card Required
 -------------------
 Symbolic Z-matrix:
 Charge =  0 Multiplicity = 2

                          Input orientation:
 ---------------------------------------------------------------------
 Center     Atomic      Atomic             Coordinates (Angstroms)
 Number     Number       Type             X           Y           Z
 ---------------------------------------------------------------------
      1          1           0        0.000000    0.000000    0.000000
      2          1           0       -1.450000    0.000000    0.000000
      3          9           0        2.050000    0.000000    0.000000
 ---------------------------------------------------------------------

 SCF Done:  E(UB3LYP) =  -100.839727947     a.u. after   12 cycles

 Alpha  occ. eigenvalues --  -24.70589  -1.16912  -0.50058  -0.41795  -0.41795
 Alpha  occ. eigenvalues --   -0.37874
 Alpha virt. eigenvalues --   -0.09812   0.22451   0.31480   0.85797   0.93513
 Alpha virt. eigenvalues --    0.93513   1.03244   1.15585   1.15585   1.28548
 Alpha virt. eigenvalues --    1.40554   1.40554   1.85882   2.21205   2.46276

  Beta  occ. eigenvalues --  -24.67925  -1.09395  -0.39154  -0.39154  -0.37353
  Beta virt. eigenvalues --   -0.23917  -0.08215   0.24195   0.31488   0.90437
  Beta virt. eigenvalues --    0.94630   0.94630   1.07126   1.17268   1.17268
  Beta virt. eigenvalues --    1.32678   1.41426   1.41426   1.87441   2.22289

 Mulliken charges and spin densities:
               1          2
     1  H    0.068701  -0.304740
     2  H    0.059520   0.467800
     3  F   -0.128221   0.836940
 Sum of Mulliken charges =  -0.00000   1.00000

 Dipole moment (field-independent basis, Debye):
    X=             -1.7170    Y=             -0.0000    Z=             -0.0000  Tot=              1.7170
 Quadrupole moment (field-independent basis, Debye-Ang):
   XX=             -7.4780   YY=             -7.5295   ZZ=             -7.5295
   XY=              0.0000   XZ=              0.0000   YZ=             -0.0000

  Exact polarizability:      52.005       0.000       2.117       0.000      -0.000       2.117
 Approx polarizability:      79.455      -0.000       2.079      -0.000       0.000       2.079

 ******    2 imaginary frequencies (negative Signs) ******

                      1                      2                      3
                      A                      A                      A
 Frequencies --  -2112.1410              -429.1471              1144.3168
 Red. masses --      1.0115                 1.1041                 1.0143
 Frc consts  --      2.6585                 0.1198                 0.7825
 IR Inten    --    915.2613                15.6507                 0.9299

                      4
                      A
 Frequencies --   1144.3168
 Red. masses --      1.0143
 Frc consts  --      0.7825
 IR Inten    --      0.9299

 - Thermochemistry -
 -------------------
 Temperature   298.150 Kelvin.  Pressure   1.00000 Atm.
 Atom     1 has atomic number  1 and mass   1.00783

 Molecular mass:    21.01405 amu.
 Principal axes and moments of inertia in atomic units:
                           1         2         3
     Eigenvalues --     0.00000  53.89596  53.89596
           X            1.00000  -0.00000   0.00000
           Y            0.00000   1.00000   0.00000
           Z            0.00000   0.00000   1.00000
 This molecule is a prolate symmetric top.
 Rotational symmetry number  1.
 Rotational temperature (Kelvin)      1.60706
 Rotational constant (GHZ):          33.485647
    2 imaginary frequencies ignored.
 Zero-point vibrational energy      13689.1 (Joules/Mol)
                                    3.27177 (Kcal/Mol)
 Vibrational temperatures:   1646.42  1646.42
          (Kelvin)

 Zero-point correction=                           0.005214 (Hartree/Particle)
 Thermal correction to Energy=                    0.007616
 Thermal correction to Enthalpy=                  0.008560
 Thermal correction to Gibbs Free Energy=        -0.014681
 Sum of electronic and zero-point Energies=           -100.834514
 Sum of electronic and thermal Energies=              -100.832112
 Sum of electronic and thermal Enthalpies=            -100.831168
 Sum of electronic and thermal Free Energies=         -100.854409

                     E (Thermal)             CV                S
                      KCal/Mol        Cal/Mol-Kelvin    Cal/Mol-Kelvin
 Total                    4.779              5.456             48.916
 Electronic               0.000              0.000              1.377
 Translational            0.889              2.981             35.068
 Rotational               0.592              1.987             12.367
 Vibrational              3.298              0.488              0.104

 Normal termination of Gaussian 16 at Fri Aug 22 16:59:37 2025.
