 Gaussian 16, Revision C.01,
 Gaussian 16:  ES64L-G16RevC.01  3-Jul-2019

 -----------------------------------------
 # sp b3lyp/6-311g** Force nosymm scf=(qc)
 -----------------------------------------

 -------------------
 Title Card Required
 -------------------
 Symbolic Z-matrix:
 Charge =  0 Multiplicity = 2

                          Input orientation:
 ---------------------------------------------------------------------
 Center     Atomic      Atomic             Coordinates (Angstroms)
 Number     Number       Type             X           Y           Z
 ---------------------------------------------------------------------
      1          1           0        0.000000    0.000000    0.000000
      2          1           0       -1.750000    0.000000    0.000000
      3          9           0        3.700000    0.000000    0.000000
 ---------------------------------------------------------------------

 SCF Done:  E(UB3LYP) =  -100.790193580     a.u. after  323 cycles

 Alpha  occ. eigenvalues --  -24.76234  -1.22128  -0.55332  -0.46508  -0.46488
 Alpha  occ. eigenvalues --   -0.32975
 Alpha virt. eigenvalues --   -0.10615   0.25868   0.31235   0.86040   0.90917
 Alpha virt. eigenvalues --    0.91596   1.01031   1.08750   1.24363   1.24364
 Alpha virt. eigenvalues --    1.37984   1.37987   1.64536   2.15930   2.40568

  Beta  occ. eigenvalues --  -24.73080  -1.13056  -0.43351  -0.43325  -0.32960
  Beta virt. eigenvalues --   -0.25981  -0.10658   0.25844   0.31298   0.92419
  Beta virt. eigenvalues --    0.93048   0.95508   1.05148   1.08737   1.24361
  Beta virt. eigenvalues --    1.24364   1.37969   1.37970   1.64558   2.16155

 Mulliken charges and spin densities:
               1          2
     1  H    0.000600  -0.671132
     2  H   -0.001998   0.671144
     3  F    0.001398   0.999987
 Sum of Mulliken charges =   0.00000   1.00000

 Dipole moment (field-independent basis, Debye):
    X=              0.0320    Y=              0.0000    Z=             -0.0000  Tot=              0.0320
 Quadrupole moment (field-independent basis, Debye-Ang):
   XX=             -6.6589   YY=             -6.9008   ZZ=             -7.7653
   XY=              0.0000   XZ=              0.0000   YZ=              0.0039

  Exact polarizability:      23.798       0.000       2.479       0.000       0.002       2.015
 Approx polarizability:      35.782       0.000       2.553       0.000       0.003       1.970

 ******    2 imaginary frequencies (negative Signs) ******

                      1                      2                      3
                      A                      A                      A
 Frequencies --  -1818.7816               -46.1467               838.8145
 Red. masses --      1.0078                 1.1085                 1.0114
 Frc consts  --      1.9642                 0.0014                 0.4193
 IR Inten    --      0.0146                 0.0807                 0.0016

                      4
                      A
 Frequencies --    839.4595
 Red. masses --      1.0114
 Frc consts  --      0.4199
 IR Inten    --      0.0009

 - Thermochemistry -
 -------------------
 Temperature   298.150 Kelvin.  Pressure   1.00000 Atm.
 Atom     1 has atomic number  1 and mass   1.00783

 Molecular mass:    21.01405 amu.
 Principal axes and moments of inertia in atomic units:
                           1         2         3
     Eigenvalues --     0.00000 141.71890 141.71890
           X            1.00000  -0.00000   0.00000
           Y            0.00000   1.00000   0.00000
           Z            0.00000   0.00000   1.00000
 This molecule is a prolate symmetric top.
 Rotational symmetry number  1.
 Rotational temperature (Kelvin)      0.61117
 Rotational constant (GHZ):          12.734655
    2 imaginary frequencies ignored.
 Zero-point vibrational energy      10038.3 (Joules/Mol)
                                    2.39921 (Kcal/Mol)
 Vibrational temperatures:   1206.87  1207.80
          (Kelvin)

 Zero-point correction=                           0.003823 (Hartree/Particle)
 Thermal correction to Energy=                    0.006320
 Thermal correction to Enthalpy=                  0.007264
 Thermal correction to Gibbs Free Energy=        -0.017010
 Sum of electronic and zero-point Energies=           -100.786370
 Sum of electronic and thermal Energies=              -100.783874
 Sum of electronic and thermal Enthalpies=            -100.782930
 Sum of electronic and thermal Free Energies=         -100.807204

                     E (Thermal)             CV                S
                      KCal/Mol        Cal/Mol-Kelvin    Cal/Mol-Kelvin
 Total                    3.966              6.145             51.089
 Electronic               0.000              0.000              1.377
 Translational            0.889              2.981             35.068
 Rotational               0.592              1.987             14.288
 Vibrational              2.484              1.177              0.355

 Normal termination of Gaussian 16 at Sat Aug 23 00:00:20 2025.
