 Gaussian 16, Revision C.01,
 Gaussian 16:  ES64L-G16RevC.01  3-Jul-2019

 -----------------------------------------
 # sp b3lyp/6-311g** Force nosymm scf=(qc)
 -----------------------------------------

 -------------------
 Title Card Required
 -------------------
 Symbolic Z-matrix:
 Charge =  0 Multiplicity = 2

                          Input orientation:
 ---------------------------------------------------------------------
 Center     Atomic      Atomic             Coordinates (Angstroms)
 Number     Number       Type             X           Y           Z
 ---------------------------------------------------------------------
      1          1           0        0.000000    0.000000    0.000000
      2          1           0       -1.350000    0.000000    0.000000
      3          9           0        1.950000    0.000000    0.000000
 ---------------------------------------------------------------------

 SCF Done:  E(UB3LYP) =  -100.856803073     a.u. after   14 cycles

 Alpha  occ. eigenvalues --  -24.70498  -1.16865  -0.50243  -0.41754  -0.41754
 Alpha  occ. eigenvalues --   -0.38653
 Alpha virt. eigenvalues --   -0.07844   0.21924   0.31870   0.87391   0.93069
 Alpha virt. eigenvalues --    0.93069   1.03956   1.13214   1.13214   1.34639
 Alpha virt. eigenvalues --    1.44335   1.44335   1.95006   2.23990   2.49441

  Beta  occ. eigenvalues --  -24.67870  -1.09470  -0.39153  -0.39153  -0.38275
  Beta virt. eigenvalues --   -0.24081  -0.05943   0.23508   0.32140   0.92450
  Beta virt. eigenvalues --    0.94125   0.94125   1.07628   1.15100   1.15100
  Beta virt. eigenvalues --    1.38612   1.45359   1.45359   1.96994   2.25220

 Mulliken charges and spin densities:
               1          2
     1  H    0.074710  -0.228186
     2  H    0.061296   0.404547
     3  F   -0.136007   0.823639
 Sum of Mulliken charges =   0.00000   1.00000

 Dipole moment (field-independent basis, Debye):
    X=             -1.6987    Y=             -0.0000    Z=             -0.0000  Tot=              1.6987
 Quadrupole moment (field-independent basis, Debye-Ang):
   XX=             -7.3734   YY=             -7.4511   ZZ=             -7.4511
   XY=              0.0000   XZ=              0.0000   YZ=             -0.0000

  Exact polarizability:      47.255       0.000       2.162       0.000       0.000       2.162
 Approx polarizability:      73.026      -0.000       2.131      -0.000      -0.000       2.131

 ******    2 imaginary frequencies (negative Signs) ******

                      1                      2                      3
                      A                      A                      A
 Frequencies --  -2041.0978              -380.7053              1233.5186
 Red. masses --      1.0136                 1.1016                 1.0141
 Frc consts  --      2.4881                 0.0941                 0.9091
 IR Inten    --   1116.5290                 3.8791                 0.9621

                      4
                      A
 Frequencies --   1233.5186
 Red. masses --      1.0141
 Frc consts  --      0.9091
 IR Inten    --      0.9621

 - Thermochemistry -
 -------------------
 Temperature   298.150 Kelvin.  Pressure   1.00000 Atm.
 Atom     1 has atomic number  1 and mass   1.00783

 Molecular mass:    21.01405 amu.
 Principal axes and moments of inertia in atomic units:
                           1         2         3
     Eigenvalues --     0.00000  48.12095  48.12095
           X            1.00000  -0.00000   0.00000
           Y            0.00000   1.00000   0.00000
           Z            0.00000   0.00000   1.00000
 This molecule is a prolate symmetric top.
 Rotational symmetry number  1.
 Rotational temperature (Kelvin)      1.79992
 Rotational constant (GHZ):          37.504268
    2 imaginary frequencies ignored.
 Zero-point vibrational energy      14756.2 (Joules/Mol)
                                    3.52681 (Kcal/Mol)
 Vibrational temperatures:   1774.76  1774.76
          (Kelvin)

 Zero-point correction=                           0.005620 (Hartree/Particle)
 Thermal correction to Energy=                    0.008010
 Thermal correction to Enthalpy=                  0.008954
 Thermal correction to Gibbs Free Energy=        -0.014165
 Sum of electronic and zero-point Energies=           -100.851183
 Sum of electronic and thermal Energies=              -100.848793
 Sum of electronic and thermal Enthalpies=            -100.847849
 Sum of electronic and thermal Free Energies=         -100.870968

                     E (Thermal)             CV                S
                      KCal/Mol        Cal/Mol-Kelvin    Cal/Mol-Kelvin
 Total                    5.026              5.336             48.659
 Electronic               0.000              0.000              1.377
 Translational            0.889              2.981             35.068
 Rotational               0.592              1.987             12.142
 Vibrational              3.545              0.368              0.072

 Normal termination of Gaussian 16 at Fri Aug 22 16:52:42 2025.
