 Gaussian 16, Revision C.01,
 Gaussian 16:  ES64L-G16RevC.01  3-Jul-2019

 -----------------------------------------
 # sp b3lyp/6-311g** Force nosymm scf=(qc)
 -----------------------------------------

 -------------------
 Title Card Required
 -------------------
 Symbolic Z-matrix:
 Charge =  0 Multiplicity = 2

                          Input orientation:
 ---------------------------------------------------------------------
 Center     Atomic      Atomic             Coordinates (Angstroms)
 Number     Number       Type             X           Y           Z
 ---------------------------------------------------------------------
      1          1           0        0.000000    0.000000    0.000000
      2          1           0       -2.900000    0.000000    0.000000
      3          9           0        2.200000    0.000000    0.000000
 ---------------------------------------------------------------------

 SCF Done:  E(UB3LYP) =  -100.775673018     a.u. after   20 cycles

 Alpha  occ. eigenvalues --  -24.66798  -1.08398  -0.38171  -0.38171  -0.37062
 Alpha  occ. eigenvalues --   -0.33270
 Alpha virt. eigenvalues --   -0.21753   0.21744   0.27520   0.92134   0.95803
 Alpha virt. eigenvalues --    0.95803   1.08622   1.21514   1.21514   1.23845
 Alpha virt. eigenvalues --    1.23845   1.24659   1.42300   2.12775   2.14734

  Beta  occ. eigenvalues --  -24.69398  -1.15731  -0.48449  -0.40748  -0.40748
  Beta virt. eigenvalues --   -0.13058  -0.04694   0.32348   0.39297   0.89115
  Beta virt. eigenvalues --    0.94734   0.94734   1.06723   1.37526   1.37526
  Beta virt. eigenvalues --    1.47314   1.47314   1.47815   1.52412   2.33334

 Mulliken charges and spin densities:
               1          2
     1  H    0.144969   0.824388
     2  H    0.005564   0.994557
     3  F   -0.150533  -0.818945
 Sum of Mulliken charges =   0.00000   1.00000

 Dipole moment (field-independent basis, Debye):
    X=             -1.7366    Y=             -0.0000    Z=              0.0000  Tot=              1.7366
 Quadrupole moment (field-independent basis, Debye-Ang):
   XX=             -9.8577   YY=             -7.5107   ZZ=             -7.5107
   XY=             -0.0000   XZ=              0.0000   YZ=             -0.0000

  Exact polarizability:      34.992      -0.000       2.040       0.000       0.000       2.040
 Approx polarizability:      47.341      -0.000       1.931       0.000      -0.000       1.931

 ******    1 imaginary frequencies (negative Signs) ******

                      1                      2                      3
                      A                      A                      A
 Frequencies --   -835.3311               160.9563               347.2272
 Red. masses --      1.0634                 1.0482                 1.0216
 Frc consts  --      0.4372                 0.0160                 0.0726
 IR Inten    --     71.9788                 3.3478                18.8200

                      4
                      A
 Frequencies --    347.2272
 Red. masses --      1.0216
 Frc consts  --      0.0726
 IR Inten    --     18.8200

 - Thermochemistry -
 -------------------
 Temperature   298.150 Kelvin.  Pressure   1.00000 Atm.
 Atom     1 has atomic number  1 and mass   1.00783

 Molecular mass:    21.01405 amu.
 Principal axes and moments of inertia in atomic units:
                           1         2         3
     Eigenvalues --     0.00000 101.83119 101.83119
           X            1.00000  -0.00000   0.00000
           Y            0.00000   1.00000   0.00000
           Z            0.00000   0.00000   1.00000
 This molecule is a prolate symmetric top.
 Rotational symmetry number  1.
 Rotational temperature (Kelvin)      0.85056
 Rotational constant (GHZ):          17.722872
    1 imaginary frequencies ignored.
 Zero-point vibrational energy       5116.5 (Joules/Mol)
                                    1.22287 (Kcal/Mol)
 Warning -- explicit consideration of   3 degrees of freedom as
           vibrations may cause significant error
 Vibrational temperatures:    231.58   499.58   499.58
          (Kelvin)

 Zero-point correction=                           0.001949 (Hartree/Particle)
 Thermal correction to Energy=                    0.005662
 Thermal correction to Enthalpy=                  0.006607
 Thermal correction to Gibbs Free Energy=        -0.019513
 Sum of electronic and zero-point Energies=           -100.773724
 Sum of electronic and thermal Energies=              -100.770011
 Sum of electronic and thermal Enthalpies=            -100.769066
 Sum of electronic and thermal Free Energies=         -100.795186

                     E (Thermal)             CV                S
                      KCal/Mol        Cal/Mol-Kelvin    Cal/Mol-Kelvin
 Total                    3.553             10.020             54.973
 Electronic               0.000              0.000              1.377
 Translational            0.889              2.981             35.068
 Rotational               0.592              1.987             13.631
 Vibrational              2.072              5.052              4.896
 Vibration     1          0.622              1.890              2.539
 Vibration     2          0.725              1.581              1.179
 Vibration     3          0.725              1.581              1.179

 Normal termination of Gaussian 16 at Fri Aug 22 17:12:31 2025.
