 Gaussian 16, Revision C.01,
 Gaussian 16:  ES64L-G16RevC.01  3-Jul-2019

 -----------------------------------------
 # sp b3lyp/6-311g** Force nosymm scf=(qc)
 -----------------------------------------

 -------------------
 Title Card Required
 -------------------
 Symbolic Z-matrix:
 Charge =  0 Multiplicity = 2

                          Input orientation:
 ---------------------------------------------------------------------
 Center     Atomic      Atomic             Coordinates (Angstroms)
 Number     Number       Type             X           Y           Z
 ---------------------------------------------------------------------
      1          1           0        0.000000    0.000000    0.000000
      2          1           0       -2.500000    0.000000    0.000000
      3          9           0        1.350000    0.000000    0.000000
 ---------------------------------------------------------------------

 SCF Done:  E(UB3LYP) =  -100.890209663     a.u. after    7 cycles

 Alpha  occ. eigenvalues --  -24.64095  -1.10491  -0.45253  -0.36650  -0.36650
 Alpha  occ. eigenvalues --   -0.35520
 Alpha virt. eigenvalues --   -0.09609   0.23666   0.26993   0.93264   0.93264
 Alpha virt. eigenvalues --    1.02786   1.17690   1.21984   1.21984   1.26528
 Alpha virt. eigenvalues --    1.33611   1.33611   1.72328   2.13030   2.24004

  Beta  occ. eigenvalues --  -24.64004  -1.10256  -0.44912  -0.36565  -0.36565
  Beta virt. eigenvalues --   -0.13426  -0.05691   0.26295   0.35977   0.93246
  Beta virt. eigenvalues --    0.93246   1.03003   1.19815   1.33329   1.33329
  Beta virt. eigenvalues --    1.42850   1.42850   1.44205   1.72611   2.23294

 Mulliken charges and spin densities:
               1          2
     1  H    0.347789  -0.011417
     2  H    0.014200   0.983078
     3  F   -0.361989   0.028339
 Sum of Mulliken charges =  -0.00000   1.00000

 Dipole moment (field-independent basis, Debye):
    X=             -2.6297    Y=             -0.0000    Z=             -0.0000  Tot=              2.6297
 Quadrupole moment (field-independent basis, Debye-Ang):
   XX=             -8.9519   YY=             -7.2299   ZZ=             -7.2299
   XY=             -0.0000   XZ=             -0.0000   YZ=             -0.0000

  Exact polarizability:      16.738       0.000       2.276      -0.000      -0.000       2.276
 Approx polarizability:      23.982       0.000       2.219      -0.000      -0.000       2.219

 ******    2 imaginary frequencies (negative Signs) ******

                      1                      2                      3
                      A                      A                      A
 Frequencies --   -980.4146              -194.3587              1104.7627
 Red. masses --      1.0470                 1.0647                 1.0268
 Frc consts  --      0.5929                 0.0237                 0.7384
 IR Inten    --    131.2551                 0.7485               114.1138

                      4
                      A
 Frequencies --   1104.7627
 Red. masses --      1.0268
 Frc consts  --      0.7384
 IR Inten    --    114.1138

 - Thermochemistry -
 -------------------
 Temperature   298.150 Kelvin.  Pressure   1.00000 Atm.
 Atom     1 has atomic number  1 and mass   1.00783

 Molecular mass:    21.01405 amu.
 Principal axes and moments of inertia in atomic units:
                           1         2         3
     Eigenvalues --     0.00000  55.23821  55.23821
           X            1.00000  -0.00000   0.00000
           Y            0.00000   1.00000   0.00000
           Z            0.00000   0.00000   1.00000
 This molecule is a prolate symmetric top.
 Rotational symmetry number  1.
 Rotational temperature (Kelvin)      1.56801
 Rotational constant (GHZ):          32.671973
    2 imaginary frequencies ignored.
 Zero-point vibrational energy      13215.9 (Joules/Mol)
                                    3.15868 (Kcal/Mol)
 Vibrational temperatures:   1589.51  1589.51
          (Kelvin)

 Zero-point correction=                           0.005034 (Hartree/Particle)
 Thermal correction to Energy=                    0.007443
 Thermal correction to Enthalpy=                  0.008387
 Thermal correction to Gibbs Free Energy=        -0.014886
 Sum of electronic and zero-point Energies=           -100.885176
 Sum of electronic and thermal Energies=              -100.882767
 Sum of electronic and thermal Enthalpies=            -100.881822
 Sum of electronic and thermal Free Energies=         -100.905096

                     E (Thermal)             CV                S
                      KCal/Mol        Cal/Mol-Kelvin    Cal/Mol-Kelvin
 Total                    4.671              5.520             48.983
 Electronic               0.000              0.000              1.377
 Translational            0.889              2.981             35.068
 Rotational               0.592              1.987             12.416
 Vibrational              3.189              0.552              0.122

 Normal termination of Gaussian 16 at Fri Aug 22 16:17:57 2025.
