 Gaussian 16, Revision C.01,
 Gaussian 16:  ES64L-G16RevC.01  3-Jul-2019

 -----------------------------------------
 # sp b3lyp/6-311g** Force nosymm scf=(qc)
 -----------------------------------------

 -------------------
 Title Card Required
 -------------------
 Symbolic Z-matrix:
 Charge =  0 Multiplicity = 2

                          Input orientation:
 ---------------------------------------------------------------------
 Center     Atomic      Atomic             Coordinates (Angstroms)
 Number     Number       Type             X           Y           Z
 ---------------------------------------------------------------------
      1          1           0        0.000000    0.000000    0.000000
      2          1           0       -0.900000    0.000000    0.000000
      3          9           0        3.200000    0.000000    0.000000
 ---------------------------------------------------------------------

 SCF Done:  E(UB3LYP) =  -100.922341308     a.u. after   98 cycles

 Alpha  occ. eigenvalues --  -24.76518  -1.22350  -0.55546  -0.46769  -0.46697
 Alpha  occ. eigenvalues --   -0.40313
 Alpha virt. eigenvalues --    0.02769   0.20835   0.41657   0.85893   0.90767
 Alpha virt. eigenvalues --    0.93401   1.03299   1.08458   1.08463   1.45623
 Alpha virt. eigenvalues --    1.72347   1.72353   2.18744   2.37921   2.74282

  Beta  occ. eigenvalues --  -24.73358  -1.13267  -0.43620  -0.43529  -0.40292
  Beta virt. eigenvalues --   -0.26176   0.02791   0.20854   0.41732   0.92266
  Beta virt. eigenvalues --    0.95043   0.95353   1.07200   1.08457   1.08462
  Beta virt. eigenvalues --    1.45633   1.72346   1.72352   2.18763   2.37926

 Mulliken charges and spin densities:
               1          2
     1  H   -0.002667  -0.000647
     2  H   -0.003821  -0.000158
     3  F    0.006488   1.000805
 Sum of Mulliken charges =   0.00000   1.00000

 Dipole moment (field-independent basis, Debye):
    X=              0.0748    Y=              0.0000    Z=              0.0000  Tot=              0.0748
 Quadrupole moment (field-independent basis, Debye-Ang):
   XX=             -6.1585   YY=             -6.7247   ZZ=             -6.7233
   XY=             -0.0000   XZ=             -0.0000   YZ=              0.4319

  Exact polarizability:      10.741      -0.000       2.258      -0.000       0.231       2.259
 Approx polarizability:      13.218      -0.000       2.381      -0.000       0.290       2.382

                      1                      2                      3
                      A                      A                      A
 Frequencies --     50.4496              1455.6619              1455.6727
 Red. masses --      1.1085                 1.0093                 1.0093
 Frc consts  --      0.0017                 1.2601                 1.2601
 IR Inten    --      0.2397                 0.0006                 0.0007

                      4
                      A
 Frequencies --   2643.3205
 Red. masses --      1.0078
 Frc consts  --      4.1489
 IR Inten    --      0.2816

 - Thermochemistry -
 -------------------
 Temperature   298.150 Kelvin.  Pressure   1.00000 Atm.
 Atom     1 has atomic number  1 and mass   1.00783

 Molecular mass:    21.01405 amu.
 Principal axes and moments of inertia in atomic units:
                           1         2         3
     Eigenvalues --     0.00000  88.15496  88.15496
           X            1.00000  -0.00000   0.00000
           Y            0.00000   1.00000   0.00000
           Z            0.00000   0.00000   1.00000
 This molecule is a prolate symmetric top.
 Rotational symmetry number  1.
 Rotational temperature (Kelvin)      0.98252
 Rotational constant (GHZ):          20.472373
 Zero-point vibrational energy      33526.0 (Joules/Mol)
                                    8.01290 (Kcal/Mol)
 Warning -- explicit consideration of   1 degrees of freedom as
           vibrations may cause significant error
 Vibrational temperatures:     72.59  2094.37  2094.39  3803.15
          (Kelvin)

 Zero-point correction=                           0.012769 (Hartree/Particle)
 Thermal correction to Energy=                    0.015976
 Thermal correction to Enthalpy=                  0.016920
 Thermal correction to Gibbs Free Energy=        -0.009031
 Sum of electronic and zero-point Energies=           -100.909572
 Sum of electronic and thermal Energies=              -100.906366
 Sum of electronic and thermal Enthalpies=            -100.905422
 Sum of electronic and thermal Free Energies=         -100.931372

                     E (Thermal)             CV                S
                      KCal/Mol        Cal/Mol-Kelvin    Cal/Mol-Kelvin
 Total                   10.025              7.121             54.618
 Electronic               0.000              0.000              1.377
 Translational            0.889              2.981             35.068
 Rotational               0.592              1.987             13.345
 Vibrational              8.544              2.153              4.828
 Vibration     1          0.595              1.977              4.800

 Normal termination of Gaussian 16 at Fri Aug 22 20:16:03 2025.
