 Gaussian 16, Revision C.01,
 Gaussian 16:  ES64L-G16RevC.01  3-Jul-2019

 -----------------------------------------
 # sp b3lyp/6-311g** Force nosymm scf=(qc)
 -----------------------------------------

 -------------------
 Title Card Required
 -------------------
 Symbolic Z-matrix:
 Charge =  0 Multiplicity = 2

                          Input orientation:
 ---------------------------------------------------------------------
 Center     Atomic      Atomic             Coordinates (Angstroms)
 Number     Number       Type             X           Y           Z
 ---------------------------------------------------------------------
      1          1           0        0.000000    0.000000    0.000000
      2          1           0       -2.400000    0.000000    0.000000
      3          9           0        3.900000    0.000000    0.000000
 ---------------------------------------------------------------------

 SCF Done:  E(UB3LYP) =  -100.763780078     a.u. after   44 cycles

 Alpha  occ. eigenvalues --  -24.75872  -1.21801  -0.54997  -0.46179  -0.46179
 Alpha  occ. eigenvalues --   -0.32597
 Alpha virt. eigenvalues --   -0.09547   0.25886   0.34426   0.86670   0.91169
 Alpha virt. eigenvalues --    0.91169   1.01124   1.25104   1.25104   1.26312
 Alpha virt. eigenvalues --    1.41096   1.41096   1.43578   2.15512   2.36087

  Beta  occ. eigenvalues --  -24.72729  -1.12762  -0.43028  -0.43028  -0.32726
  Beta virt. eigenvalues --   -0.25742  -0.09341   0.25729   0.34711   0.92668
  Beta virt. eigenvalues --    0.92668   0.96034   1.05248   1.24962   1.24962
  Beta virt. eigenvalues --    1.26160   1.41390   1.41390   1.43855   2.15656

 Mulliken charges and spin densities:
               1          2
     1  H    0.001622  -0.955746
     2  H    0.001301   0.959100
     3  F   -0.002923   0.996646
 Sum of Mulliken charges =   0.00000   1.00000

 Dipole moment (field-independent basis, Debye):
    X=             -0.0734    Y=              0.0000    Z=              0.0000  Tot=              0.0734
 Quadrupole moment (field-independent basis, Debye-Ang):
   XX=             -6.6699   YY=             -7.6768   ZZ=             -7.6768
   XY=              0.0000   XZ=              0.0000   YZ=              0.0000

  Exact polarizability:      23.060       0.000       2.019       0.000       0.000       2.019
 Approx polarizability:      17.876       0.000       1.931       0.000       0.000       1.931

 ******    2 imaginary frequencies (negative Signs) ******

                      1                      2                      3
                      A                      A                      A
 Frequencies --   -762.4095               -79.4528               286.6782
 Red. masses --      1.0078                 1.1085                 1.0131
 Frc consts  --      0.3452                 0.0041                 0.0491
 IR Inten    --      0.8739                 1.0405                 0.0012

                      4
                      A
 Frequencies --    286.6782
 Red. masses --      1.0131
 Frc consts  --      0.0491
 IR Inten    --      0.0012

 - Thermochemistry -
 -------------------
 Temperature   298.150 Kelvin.  Pressure   1.00000 Atm.
 Atom     1 has atomic number  1 and mass   1.00783

 Molecular mass:    21.01405 amu.
 Principal axes and moments of inertia in atomic units:
                           1         2         3
     Eigenvalues --     0.00000 179.62755 179.62755
           X            1.00000  -0.00000   0.00000
           Y            0.00000   1.00000   0.00000
           Z            0.00000   0.00000   1.00000
 This molecule is a prolate symmetric top.
 Rotational symmetry number  1.
 Rotational temperature (Kelvin)      0.48219
 Rotational constant (GHZ):          10.047129
    2 imaginary frequencies ignored.
 Zero-point vibrational energy       3429.4 (Joules/Mol)
                                    0.81965 (Kcal/Mol)
 Warning -- explicit consideration of   2 degrees of freedom as
           vibrations may cause significant error
 Vibrational temperatures:    412.47   412.47
          (Kelvin)

 Zero-point correction=                           0.001306 (Hartree/Particle)
 Thermal correction to Energy=                    0.004541
 Thermal correction to Enthalpy=                  0.005485
 Thermal correction to Gibbs Free Energy=        -0.020263
 Sum of electronic and zero-point Energies=           -100.762474
 Sum of electronic and thermal Energies=              -100.759239
 Sum of electronic and thermal Enthalpies=            -100.758295
 Sum of electronic and thermal Free Energies=         -100.784043

                     E (Thermal)             CV                S
                      KCal/Mol        Cal/Mol-Kelvin    Cal/Mol-Kelvin
 Total                    2.849              8.365             54.191
 Electronic               0.000              0.000              1.377
 Translational            0.889              2.981             35.068
 Rotational               0.592              1.987             14.759
 Vibrational              1.368              3.397              2.987
 Vibration     1          0.684              1.698              1.493
 Vibration     2          0.684              1.698              1.493

 Normal termination of Gaussian 16 at Sat Aug 23 01:24:57 2025.
