 Gaussian 16, Revision C.01,
 Gaussian 16:  ES64L-G16RevC.01  3-Jul-2019

 -----------------------------------------
 # sp b3lyp/6-311g** Force nosymm scf=(qc)
 -----------------------------------------

 -------------------
 Title Card Required
 -------------------
 Symbolic Z-matrix:
 Charge =  0 Multiplicity = 2

                          Input orientation:
 ---------------------------------------------------------------------
 Center     Atomic      Atomic             Coordinates (Angstroms)
 Number     Number       Type             X           Y           Z
 ---------------------------------------------------------------------
      1          1           0        0.000000    0.000000    0.000000
      2          1           0       -1.350000    0.000000    0.000000
      3          9           0        1.250000    0.000000    0.000000
 ---------------------------------------------------------------------

 SCF Done:  E(UB3LYP) =  -100.926687873     a.u. after    9 cycles

 Alpha  occ. eigenvalues --  -24.64007  -1.12197  -0.50409  -0.37933  -0.37185
 Alpha  occ. eigenvalues --   -0.37185
 Alpha virt. eigenvalues --    0.01364   0.19973   0.30306   0.92739   0.92739
 Alpha virt. eigenvalues --    1.01036   1.11798   1.12216   1.12216   1.45618
 Alpha virt. eigenvalues --    1.45618   1.55623   1.97693   2.27073   2.42966

  Beta  occ. eigenvalues --  -24.63103  -1.09873  -0.45605  -0.36347  -0.36347
  Beta virt. eigenvalues --   -0.20424   0.04725   0.23481   0.33186   0.93110
  Beta virt. eigenvalues --    0.93110   1.03114   1.18246   1.19778   1.19778
  Beta virt. eigenvalues --    1.49242   1.49242   1.58415   2.06274   2.30252

 Mulliken charges and spin densities:
               1          2
     1  H    0.286880  -0.076259
     2  H    0.060633   0.808249
     3  F   -0.347513   0.268010
 Sum of Mulliken charges =   0.00000   1.00000

 Dipole moment (field-independent basis, Debye):
    X=             -2.6715    Y=             -0.0000    Z=             -0.0000  Tot=              2.6715
 Quadrupole moment (field-independent basis, Debye-Ang):
   XX=             -7.9514   YY=             -6.9944   ZZ=             -6.9944
   XY=             -0.0000   XZ=              0.0000   YZ=             -0.0000

  Exact polarizability:      23.217      -0.000       2.449       0.000       0.000       2.449
 Approx polarizability:      30.681      -0.000       2.423      -0.000       0.000       2.423

 ******    1 imaginary frequencies (negative Signs) ******

                      1                      2                      3
                      A                      A                      A
 Frequencies --  -2234.1617               581.3269              1118.0592
 Red. masses --      1.0204                 1.0937                 1.0189
 Frc consts  --      3.0010                 0.2178                 0.7504
 IR Inten    --     13.4354                32.7925                48.5301

                      4
                      A
 Frequencies --   1118.0592
 Red. masses --      1.0189
 Frc consts  --      0.7504
 IR Inten    --     48.5301

 - Thermochemistry -
 -------------------
 Temperature   298.150 Kelvin.  Pressure   1.00000 Atm.
 Atom     1 has atomic number  1 and mass   1.00783

 Molecular mass:    21.01405 amu.
 Principal axes and moments of inertia in atomic units:
                           1         2         3
     Eigenvalues --     0.00000  27.39428  27.39428
           X            1.00000  -0.00000   0.00000
           Y            0.00000   1.00000   0.00000
           Z            0.00000   0.00000   1.00000
 This molecule is a prolate symmetric top.
 Rotational symmetry number  1.
 Rotational temperature (Kelvin)      3.16175
 Rotational constant (GHZ):          65.880214
    1 imaginary frequencies ignored.
 Zero-point vibrational energy      16852.1 (Joules/Mol)
                                    4.02774 (Kcal/Mol)
 Warning -- explicit consideration of   1 degrees of freedom as
           vibrations may cause significant error
 Vibrational temperatures:    836.40  1608.64  1608.64
          (Kelvin)

 Zero-point correction=                           0.006419 (Hartree/Particle)
 Thermal correction to Energy=                    0.008996
 Thermal correction to Enthalpy=                  0.009940
 Thermal correction to Gibbs Free Energy=        -0.012898
 Sum of electronic and zero-point Energies=           -100.920269
 Sum of electronic and thermal Energies=              -100.917692
 Sum of electronic and thermal Enthalpies=            -100.916748
 Sum of electronic and thermal Free Energies=         -100.939585

                     E (Thermal)             CV                S
                      KCal/Mol        Cal/Mol-Kelvin    Cal/Mol-Kelvin
 Total                    5.645              6.569             48.066
 Electronic               0.000              0.000              1.377
 Translational            0.889              2.981             35.068
 Rotational               0.592              1.987             11.022
 Vibrational              4.164              1.601              0.599
 Vibration     1          0.938              1.072              0.483

 Normal termination of Gaussian 16 at Fri Aug 22 16:12:07 2025.
