 Gaussian 16, Revision C.01,
 Gaussian 16:  ES64L-G16RevC.01  3-Jul-2019

 -----------------------------------------
 # sp b3lyp/6-311g** Force nosymm scf=(qc)
 -----------------------------------------

 -------------------
 Title Card Required
 -------------------
 Symbolic Z-matrix:
 Charge =  0 Multiplicity = 2

                          Input orientation:
 ---------------------------------------------------------------------
 Center     Atomic      Atomic             Coordinates (Angstroms)
 Number     Number       Type             X           Y           Z
 ---------------------------------------------------------------------
      1          1           0        0.000000    0.000000    0.000000
      2          1           0       -1.200000    0.000000    0.000000
      3          9           0        2.800000    0.000000    0.000000
 ---------------------------------------------------------------------

 SCF Done:  E(UB3LYP) =  -100.872395857     a.u. after  112 cycles

 Alpha  occ. eigenvalues --  -24.76862  -1.22661  -0.55843  -0.47143  -0.46991
 Alpha  occ. eigenvalues --   -0.36082
 Alpha virt. eigenvalues --   -0.03692   0.23160   0.35014   0.85640   0.90511
 Alpha virt. eigenvalues --    0.93345   1.05806   1.13108   1.13118   1.22479
 Alpha virt. eigenvalues --    1.54610   1.54619   2.08653   2.32456   2.55784

  Beta  occ. eigenvalues --  -24.73699  -1.13572  -0.43993  -0.43820  -0.36057
  Beta virt. eigenvalues --   -0.26460  -0.03664   0.23186   0.35108   0.92009
  Beta virt. eigenvalues --    0.95094   0.95128   1.09553   1.13108   1.13116
  Beta virt. eigenvalues --    1.22485   1.54608   1.54617   2.08660   2.32458

 Mulliken charges and spin densities:
               1          2
     1  H   -0.001746  -0.000190
     2  H   -0.008801  -0.001287
     3  F    0.010547   1.001477
 Sum of Mulliken charges =   0.00000   1.00000

 Dipole moment (field-independent basis, Debye):
    X=              0.1413    Y=              0.0000    Z=             -0.0000  Tot=              0.1413
 Quadrupole moment (field-independent basis, Debye-Ang):
   XX=             -6.1155   YY=             -7.0706   ZZ=             -7.0753
   XY=              0.0000   XZ=             -0.0000   YZ=             -0.4316

  Exact polarizability:      16.761      -0.000       2.317      -0.000      -0.229       2.314
 Approx polarizability:      24.726       0.000       2.406      -0.000      -0.288       2.403

 ******    1 imaginary frequencies (negative Signs) ******

                      1                      2                      3
                      A                      A                      A
 Frequencies --   -454.4557                64.4636              1467.1582
 Red. masses --      1.0078                 1.1085                 1.0109
 Frc consts  --      0.1226                 0.0027                 1.2820
 IR Inten    --      2.2729                 0.9967                 0.0065

                      4
                      A
 Frequencies --   1468.3972
 Red. masses --      1.0109
 Frc consts  --      1.2842
 IR Inten    --      0.0051

 - Thermochemistry -
 -------------------
 Temperature   298.150 Kelvin.  Pressure   1.00000 Atm.
 Atom     1 has atomic number  1 and mass   1.00783

 Molecular mass:    21.01405 amu.
 Principal axes and moments of inertia in atomic units:
                           1         2         3
     Eigenvalues --     0.00000  77.81902  77.81902
           X            1.00000  -0.00000   0.00000
           Y            0.00000   1.00000   0.00000
           Z            0.00000   0.00000   1.00000
 This molecule is a prolate symmetric top.
 Rotational symmetry number  1.
 Rotational temperature (Kelvin)      1.11302
 Rotational constant (GHZ):          23.191518
    1 imaginary frequencies ignored.
 Zero-point vibrational energy      17944.1 (Joules/Mol)
                                    4.28874 (Kcal/Mol)
 Warning -- explicit consideration of   1 degrees of freedom as
           vibrations may cause significant error
 Vibrational temperatures:     92.75  2110.91  2112.70
          (Kelvin)

 Zero-point correction=                           0.006835 (Hartree/Particle)
 Thermal correction to Energy=                    0.010011
 Thermal correction to Enthalpy=                  0.010955
 Thermal correction to Gibbs Free Energy=        -0.014647
 Sum of electronic and zero-point Energies=           -100.865561
 Sum of electronic and thermal Energies=              -100.862385
 Sum of electronic and thermal Enthalpies=            -100.861441
 Sum of electronic and thermal Free Energies=         -100.887043

                     E (Thermal)             CV                S
                      KCal/Mol        Cal/Mol-Kelvin    Cal/Mol-Kelvin
 Total                    6.282              7.107             53.885
 Electronic               0.000              0.000              1.377
 Translational            0.889              2.981             35.068
 Rotational               0.592              1.987             13.097
 Vibrational              4.801              2.139              4.343
 Vibration     1          0.597              1.971              4.316

 Normal termination of Gaussian 16 at Fri Aug 22 18:40:36 2025.
