 Gaussian 16, Revision C.01,
 Gaussian 16:  ES64L-G16RevC.01  3-Jul-2019

 -----------------------------------------
 # sp b3lyp/6-311g** Force nosymm scf=(qc)
 -----------------------------------------

 -------------------
 Title Card Required
 -------------------
 Symbolic Z-matrix:
 Charge =  0 Multiplicity = 2

                          Input orientation:
 ---------------------------------------------------------------------
 Center     Atomic      Atomic             Coordinates (Angstroms)
 Number     Number       Type             X           Y           Z
 ---------------------------------------------------------------------
      1          1           0        0.000000    0.000000    0.000000
      2          1           0       -2.150000    0.000000    0.000000
      3          9           0        1.050000    0.000000    0.000000
 ---------------------------------------------------------------------

 SCF Done:  E(UB3LYP) =  -100.959220809     a.u. after    6 cycles

 Alpha  occ. eigenvalues --  -24.63917  -1.14633  -0.50589  -0.38161  -0.38161
 Alpha  occ. eigenvalues --   -0.35875
 Alpha virt. eigenvalues --    0.01429   0.24519   0.32298   0.94062   0.94062
 Alpha virt. eigenvalues --    0.98978   1.16002   1.21594   1.21594   1.35867
 Alpha virt. eigenvalues --    1.35867   1.44875   1.83401   2.13984   2.34241

  Beta  occ. eigenvalues --  -24.63852  -1.14472  -0.50257  -0.38104  -0.38104
  Beta virt. eigenvalues --   -0.12138   0.03799   0.32187   0.35443   0.94068
  Beta virt. eigenvalues --    0.94068   0.99286   1.25284   1.35557   1.35557
  Beta virt. eigenvalues --    1.41902   1.41902   1.54728   1.83941   2.32322

 Mulliken charges and spin densities:
               1          2
     1  H    0.319432   0.002998
     2  H    0.014842   0.978485
     3  F   -0.334275   0.018517
 Sum of Mulliken charges =   0.00000   1.00000

 Dipole moment (field-independent basis, Debye):
    X=             -2.2678    Y=              0.0000    Z=              0.0000  Tot=              2.2678
 Quadrupole moment (field-independent basis, Debye-Ang):
   XX=             -7.9671   YY=             -6.9806   ZZ=             -6.9806
   XY=              0.0000   XZ=              0.0000   YZ=             -0.0000

  Exact polarizability:      11.083       0.000       2.430      -0.000      -0.000       2.430
 Approx polarizability:      12.614       0.000       2.406       0.000       0.000       2.406

 ******    1 imaginary frequencies (negative Signs) ******

                      1                      2                      3
                      A                      A                      A
 Frequencies --   -120.3148              1084.4799              1084.4799
 Red. masses --      1.0515                 1.0284                 1.0284
 Frc consts  --      0.0090                 0.7126                 0.7126
 IR Inten    --      3.6513               135.5372               135.5372

                      4
                      A
 Frequencies --   2402.7371
 Red. masses --      1.0601
 Frc consts  --      3.6059
 IR Inten    --    167.0933

 - Thermochemistry -
 -------------------
 Temperature   298.150 Kelvin.  Pressure   1.00000 Atm.
 Atom     1 has atomic number  1 and mass   1.00783

 Molecular mass:    21.01405 amu.
 Principal axes and moments of inertia in atomic units:
                           1         2         3
     Eigenvalues --     0.00000  37.70404  37.70404
           X            1.00000  -0.00000   0.00000
           Y            0.00000   1.00000   0.00000
           Z            0.00000   0.00000   1.00000
 This molecule is a prolate symmetric top.
 Rotational symmetry number  1.
 Rotational temperature (Kelvin)      2.29721
 Rotational constant (GHZ):          47.865988
    1 imaginary frequencies ignored.
 Zero-point vibrational energy      27344.8 (Joules/Mol)
                                    6.53557 (Kcal/Mol)
 Vibrational temperatures:   1560.32  1560.32  3457.00
          (Kelvin)

 Zero-point correction=                           0.010415 (Hartree/Particle)
 Thermal correction to Energy=                    0.012829
 Thermal correction to Enthalpy=                  0.013773
 Thermal correction to Gibbs Free Energy=        -0.009145
 Sum of electronic and zero-point Energies=           -100.948806
 Sum of electronic and thermal Energies=              -100.946392
 Sum of electronic and thermal Enthalpies=            -100.945448
 Sum of electronic and thermal Free Energies=         -100.968366

                     E (Thermal)             CV                S
                      KCal/Mol        Cal/Mol-Kelvin    Cal/Mol-Kelvin
 Total                    8.050              5.558             48.235
 Electronic               0.000              0.000              1.377
 Translational            0.889              2.981             35.068
 Rotational               0.592              1.987             11.657
 Vibrational              6.569              0.589              0.133

 Normal termination of Gaussian 16 at Fri Aug 22 16:03:02 2025.
