 Gaussian 16, Revision C.01,
 Gaussian 16:  ES64L-G16RevC.01  3-Jul-2019

 -----------------------------------------
 # sp b3lyp/6-311g** Force nosymm scf=(qc)
 -----------------------------------------

 -------------------
 Title Card Required
 -------------------
 Symbolic Z-matrix:
 Charge =  0 Multiplicity = 2

                          Input orientation:
 ---------------------------------------------------------------------
 Center     Atomic      Atomic             Coordinates (Angstroms)
 Number     Number       Type             X           Y           Z
 ---------------------------------------------------------------------
      1          1           0        0.000000    0.000000    0.000000
      2          1           0       -3.300000    0.000000    0.000000
      3          9           0        4.000000    0.000000    0.000000
 ---------------------------------------------------------------------

 SCF Done:  E(UB3LYP) =  -100.758870664     a.u. after   37 cycles

 Alpha  occ. eigenvalues --  -24.75883  -1.21810  -0.55008  -0.46186  -0.46186
 Alpha  occ. eigenvalues --   -0.32283
 Alpha virt. eigenvalues --   -0.06998   0.24614   0.37370   0.86562   0.91168
 Alpha virt. eigenvalues --    0.91168   1.01080   1.25229   1.25229   1.25523
 Alpha virt. eigenvalues --    1.45172   1.45395   1.45395   2.15391   2.40613

  Beta  occ. eigenvalues --  -24.72737  -1.12764  -0.43032  -0.43032  -0.32466
  Beta virt. eigenvalues --   -0.25734  -0.06795   0.24468   0.37629   0.92667
  Beta virt. eigenvalues --    0.92667   0.95941   1.05208   1.25033   1.25033
  Beta virt. eigenvalues --    1.25312   1.45478   1.45695   1.45695   2.15380

 Mulliken charges and spin densities:
               1          2
     1  H    0.002275  -0.993783
     2  H    0.000113   0.996450
     3  F   -0.002388   0.997333
 Sum of Mulliken charges =   0.00000   1.00000

 Dipole moment (field-independent basis, Debye):
    X=             -0.0514    Y=              0.0000    Z=              0.0000  Tot=              0.0514
 Quadrupole moment (field-independent basis, Debye-Ang):
   XX=             -6.8798   YY=             -7.6275   ZZ=             -7.6275
   XY=             -0.0000   XZ=             -0.0000   YZ=              0.0000

  Exact polarizability:      11.519      -0.000       2.033      -0.000       0.000       2.033
 Approx polarizability:       8.685      -0.000       1.936      -0.000      -0.000       1.936

 ******    2 imaginary frequencies (negative Signs) ******

                      1                      2                      3
                      A                      A                      A
 Frequencies --   -236.4731               -72.1990                81.2602
 Red. masses --      1.0090                 1.1071                 1.0158
 Frc consts  --      0.0332                 0.0034                 0.0040
 IR Inten    --      0.6627                 0.4798                 0.0047

                      4
                      A
 Frequencies --     81.2602
 Red. masses --      1.0158
 Frc consts  --      0.0040
 IR Inten    --      0.0047

 - Thermochemistry -
 -------------------
 Temperature   298.150 Kelvin.  Pressure   1.00000 Atm.
 Atom     1 has atomic number  1 and mass   1.00783

 Molecular mass:    21.01405 amu.
 Principal axes and moments of inertia in atomic units:
                           1         2         3
     Eigenvalues --     0.00000 227.33512 227.33512
           X            1.00000  -0.00000   0.00000
           Y            0.00000   1.00000   0.00000
           Z            0.00000   0.00000   1.00000
 This molecule is a prolate symmetric top.
 Rotational symmetry number  1.
 Rotational temperature (Kelvin)      0.38100
 Rotational constant (GHZ):           7.938682
    2 imaginary frequencies ignored.
 Zero-point vibrational energy        972.1 (Joules/Mol)
                                    0.23233 (Kcal/Mol)
 Warning -- explicit consideration of   2 degrees of freedom as
           vibrations may cause significant error
 Vibrational temperatures:    116.92   116.92
          (Kelvin)

 Zero-point correction=                           0.000370 (Hartree/Particle)
 Thermal correction to Energy=                    0.004273
 Thermal correction to Enthalpy=                  0.005217
 Thermal correction to Gibbs Free Energy=        -0.023002
 Sum of electronic and zero-point Energies=           -100.758500
 Sum of electronic and thermal Energies=              -100.754598
 Sum of electronic and thermal Enthalpies=            -100.753654
 Sum of electronic and thermal Free Energies=         -100.781873

                     E (Thermal)             CV                S
                      KCal/Mol        Cal/Mol-Kelvin    Cal/Mol-Kelvin
 Total                    2.681              8.892             59.393
 Electronic               0.000              0.000              1.377
 Translational            0.889              2.981             35.068
 Rotational               0.592              1.987             15.227
 Vibrational              1.200              3.924              7.720
 Vibration     1          0.600              1.962              3.860
 Vibration     2          0.600              1.962              3.860

 Normal termination of Gaussian 16 at Sat Aug 23 01:57:31 2025.
