 Gaussian 16, Revision C.01,
 Gaussian 16:  ES64L-G16RevC.01  3-Jul-2019

 -----------------------------------------
 # sp b3lyp/6-311g** Force nosymm scf=(qc)
 -----------------------------------------

 -------------------
 Title Card Required
 -------------------
 Symbolic Z-matrix:
 Charge =  0 Multiplicity = 2

                          Input orientation:
 ---------------------------------------------------------------------
 Center     Atomic      Atomic             Coordinates (Angstroms)
 Number     Number       Type             X           Y           Z
 ---------------------------------------------------------------------
      1          1           0        0.000000    0.000000    0.000000
      2          1           0       -2.700000    0.000000    0.000000
      3          9           0        3.500000    0.000000    0.000000
 ---------------------------------------------------------------------

 SCF Done:  E(UB3LYP) =  -100.761311071     a.u. after   27 cycles

 Alpha  occ. eigenvalues --  -24.75426  -1.21385  -0.54548  -0.45800  -0.45800
 Alpha  occ. eigenvalues --   -0.32563
 Alpha virt. eigenvalues --   -0.08900   0.25429   0.34944   0.87609   0.91455
 Alpha virt. eigenvalues --    0.91455   1.01795   1.25024   1.25024   1.26399
 Alpha virt. eigenvalues --    1.42476   1.42476   1.43104   2.15970   2.38128

  Beta  occ. eigenvalues --  -24.72310  -1.12433  -0.42677  -0.42677  -0.32927
  Beta virt. eigenvalues --   -0.25512  -0.08374   0.25220   0.35724   0.92944
  Beta virt. eigenvalues --    0.92944   0.96771   1.05828   1.24596   1.24596
  Beta virt. eigenvalues --    1.25903   1.43299   1.43299   1.43926   2.16396

 Mulliken charges and spin densities:
               1          2
     1  H    0.009542  -0.970820
     2  H    0.001415   0.983026
     3  F   -0.010957   0.987794
 Sum of Mulliken charges =  -0.00000   1.00000

 Dipole moment (field-independent basis, Debye):
    X=             -0.2153    Y=             -0.0000    Z=             -0.0000  Tot=              0.2153
 Quadrupole moment (field-independent basis, Debye-Ang):
   XX=             -7.2122   YY=             -7.6497   ZZ=             -7.6497
   XY=             -0.0000   XZ=             -0.0000   YZ=             -0.0000

  Exact polarizability:      29.658      -0.000       2.028      -0.000      -0.000       2.028
 Approx polarizability:      22.563      -0.000       1.930      -0.000       0.000       1.930

 ******    2 imaginary frequencies (negative Signs) ******

                      1                      2                      3
                      A                      A                      A
 Frequencies --   -512.7610              -137.5423               183.4558
 Red. masses --      1.0085                 1.1077                 1.0151
 Frc consts  --      0.1562                 0.0123                 0.0201
 IR Inten    --      6.3364                 5.4792                 0.0681

                      4
                      A
 Frequencies --    183.4558
 Red. masses --      1.0151
 Frc consts  --      0.0201
 IR Inten    --      0.0681

 - Thermochemistry -
 -------------------
 Temperature   298.150 Kelvin.  Pressure   1.00000 Atm.
 Atom     1 has atomic number  1 and mass   1.00783

 Molecular mass:    21.01405 amu.
 Principal axes and moments of inertia in atomic units:
                           1         2         3
     Eigenvalues --     0.00000 166.19316 166.19316
           X            1.00000  -0.00000   0.00000
           Y            0.00000   1.00000   0.00000
           Z            0.00000   0.00000   1.00000
 This molecule is a prolate symmetric top.
 Rotational symmetry number  1.
 Rotational temperature (Kelvin)      0.52116
 Rotational constant (GHZ):          10.859299
    2 imaginary frequencies ignored.
 Zero-point vibrational energy       2194.6 (Joules/Mol)
                                    0.52453 (Kcal/Mol)
 Warning -- explicit consideration of   2 degrees of freedom as
           vibrations may cause significant error
 Vibrational temperatures:    263.95   263.95
          (Kelvin)

 Zero-point correction=                           0.000836 (Hartree/Particle)
 Thermal correction to Energy=                    0.004371
 Thermal correction to Enthalpy=                  0.005315
 Thermal correction to Gibbs Free Energy=        -0.021120
 Sum of electronic and zero-point Energies=           -100.760475
 Sum of electronic and thermal Energies=              -100.756940
 Sum of electronic and thermal Enthalpies=            -100.755996
 Sum of electronic and thermal Free Energies=         -100.782431

                     E (Thermal)             CV                S
                      KCal/Mol        Cal/Mol-Kelvin    Cal/Mol-Kelvin
 Total                    2.743              8.693             55.636
 Electronic               0.000              0.000              1.377
 Translational            0.889              2.981             35.068
 Rotational               0.592              1.987             14.605
 Vibrational              1.261              3.725              4.586
 Vibration     1          0.631              1.862              2.293
 Vibration     2          0.631              1.862              2.293

 Normal termination of Gaussian 16 at Fri Aug 22 22:10:05 2025.
