 Gaussian 16, Revision C.01,
 Gaussian 16:  ES64L-G16RevC.01  3-Jul-2019

 -----------------------------------------
 # sp b3lyp/6-311g** Force nosymm scf=(qc)
 -----------------------------------------

 -------------------
 Title Card Required
 -------------------
 Symbolic Z-matrix:
 Charge =  0 Multiplicity = 2

                          Input orientation:
 ---------------------------------------------------------------------
 Center     Atomic      Atomic             Coordinates (Angstroms)
 Number     Number       Type             X           Y           Z
 ---------------------------------------------------------------------
      1          1           0        0.000000    0.000000    0.000000
      2          1           0       -3.250000    0.000000    0.000000
      3          9           0        3.650000    0.000000    0.000000
 ---------------------------------------------------------------------

 SCF Done:  E(UB3LYP) =  -100.759212416     a.u. after   32 cycles

 Alpha  occ. eigenvalues --  -24.75607  -1.21554  -0.54730  -0.45952  -0.45952
 Alpha  occ. eigenvalues --   -0.32344
 Alpha virt. eigenvalues --   -0.07317   0.24617   0.36842   0.87184   0.91343
 Alpha virt. eigenvalues --    0.91343   1.01487   1.25171   1.25171   1.25519
 Alpha virt. eigenvalues --    1.44717   1.44919   1.44919   2.15414   2.40404

  Beta  occ. eigenvalues --  -24.72479  -1.12563  -0.42817  -0.42817  -0.32690
  Beta virt. eigenvalues --   -0.25597  -0.06918   0.24407   0.37489   0.92836
  Beta virt. eigenvalues --    0.92836   0.96418   1.05549   1.24779   1.24779
  Beta virt. eigenvalues --    1.25104   1.45342   1.45554   1.45554   2.15563

 Mulliken charges and spin densities:
               1          2
     1  H    0.007187  -0.987783
     2  H    0.000257   0.996017
     3  F   -0.007444   0.991766
 Sum of Mulliken charges =  -0.00000   1.00000

 Dipole moment (field-independent basis, Debye):
    X=             -0.1440    Y=             -0.0000    Z=             -0.0000  Tot=              0.1440
 Quadrupole moment (field-independent basis, Debye-Ang):
   XX=             -7.1675   YY=             -7.6278   ZZ=             -7.6278
   XY=              0.0000   XZ=             -0.0000   YZ=             -0.0000

  Exact polarizability:      20.470      -0.000       2.009       0.000       0.000       2.009
 Approx polarizability:      15.395       0.000       1.934      -0.000       0.000       1.934

 ******    2 imaginary frequencies (negative Signs) ******

                      1                      2                      3
                      A                      A                      A
 Frequencies --   -270.0087              -105.5367               100.8677
 Red. masses --      1.0128                 1.1025                 1.0166
 Frc consts  --      0.0435                 0.0072                 0.0061
 IR Inten    --      4.5900                 1.9667                 0.0643

                      4
                      A
 Frequencies --    100.8683
 Red. masses --      1.0166
 Frc consts  --      0.0061
 IR Inten    --      0.0643

 - Thermochemistry -
 -------------------
 Temperature   298.150 Kelvin.  Pressure   1.00000 Atm.
 Atom     1 has atomic number  1 and mass   1.00783

 Molecular mass:    21.01405 amu.
 Principal axes and moments of inertia in atomic units:
                           1         2         3
     Eigenvalues --     0.00000 200.08501 200.08501
           X            1.00000  -0.00000   0.00000
           Y            0.00000   1.00000   0.00000
           Z            0.00000   0.00000   1.00000
 This molecule is a prolate symmetric top.
 Rotational symmetry number  1.
 Rotational temperature (Kelvin)      0.43289
 Rotational constant (GHZ):           9.019872
    2 imaginary frequencies ignored.
 Zero-point vibrational energy       1206.6 (Joules/Mol)
                                    0.28840 (Kcal/Mol)
 Warning -- explicit consideration of   2 degrees of freedom as
           vibrations may cause significant error
 Vibrational temperatures:    145.13   145.13
          (Kelvin)

 Zero-point correction=                           0.000460 (Hartree/Particle)
 Thermal correction to Energy=                    0.004286
 Thermal correction to Enthalpy=                  0.005230
 Thermal correction to Gibbs Free Energy=        -0.022467
 Sum of electronic and zero-point Energies=           -100.758753
 Sum of electronic and thermal Energies=              -100.754926
 Sum of electronic and thermal Enthalpies=            -100.753982
 Sum of electronic and thermal Free Energies=         -100.781679

                     E (Thermal)             CV                S
                      KCal/Mol        Cal/Mol-Kelvin    Cal/Mol-Kelvin
 Total                    2.689              8.865             58.294
 Electronic               0.000              0.000              1.377
 Translational            0.889              2.981             35.068
 Rotational               0.592              1.987             14.973
 Vibrational              1.208              3.897              6.875
 Vibration     1          0.604              1.948              3.437
 Vibration     2          0.604              1.948              3.437

 Normal termination of Gaussian 16 at Fri Aug 22 23:37:41 2025.
