 Gaussian 16, Revision C.01,
 Gaussian 16:  ES64L-G16RevC.01  3-Jul-2019

 -----------------------------------------
 # sp b3lyp/6-311g** Force nosymm scf=(qc)
 -----------------------------------------

 -------------------
 Title Card Required
 -------------------
 Symbolic Z-matrix:
 Charge =  0 Multiplicity = 2

                          Input orientation:
 ---------------------------------------------------------------------
 Center     Atomic      Atomic             Coordinates (Angstroms)
 Number     Number       Type             X           Y           Z
 ---------------------------------------------------------------------
      1          1           0        0.000000    0.000000    0.000000
      2          1           0       -2.200000    0.000000    0.000000
      3          9           0        1.800000    0.000000    0.000000
 ---------------------------------------------------------------------

 SCF Done:  E(UB3LYP) =  -100.811529198     a.u. after   19 cycles

 Alpha  occ. eigenvalues --  -24.66306  -1.12549  -0.45296  -0.38090  -0.38090
 Alpha  occ. eigenvalues --   -0.36327
 Alpha virt. eigenvalues --   -0.13995   0.23766   0.29363   0.93012   0.95021
 Alpha virt. eigenvalues --    0.95021   1.05923   1.21423   1.21423   1.27279
 Alpha virt. eigenvalues --    1.33786   1.33786   1.69130   2.11312   2.27080

  Beta  occ. eigenvalues --  -24.64368  -1.07210  -0.38851  -0.36199  -0.36199
  Beta virt. eigenvalues --   -0.19822  -0.10625   0.25140   0.33068   0.94684
  Beta virt. eigenvalues --    0.95118   0.95118   1.08567   1.24585   1.24585
  Beta virt. eigenvalues --    1.38310   1.38310   1.42173   1.65107   2.12653

 Mulliken charges and spin densities:
               1          2
     1  H    0.218337  -0.547464
     2  H    0.035802   0.938485
     3  F   -0.254139   0.608979
 Sum of Mulliken charges =   0.00000   1.00000

 Dipole moment (field-independent basis, Debye):
    X=             -2.6164    Y=             -0.0000    Z=              0.0000  Tot=              2.6164
 Quadrupole moment (field-independent basis, Debye-Ang):
   XX=             -9.1346   YY=             -7.4727   ZZ=             -7.4727
   XY=             -0.0000   XZ=              0.0000   YZ=             -0.0000

  Exact polarizability:      39.467      -0.000       2.105       0.000      -0.000       2.105
 Approx polarizability:      49.467      -0.000       2.006       0.000       0.000       2.006

 ******    2 imaginary frequencies (negative Signs) ******

                      1                      2                      3
                      A                      A                      A
 Frequencies --  -1656.0128              -510.7052               693.7603
 Red. masses --      1.0392                 1.0728                 1.0206
 Frc consts  --      1.6792                 0.1649                 0.2894
 IR Inten    --     89.0233                18.6174                35.3057

                      4
                      A
 Frequencies --    693.7603
 Red. masses --      1.0206
 Frc consts  --      0.2894
 IR Inten    --     35.3057

 - Thermochemistry -
 -------------------
 Temperature   298.150 Kelvin.  Pressure   1.00000 Atm.
 Atom     1 has atomic number  1 and mass   1.00783

 Molecular mass:    21.01405 amu.
 Principal axes and moments of inertia in atomic units:
                           1         2         3
     Eigenvalues --     0.00000  63.43843  63.43843
           X            1.00000  -0.00000   0.00000
           Y            0.00000   1.00000   0.00000
           Z            0.00000   0.00000   1.00000
 This molecule is a prolate symmetric top.
 Rotational symmetry number  1.
 Rotational temperature (Kelvin)      1.36532
 Rotational constant (GHZ):          28.448706
    2 imaginary frequencies ignored.
 Zero-point vibrational energy       8299.2 (Joules/Mol)
                                    1.98356 (Kcal/Mol)
 Vibrational temperatures:    998.17   998.17
          (Kelvin)

 Zero-point correction=                           0.003161 (Hartree/Particle)
 Thermal correction to Energy=                    0.005752
 Thermal correction to Enthalpy=                  0.006696
 Thermal correction to Gibbs Free Energy=        -0.016948
 Sum of electronic and zero-point Energies=           -100.808368
 Sum of electronic and thermal Energies=              -100.805777
 Sum of electronic and thermal Enthalpies=            -100.804833
 Sum of electronic and thermal Free Energies=         -100.828477

                     E (Thermal)             CV                S
                      KCal/Mol        Cal/Mol-Kelvin    Cal/Mol-Kelvin
 Total                    3.609              6.650             49.763
 Electronic               0.000              0.000              1.377
 Translational            0.889              2.981             35.068
 Rotational               0.592              1.987             12.691
 Vibrational              2.128              1.682              0.627

 Normal termination of Gaussian 16 at Fri Aug 22 16:43:42 2025.
