 Gaussian 16, Revision C.01,
 Gaussian 16:  ES64L-G16RevC.01  3-Jul-2019

 -----------------------------------------
 # sp b3lyp/6-311g** Force nosymm scf=(qc)
 -----------------------------------------

 -------------------
 Title Card Required
 -------------------
 Symbolic Z-matrix:
 Charge =  0 Multiplicity = 2

                          Input orientation:
 ---------------------------------------------------------------------
 Center     Atomic      Atomic             Coordinates (Angstroms)
 Number     Number       Type             X           Y           Z
 ---------------------------------------------------------------------
      1          1           0        0.000000    0.000000    0.000000
      2          1           0       -2.750000    0.000000    0.000000
      3          9           0        3.650000    0.000000    0.000000
 ---------------------------------------------------------------------

 SCF Done:  E(UB3LYP) =  -100.760791481     a.u. after   29 cycles

 Alpha  occ. eigenvalues --  -24.75631  -1.21576  -0.54755  -0.45974  -0.45974
 Alpha  occ. eigenvalues --   -0.32485
 Alpha virt. eigenvalues --   -0.08584   0.25406   0.35342   0.87180   0.91326
 Alpha virt. eigenvalues --    0.91326   1.01470   1.25090   1.25090   1.26335
 Alpha virt. eigenvalues --    1.42983   1.42983   1.43449   2.16006   2.38421

  Beta  occ. eigenvalues --  -24.72503  -1.12582  -0.42837  -0.42837  -0.32768
  Beta virt. eigenvalues --   -0.25615  -0.08191   0.25200   0.35924   0.92819
  Beta virt. eigenvalues --    0.92819   0.96429   1.05543   1.24765   1.24765
  Beta virt. eigenvalues --    1.25966   1.43588   1.43588   1.44054   2.16264

 Mulliken charges and spin densities:
               1          2
     1  H    0.006195  -0.977182
     2  H    0.000925   0.985138
     3  F   -0.007120   0.992044
 Sum of Mulliken charges =   0.00000   1.00000

 Dipole moment (field-independent basis, Debye):
    X=             -0.1458    Y=             -0.0000    Z=              0.0000  Tot=              0.1458
 Quadrupole moment (field-independent basis, Debye-Ang):
   XX=             -7.0470   YY=             -7.6478   ZZ=             -7.6478
   XY=             -0.0000   XZ=              0.0000   YZ=             -0.0000

  Exact polarizability:      24.490       0.000       2.016      -0.000      -0.000       2.016
 Approx polarizability:      18.159      -0.000       1.931       0.000       0.000       1.931

 ******    2 imaginary frequencies (negative Signs) ******

                      1                      2                      3
                      A                      A                      A
 Frequencies --   -473.9815              -115.2148               171.5467
 Red. masses --      1.0082                 1.1080                 1.0149
 Frc consts  --      0.1335                 0.0087                 0.0176
 IR Inten    --      3.4545                 3.1204                 0.0355

                      4
                      A
 Frequencies --    171.5469
 Red. masses --      1.0149
 Frc consts  --      0.0176
 IR Inten    --      0.0355

 - Thermochemistry -
 -------------------
 Temperature   298.150 Kelvin.  Pressure   1.00000 Atm.
 Atom     1 has atomic number  1 and mass   1.00783

 Molecular mass:    21.01405 amu.
 Principal axes and moments of inertia in atomic units:
                           1         2         3
     Eigenvalues --     0.00000 177.92945 177.92945
           X            1.00000  -0.00000   0.00000
           Y            0.00000   1.00000   0.00000
           Z            0.00000   0.00000   1.00000
 This molecule is a prolate symmetric top.
 Rotational symmetry number  1.
 Rotational temperature (Kelvin)      0.48679
 Rotational constant (GHZ):          10.143016
    2 imaginary frequencies ignored.
 Zero-point vibrational energy       2052.2 (Joules/Mol)
                                    0.49048 (Kcal/Mol)
 Warning -- explicit consideration of   2 degrees of freedom as
           vibrations may cause significant error
 Vibrational temperatures:    246.82   246.82
          (Kelvin)

 Zero-point correction=                           0.000782 (Hartree/Particle)
 Thermal correction to Energy=                    0.004355
 Thermal correction to Enthalpy=                  0.005300
 Thermal correction to Gibbs Free Energy=        -0.021318
 Sum of electronic and zero-point Energies=           -100.760010
 Sum of electronic and thermal Energies=              -100.756436
 Sum of electronic and thermal Enthalpies=            -100.755492
 Sum of electronic and thermal Free Energies=         -100.782110

                     E (Thermal)             CV                S
                      KCal/Mol        Cal/Mol-Kelvin    Cal/Mol-Kelvin
 Total                    2.733              8.723             56.023
 Electronic               0.000              0.000              1.377
 Translational            0.889              2.981             35.068
 Rotational               0.592              1.987             14.740
 Vibrational              1.252              3.755              4.837
 Vibration     1          0.626              1.878              2.418
 Vibration     2          0.626              1.878              2.418

 Normal termination of Gaussian 16 at Fri Aug 22 23:36:56 2025.
