 Gaussian 16, Revision C.01,
 Gaussian 16:  ES64L-G16RevC.01  3-Jul-2019

 -----------------------------------------
 # sp b3lyp/6-311g** Force nosymm scf=(qc)
 -----------------------------------------

 -------------------
 Title Card Required
 -------------------
 Symbolic Z-matrix:
 Charge =  0 Multiplicity = 2

                          Input orientation:
 ---------------------------------------------------------------------
 Center     Atomic      Atomic             Coordinates (Angstroms)
 Number     Number       Type             X           Y           Z
 ---------------------------------------------------------------------
      1          1           0        0.000000    0.000000    0.000000
      2          1           0       -3.050000    0.000000    0.000000
      3          9           0        2.650000    0.000000    0.000000
 ---------------------------------------------------------------------

 SCF Done:  E(UB3LYP) =  -100.765453646     a.u. after   20 cycles

 Alpha  occ. eigenvalues --  -24.72574  -1.18737  -0.51684  -0.43407  -0.43407
 Alpha  occ. eigenvalues --   -0.32997
 Alpha virt. eigenvalues --   -0.10135   0.24222   0.34829   0.90074   0.93160
 Alpha virt. eigenvalues --    0.93160   1.05941   1.24539   1.24539   1.25319
 Alpha virt. eigenvalues --    1.41197   1.41197   1.43040   2.15156   2.36572

  Beta  occ. eigenvalues --  -24.69660  -1.10422  -0.40499  -0.40499  -0.34791
  Beta virt. eigenvalues --   -0.23878  -0.07658   0.24656   0.36849   0.94573
  Beta virt. eigenvalues --    0.94573   0.97726   1.08982   1.22589   1.22589
  Beta virt. eigenvalues --    1.26485   1.44692   1.44753   1.44753   2.14559

 Mulliken charges and spin densities:
               1          2
     1  H    0.067821  -0.915123
     2  H    0.002334   0.993509
     3  F   -0.070155   0.921614
 Sum of Mulliken charges =  -0.00000   1.00000

 Dipole moment (field-independent basis, Debye):
    X=             -0.9842    Y=             -0.0000    Z=              0.0000  Tot=              0.9842
 Quadrupole moment (field-independent basis, Debye-Ang):
   XX=             -8.9020   YY=             -7.5970   ZZ=             -7.5970
   XY=             -0.0000   XZ=              0.0000   YZ=              0.0000

  Exact polarizability:      34.713      -0.000       2.021       0.000       0.000       2.021
 Approx polarizability:      39.758      -0.000       1.920       0.000      -0.000       1.920

 ******    2 imaginary frequencies (negative Signs) ******

                      1                      2                      3
                      A                      A                      A
 Frequencies --   -565.5201              -198.1865               215.7732
 Red. masses --      1.0417                 1.0702                 1.0197
 Frc consts  --      0.1963                 0.0248                 0.0280
 IR Inten    --     63.9347                 3.0595                 4.2072

                      4
                      A
 Frequencies --    215.7732
 Red. masses --      1.0197
 Frc consts  --      0.0280
 IR Inten    --      4.2072

 - Thermochemistry -
 -------------------
 Temperature   298.150 Kelvin.  Pressure   1.00000 Atm.
 Atom     1 has atomic number  1 and mass   1.00783

 Molecular mass:    21.01405 amu.
 Principal axes and moments of inertia in atomic units:
                           1         2         3
     Eigenvalues --     0.00000 130.17124 130.17124
           X            1.00000  -0.00000   0.00000
           Y            0.00000   1.00000   0.00000
           Z            0.00000   0.00000   1.00000
 This molecule is a prolate symmetric top.
 Rotational symmetry number  1.
 Rotational temperature (Kelvin)      0.66538
 Rotational constant (GHZ):          13.864362
    2 imaginary frequencies ignored.
 Zero-point vibrational energy       2581.2 (Joules/Mol)
                                    0.61693 (Kcal/Mol)
 Warning -- explicit consideration of   2 degrees of freedom as
           vibrations may cause significant error
 Vibrational temperatures:    310.45   310.45
          (Kelvin)

 Zero-point correction=                           0.000983 (Hartree/Particle)
 Thermal correction to Energy=                    0.004416
 Thermal correction to Enthalpy=                  0.005361
 Thermal correction to Gibbs Free Energy=        -0.020559
 Sum of electronic and zero-point Energies=           -100.764471
 Sum of electronic and thermal Energies=              -100.761037
 Sum of electronic and thermal Enthalpies=            -100.760093
 Sum of electronic and thermal Free Energies=         -100.786013

                     E (Thermal)             CV                S
                      KCal/Mol        Cal/Mol-Kelvin    Cal/Mol-Kelvin
 Total                    2.771              8.602             54.553
 Electronic               0.000              0.000              1.377
 Translational            0.889              2.981             35.068
 Rotational               0.592              1.987             14.119
 Vibrational              1.290              3.634              3.989
 Vibration     1          0.645              1.817              1.994
 Vibration     2          0.645              1.817              1.994

 Normal termination of Gaussian 16 at Fri Aug 22 18:15:24 2025.
