 Gaussian 16, Revision C.01,
 Gaussian 16:  ES64L-G16RevC.01  3-Jul-2019

 -----------------------------------------
 # sp b3lyp/6-311g** Force nosymm scf=(qc)
 -----------------------------------------

 -------------------
 Title Card Required
 -------------------
 Symbolic Z-matrix:
 Charge =  0 Multiplicity = 2

                          Input orientation:
 ---------------------------------------------------------------------
 Center     Atomic      Atomic             Coordinates (Angstroms)
 Number     Number       Type             X           Y           Z
 ---------------------------------------------------------------------
      1          1           0        0.000000    0.000000    0.000000
      2          1           0       -2.400000    0.000000    0.000000
      3          9           0        2.100000    0.000000    0.000000
 ---------------------------------------------------------------------

 SCF Done:  E(UB3LYP) =  -100.785889637     a.u. after   21 cycles

 Alpha  occ. eigenvalues --  -24.68915  -1.15233  -0.47948  -0.40323  -0.40323
 Alpha  occ. eigenvalues --   -0.34875
 Alpha virt. eigenvalues --   -0.13532   0.24250   0.31511   0.89047   0.94816
 Alpha virt. eigenvalues --    0.94816   1.06279   1.22820   1.22820   1.26590
 Alpha virt. eigenvalues --    1.35337   1.35337   1.55057   2.13367   2.29538

  Beta  occ. eigenvalues --  -24.66402  -1.08172  -0.37839  -0.37839  -0.37099
  Beta virt. eigenvalues --   -0.21474  -0.10281   0.25444   0.34152   0.92102
  Beta virt. eigenvalues --    0.95729   0.95729   1.08839   1.22082   1.22082
  Beta virt. eigenvalues --    1.40396   1.40396   1.42667   1.47892   2.12938

 Mulliken charges and spin densities:
               1          2
     1  H    0.145416  -0.751425
     2  H    0.020445   0.960782
     3  F   -0.165861   0.790643
 Sum of Mulliken charges =   0.00000   1.00000

 Dipole moment (field-independent basis, Debye):
    X=             -1.9705    Y=             -0.0000    Z=             -0.0000  Tot=              1.9705
 Quadrupole moment (field-independent basis, Debye-Ang):
   XX=             -9.2185   YY=             -7.5516   ZZ=             -7.5516
   XY=              0.0000   XZ=              0.0000   YZ=             -0.0000

  Exact polarizability:      41.531       0.000       2.043       0.000      -0.000       2.043
 Approx polarizability:      48.356      -0.000       1.939      -0.000       0.000       1.939

 ******    2 imaginary frequencies (negative Signs) ******

                      1                      2                      3
                      A                      A                      A
 Frequencies --  -1133.5387              -430.8895               472.4253
 Red. masses --      1.0340                 1.0785                 1.0196
 Frc consts  --      0.7828                 0.1180                 0.1341
 IR Inten    --     81.5669                23.4937                16.8252

                      4
                      A
 Frequencies --    472.4253
 Red. masses --      1.0196
 Frc consts  --      0.1341
 IR Inten    --     16.8252

 - Thermochemistry -
 -------------------
 Temperature   298.150 Kelvin.  Pressure   1.00000 Atm.
 Atom     1 has atomic number  1 and mass   1.00783

 Molecular mass:    21.01405 amu.
 Principal axes and moments of inertia in atomic units:
                           1         2         3
     Eigenvalues --     0.00000  81.23279  81.23279
           X            1.00000  -0.00000   0.00000
           Y            0.00000   1.00000   0.00000
           Z            0.00000   0.00000   1.00000
 This molecule is a prolate symmetric top.
 Rotational symmetry number  1.
 Rotational temperature (Kelvin)      1.06624
 Rotational constant (GHZ):          22.216904
    2 imaginary frequencies ignored.
 Zero-point vibrational energy       5651.5 (Joules/Mol)
                                    1.35073 (Kcal/Mol)
 Warning -- explicit consideration of   2 degrees of freedom as
           vibrations may cause significant error
 Vibrational temperatures:    679.71   679.71
          (Kelvin)

 Zero-point correction=                           0.002153 (Hartree/Particle)
 Thermal correction to Energy=                    0.005004
 Thermal correction to Enthalpy=                  0.005948
 Thermal correction to Gibbs Free Energy=        -0.018326
 Sum of electronic and zero-point Energies=           -100.783737
 Sum of electronic and thermal Energies=              -100.780886
 Sum of electronic and thermal Enthalpies=            -100.779942
 Sum of electronic and thermal Free Energies=         -100.804216

                     E (Thermal)             CV                S
                      KCal/Mol        Cal/Mol-Kelvin    Cal/Mol-Kelvin
 Total                    3.140              7.590             51.089
 Electronic               0.000              0.000              1.377
 Translational            0.889              2.981             35.068
 Rotational               0.592              1.987             13.182
 Vibrational              1.659              2.622              1.462
 Vibration     1          0.829              1.311              0.731
 Vibration     2          0.829              1.311              0.731

 Normal termination of Gaussian 16 at Fri Aug 22 17:04:12 2025.
