 Gaussian 16, Revision C.01,
 Gaussian 16:  ES64L-G16RevC.01  3-Jul-2019

 -----------------------------------------
 # sp b3lyp/6-311g** Force nosymm scf=(qc)
 -----------------------------------------

 -------------------
 Title Card Required
 -------------------
 Symbolic Z-matrix:
 Charge =  0 Multiplicity = 2

                          Input orientation:
 ---------------------------------------------------------------------
 Center     Atomic      Atomic             Coordinates (Angstroms)
 Number     Number       Type             X           Y           Z
 ---------------------------------------------------------------------
      1          1           0        0.000000    0.000000    0.000000
      2          1           0       -1.000000    0.000000    0.000000
      3          9           0        2.700000    0.000000    0.000000
 ---------------------------------------------------------------------

 SCF Done:  E(UB3LYP) =  -100.907020648     a.u. after    7 cycles

 Alpha  occ. eigenvalues --  -24.75961  -1.21876  -0.55124  -0.46261  -0.46261
 Alpha  occ. eigenvalues --   -0.39528
 Alpha virt. eigenvalues --    0.00149   0.21288   0.39007   0.89887   0.91054
 Alpha virt. eigenvalues --    0.91054   1.08020   1.08549   1.08549   1.36923
 Alpha virt. eigenvalues --    1.65204   1.65204   2.22815   2.36468   2.58554

  Beta  occ. eigenvalues --  -24.72840  -1.12907  -0.43133  -0.43133  -0.39455
  Beta virt. eigenvalues --   -0.26141   0.00477   0.21504   0.39432   0.92533
  Beta virt. eigenvalues --    0.92533   0.98385   1.08673   1.08673   1.12407
  Beta virt. eigenvalues --    1.37077   1.65300   1.65300   2.23023   2.36595

 Mulliken charges and spin densities:
               1          2
     1  H   -0.010675  -0.010830
     2  H    0.015582   0.022906
     3  F   -0.004907   0.987924
 Sum of Mulliken charges =   0.00000   1.00000

 Dipole moment (field-independent basis, Debye):
    X=             -0.1489    Y=             -0.0000    Z=              0.0000  Tot=              0.1489
 Quadrupole moment (field-independent basis, Debye-Ang):
   XX=             -5.6609   YY=             -7.2662   ZZ=             -7.2662
   XY=             -0.0000   XZ=              0.0000   YZ=              0.0000

  Exact polarizability:      19.350      -0.000       2.068      -0.000      -0.000       2.068
 Approx polarizability:      22.571      -0.000       2.120      -0.000       0.000       2.120

 ******    1 imaginary frequencies (negative Signs) ******

                      1                      2                      3
                      A                      A                      A
 Frequencies --   -143.8276              1525.5630              1525.5630
 Red. masses --      1.1085                 1.0102                 1.0102
 Frc consts  --      0.0135                 1.3853                 1.3853
 IR Inten    --      4.4652                 0.1783                 0.1783

                      4
                      A
 Frequencies --   1756.2815
 Red. masses --      1.0079
 Frc consts  --      1.8316
 IR Inten    --     43.7810

 - Thermochemistry -
 -------------------
 Temperature   298.150 Kelvin.  Pressure   1.00000 Atm.
 Atom     1 has atomic number  1 and mass   1.00783

 Molecular mass:    21.01405 amu.
 Principal axes and moments of inertia in atomic units:
                           1         2         3
     Eigenvalues --     0.00000  68.43722  68.43722
           X            1.00000  -0.00000   0.00000
           Y            0.00000   1.00000   0.00000
           Z            0.00000   0.00000   1.00000
 This molecule is a prolate symmetric top.
 Rotational symmetry number  1.
 Rotational temperature (Kelvin)      1.26560
 Rotational constant (GHZ):          26.370756
    1 imaginary frequencies ignored.
 Zero-point vibrational energy      28754.7 (Joules/Mol)
                                    6.87253 (Kcal/Mol)
 Vibrational temperatures:   2194.94  2194.94  2526.90
          (Kelvin)

 Zero-point correction=                           0.010952 (Hartree/Particle)
 Thermal correction to Energy=                    0.013323
 Thermal correction to Enthalpy=                  0.014267
 Thermal correction to Gibbs Free Energy=        -0.009162
 Sum of electronic and zero-point Energies=           -100.896069
 Sum of electronic and thermal Energies=              -100.893698
 Sum of electronic and thermal Enthalpies=            -100.892753
 Sum of electronic and thermal Free Energies=         -100.916183

                     E (Thermal)             CV                S
                      KCal/Mol        Cal/Mol-Kelvin    Cal/Mol-Kelvin
 Total                    8.360              5.135             49.312
 Electronic               0.000              0.000              1.377
 Translational            0.889              2.981             35.068
 Rotational               0.592              1.987             12.841
 Vibrational              6.879              0.167              0.025

 Normal termination of Gaussian 16 at Fri Aug 22 18:19:34 2025.
