 Gaussian 16, Revision C.01,
 Gaussian 16:  ES64L-G16RevC.01  3-Jul-2019

 -----------------------------------------
 # sp b3lyp/6-311g** Force nosymm scf=(qc)
 -----------------------------------------

 -------------------
 Title Card Required
 -------------------
 Symbolic Z-matrix:
 Charge =  0 Multiplicity = 2

                          Input orientation:
 ---------------------------------------------------------------------
 Center     Atomic      Atomic             Coordinates (Angstroms)
 Number     Number       Type             X           Y           Z
 ---------------------------------------------------------------------
      1          1           0        0.000000    0.000000    0.000000
      2          1           0       -3.450000    0.000000    0.000000
      3          9           0        2.750000    0.000000    0.000000
 ---------------------------------------------------------------------

 SCF Done:  E(UB3LYP) =  -100.763439136     a.u. after   19 cycles

 Alpha  occ. eigenvalues --  -24.73053  -1.19186  -0.52168  -0.43810  -0.43810
 Alpha  occ. eigenvalues --   -0.32718
 Alpha virt. eigenvalues --   -0.09146   0.23839   0.35715   0.89949   0.92885
 Alpha virt. eigenvalues --    0.92885   1.05351   1.24792   1.24792   1.24995
 Alpha virt. eigenvalues --    1.42593   1.42593   1.43612   2.14731   2.38368

  Beta  occ. eigenvalues --  -24.70101  -1.10749  -0.40860  -0.40860  -0.34446
  Beta virt. eigenvalues --   -0.24167  -0.06740   0.24052   0.37799   0.94317
  Beta virt. eigenvalues --    0.94317   0.98001   1.08615   1.22879   1.22879
  Beta virt. eigenvalues --    1.25042   1.45660   1.45930   1.45930   2.14235

 Mulliken charges and spin densities:
               1          2
     1  H    0.058584  -0.932034
     2  H    0.000735   0.997671
     3  F   -0.059319   0.934363
 Sum of Mulliken charges =  -0.00000   1.00000

 Dipole moment (field-independent basis, Debye):
    X=             -0.8476    Y=             -0.0000    Z=              0.0000  Tot=              0.8476
 Quadrupole moment (field-independent basis, Debye-Ang):
   XX=             -8.8072   YY=             -7.5956   ZZ=             -7.5956
   XY=             -0.0000   XZ=              0.0000   YZ=              0.0000

  Exact polarizability:      32.437       0.000       2.023      -0.000       0.000       2.023
 Approx polarizability:      37.013      -0.000       1.922       0.000      -0.000       1.922

 ******    2 imaginary frequencies (negative Signs) ******

                      1                      2                      3
                      A                      A                      A
 Frequencies --   -485.0822              -127.0551               179.1305
 Red. masses --      1.0504                 1.0612                 1.0209
 Frc consts  --      0.1456                 0.0101                 0.0193
 IR Inten    --     58.5268                 0.5367                 3.2452

                      4
                      A
 Frequencies --    179.1305
 Red. masses --      1.0209
 Frc consts  --      0.0193
 IR Inten    --      3.2452

 - Thermochemistry -
 -------------------
 Temperature   298.150 Kelvin.  Pressure   1.00000 Atm.
 Atom     1 has atomic number  1 and mass   1.00783

 Molecular mass:    21.01405 amu.
 Principal axes and moments of inertia in atomic units:
                           1         2         3
     Eigenvalues --     0.00000 151.73714 151.73714
           X            1.00000  -0.00000   0.00000
           Y            0.00000   1.00000   0.00000
           Z            0.00000   0.00000   1.00000
 This molecule is a prolate symmetric top.
 Rotational symmetry number  1.
 Rotational temperature (Kelvin)      0.57082
 Rotational constant (GHZ):          11.893866
    2 imaginary frequencies ignored.
 Zero-point vibrational energy       2142.9 (Joules/Mol)
                                    0.51216 (Kcal/Mol)
 Warning -- explicit consideration of   2 degrees of freedom as
           vibrations may cause significant error
 Vibrational temperatures:    257.73   257.73
          (Kelvin)

 Zero-point correction=                           0.000816 (Hartree/Particle)
 Thermal correction to Energy=                    0.004365
 Thermal correction to Enthalpy=                  0.005309
 Thermal correction to Gibbs Free Energy=        -0.021082
 Sum of electronic and zero-point Energies=           -100.762623
 Sum of electronic and thermal Energies=              -100.759074
 Sum of electronic and thermal Enthalpies=            -100.758130
 Sum of electronic and thermal Free Energies=         -100.784521

                     E (Thermal)             CV                S
                      KCal/Mol        Cal/Mol-Kelvin    Cal/Mol-Kelvin
 Total                    2.739              8.704             55.544
 Electronic               0.000              0.000              1.377
 Translational            0.889              2.981             35.068
 Rotational               0.592              1.987             14.424
 Vibrational              1.258              3.736              4.675
 Vibration     1          0.629              1.868              2.337
 Vibration     2          0.629              1.868              2.337

 Normal termination of Gaussian 16 at Fri Aug 22 18:35:07 2025.
