 Gaussian 16, Revision C.01,
 Gaussian 16:  ES64L-G16RevC.01  3-Jul-2019

 -----------------------------------------
 # sp b3lyp/6-311g** Force nosymm scf=(qc)
 -----------------------------------------

 -------------------
 Title Card Required
 -------------------
 Symbolic Z-matrix:
 Charge =  0 Multiplicity = 2

                          Input orientation:
 ---------------------------------------------------------------------
 Center     Atomic      Atomic             Coordinates (Angstroms)
 Number     Number       Type             X           Y           Z
 ---------------------------------------------------------------------
      1          1           0        0.000000    0.000000    0.000000
      2          1           0       -1.300000    0.000000    0.000000
      3          9           0        1.250000    0.000000    0.000000
 ---------------------------------------------------------------------

 SCF Done:  E(UB3LYP) =  -100.928470804     a.u. after    8 cycles

 Alpha  occ. eigenvalues --  -24.64237  -1.12492  -0.50949  -0.37986  -0.37403
 Alpha  occ. eigenvalues --   -0.37403
 Alpha virt. eigenvalues --    0.02109   0.19795   0.30782   0.92398   0.92398
 Alpha virt. eigenvalues --    1.00793   1.11305   1.11305   1.14161   1.47553
 Alpha virt. eigenvalues --    1.47553   1.56371   2.01604   2.28242   2.43922

  Beta  occ. eigenvalues --  -24.63236  -1.09912  -0.45724  -0.36473  -0.36473
  Beta virt. eigenvalues --   -0.20725   0.05395   0.23088   0.33736   0.92868
  Beta virt. eigenvalues --    0.92868   1.03087   1.18331   1.18331   1.20355
  Beta virt. eigenvalues --    1.51117   1.51117   1.59248   2.10497   2.30547

 Mulliken charges and spin densities:
               1          2
     1  H    0.281363  -0.079833
     2  H    0.060195   0.783630
     3  F   -0.341557   0.296203
 Sum of Mulliken charges =   0.00000   1.00000

 Dipole moment (field-independent basis, Debye):
    X=             -2.6152    Y=              0.0000    Z=              0.0000  Tot=              2.6152
 Quadrupole moment (field-independent basis, Debye-Ang):
   XX=             -7.9158   YY=             -6.9802   ZZ=             -6.9802
   XY=              0.0000   XZ=              0.0000   YZ=             -0.0000

  Exact polarizability:      23.490       0.000       2.459       0.000       0.000       2.459
 Approx polarizability:      31.369       0.000       2.436      -0.000       0.000       2.436

 ******    1 imaginary frequencies (negative Signs) ******

                      1                      2                      3
                      A                      A                      A
 Frequencies --  -2336.3279               632.8558              1117.8611
 Red. masses --      1.0210                 1.0930                 1.0184
 Frc consts  --      3.2834                 0.2579                 0.7498
 IR Inten    --     46.9173                35.0576                44.0456

                      4
                      A
 Frequencies --   1117.8611
 Red. masses --      1.0184
 Frc consts  --      0.7498
 IR Inten    --     44.0456

 - Thermochemistry -
 -------------------
 Temperature   298.150 Kelvin.  Pressure   1.00000 Atm.
 Atom     1 has atomic number  1 and mass   1.00783

 Molecular mass:    21.01405 amu.
 Principal axes and moments of inertia in atomic units:
                           1         2         3
     Eigenvalues --     0.00000  26.53356  26.53356
           X            1.00000  -0.00000   0.00000
           Y            0.00000   1.00000   0.00000
           Z            0.00000   0.00000   1.00000
 This molecule is a prolate symmetric top.
 Rotational symmetry number  1.
 Rotational temperature (Kelvin)      3.26432
 Rotational constant (GHZ):          68.017303
    1 imaginary frequencies ignored.
 Zero-point vibrational energy      17157.9 (Joules/Mol)
                                    4.10084 (Kcal/Mol)
 Vibrational temperatures:    910.54  1608.35  1608.35
          (Kelvin)

 Zero-point correction=                           0.006535 (Hartree/Particle)
 Thermal correction to Energy=                    0.009085
 Thermal correction to Enthalpy=                  0.010029
 Thermal correction to Gibbs Free Energy=        -0.012738
 Sum of electronic and zero-point Energies=           -100.921936
 Sum of electronic and thermal Energies=              -100.919386
 Sum of electronic and thermal Enthalpies=            -100.918442
 Sum of electronic and thermal Free Energies=         -100.941208

                     E (Thermal)             CV                S
                      KCal/Mol        Cal/Mol-Kelvin    Cal/Mol-Kelvin
 Total                    5.701              6.461             47.916
 Electronic               0.000              0.000              1.377
 Translational            0.889              2.981             35.068
 Rotational               0.592              1.987             10.959
 Vibrational              4.220              1.493              0.512

 Normal termination of Gaussian 16 at Fri Aug 22 16:12:05 2025.
