 Gaussian 16, Revision C.01,
 Gaussian 16:  ES64L-G16RevC.01  3-Jul-2019

 -----------------------------------------
 # sp b3lyp/6-311g** Force nosymm scf=(qc)
 -----------------------------------------

 -------------------
 Title Card Required
 -------------------
 Symbolic Z-matrix:
 Charge =  0 Multiplicity = 2

                          Input orientation:
 ---------------------------------------------------------------------
 Center     Atomic      Atomic             Coordinates (Angstroms)
 Number     Number       Type             X           Y           Z
 ---------------------------------------------------------------------
      1          1           0        0.000000    0.000000    0.000000
      2          1           0       -3.350000    0.000000    0.000000
      3          9           0        3.300000    0.000000    0.000000
 ---------------------------------------------------------------------

 SCF Done:  E(UB3LYP) =  -100.759796330     a.u. after   24 cycles

 Alpha  occ. eigenvalues --  -24.74983  -1.20976  -0.54104  -0.45427  -0.45427
 Alpha  occ. eigenvalues --   -0.32434
 Alpha virt. eigenvalues --   -0.07602   0.24359   0.36407   0.88296   0.91730
 Alpha virt. eigenvalues --    0.91730   1.02458   1.25077   1.25077   1.25337
 Alpha virt. eigenvalues --    1.44494   1.44494   1.44552   2.15166   2.40631

  Beta  occ. eigenvalues --  -24.71895  -1.12110  -0.42333  -0.42333  -0.33124
  Beta virt. eigenvalues --   -0.25272  -0.06773   0.24151   0.37661   0.93211
  Beta virt. eigenvalues --    0.93211   0.97292   1.06383   1.24277   1.24277
  Beta virt. eigenvalues --    1.24527   1.45541   1.45785   1.45785   2.15506

 Mulliken charges and spin densities:
               1          2
     1  H    0.018830  -0.975847
     2  H    0.000395   0.996958
     3  F   -0.019225   0.978889
 Sum of Mulliken charges =  -0.00000   1.00000

 Dipole moment (field-independent basis, Debye):
    X=             -0.3324    Y=             -0.0000    Z=             -0.0000  Tot=              0.3324
 Quadrupole moment (field-independent basis, Debye-Ang):
   XX=             -7.7043   YY=             -7.6214   ZZ=             -7.6214
   XY=             -0.0000   XZ=             -0.0000   YZ=             -0.0000

  Exact polarizability:      28.806      -0.000       2.030      -0.000      -0.000       2.030
 Approx polarizability:      24.843      -0.000       1.930      -0.000       0.000       1.930

 ******    2 imaginary frequencies (negative Signs) ******

                      1                      2                      3
                      A                      A                      A
 Frequencies --   -306.7981              -126.6719               102.5109
 Red. masses --      1.0300                 1.0828                 1.0181
 Frc consts  --      0.0571                 0.0102                 0.0063
 IR Inten    --     19.2602                 1.9527                 0.3189

                      4
                      A
 Frequencies --    102.5109
 Red. masses --      1.0181
 Frc consts  --      0.0063
 IR Inten    --      0.3189

 - Thermochemistry -
 -------------------
 Temperature   298.150 Kelvin.  Pressure   1.00000 Atm.
 Atom     1 has atomic number  1 and mass   1.00783

 Molecular mass:    21.01405 amu.
 Principal axes and moments of inertia in atomic units:
                           1         2         3
     Eigenvalues --     0.00000 181.26184 181.26184
           X            1.00000  -0.00000   0.00000
           Y            0.00000   1.00000   0.00000
           Z            0.00000   0.00000   1.00000
 This molecule is a prolate symmetric top.
 Rotational symmetry number  1.
 Rotational temperature (Kelvin)      0.47784
 Rotational constant (GHZ):           9.956542
    2 imaginary frequencies ignored.
 Zero-point vibrational energy       1226.3 (Joules/Mol)
                                    0.29309 (Kcal/Mol)
 Warning -- explicit consideration of   2 degrees of freedom as
           vibrations may cause significant error
 Vibrational temperatures:    147.49   147.49
          (Kelvin)

 Zero-point correction=                           0.000467 (Hartree/Particle)
 Thermal correction to Energy=                    0.004287
 Thermal correction to Enthalpy=                  0.005231
 Thermal correction to Gibbs Free Energy=        -0.022343
 Sum of electronic and zero-point Energies=           -100.759329
 Sum of electronic and thermal Energies=              -100.755509
 Sum of electronic and thermal Enthalpies=            -100.754565
 Sum of electronic and thermal Free Energies=         -100.782139

                     E (Thermal)             CV                S
                      KCal/Mol        Cal/Mol-Kelvin    Cal/Mol-Kelvin
 Total                    2.690              8.862             58.034
 Electronic               0.000              0.000              1.377
 Translational            0.889              2.981             35.068
 Rotational               0.592              1.987             14.777
 Vibrational              1.209              3.894              6.812
 Vibration     1          0.605              1.947              3.406
 Vibration     2          0.605              1.947              3.406

 Normal termination of Gaussian 16 at Fri Aug 22 20:49:53 2025.
