 Gaussian 16, Revision C.01,
 Gaussian 16:  ES64L-G16RevC.01  3-Jul-2019

 -----------------------------------------
 # sp b3lyp/6-311g** Force nosymm scf=(qc)
 -----------------------------------------

 -------------------
 Title Card Required
 -------------------
 Symbolic Z-matrix:
 Charge =  0 Multiplicity = 2

                          Input orientation:
 ---------------------------------------------------------------------
 Center     Atomic      Atomic             Coordinates (Angstroms)
 Number     Number       Type             X           Y           Z
 ---------------------------------------------------------------------
      1          1           0        0.000000    0.000000    0.000000
      2          1           0       -1.650000    0.000000    0.000000
      3          9           0        2.000000    0.000000    0.000000
 ---------------------------------------------------------------------

 SCF Done:  E(UB3LYP) =  -100.820302066     a.u. after   14 cycles

 Alpha  occ. eigenvalues --  -24.68967  -1.15324  -0.48299  -0.40396  -0.40396
 Alpha  occ. eigenvalues --   -0.37504
 Alpha virt. eigenvalues --   -0.11930   0.22891   0.30775   0.85162   0.94398
 Alpha virt. eigenvalues --    0.94398   1.02987   1.18915   1.18915   1.28088
 Alpha virt. eigenvalues --    1.35709   1.35709   1.73251   2.15973   2.39239

  Beta  occ. eigenvalues --  -24.66476  -1.08336  -0.37936  -0.37936  -0.37337
  Beta virt. eigenvalues --   -0.22763  -0.10430   0.25384   0.30401   0.88598
  Beta virt. eigenvalues --    0.95289   0.95289   1.07180   1.21185   1.21185
  Beta virt. eigenvalues --    1.33344   1.36414   1.36414   1.74260   2.16729

 Mulliken charges and spin densities:
               1          2
     1  H    0.105882  -0.474870
     2  H    0.060809   0.692447
     3  F   -0.166691   0.782424
 Sum of Mulliken charges =  -0.00000   1.00000

 Dipole moment (field-independent basis, Debye):
    X=             -2.1380    Y=             -0.0000    Z=              0.0000  Tot=              2.1380
 Quadrupole moment (field-independent basis, Debye-Ang):
   XX=             -8.0538   YY=             -7.5472   ZZ=             -7.5472
   XY=              0.0000   XZ=             -0.0000   YZ=              0.0000

  Exact polarizability:      53.484       0.000       2.090      -0.000      -0.000       2.090
 Approx polarizability:      75.637      -0.000       2.025       0.000       0.000       2.025

 ******    2 imaginary frequencies (negative Signs) ******

                      1                      2                      3
                      A                      A                      A
 Frequencies --  -2066.0028              -545.6624               917.3941
 Red. masses --      1.0124                 1.1030                 1.0158
 Frc consts  --      2.5461                 0.1935                 0.5037
 IR Inten    --    429.0887                26.3486                 4.2916

                      4
                      A
 Frequencies --    917.3941
 Red. masses --      1.0158
 Frc consts  --      0.5037
 IR Inten    --      4.2916

 - Thermochemistry -
 -------------------
 Temperature   298.150 Kelvin.  Pressure   1.00000 Atm.
 Atom     1 has atomic number  1 and mass   1.00783

 Molecular mass:    21.01405 amu.
 Principal axes and moments of inertia in atomic units:
                           1         2         3
     Eigenvalues --     0.00000  56.83378  56.83378
           X            1.00000  -0.00000   0.00000
           Y            0.00000   1.00000   0.00000
           Z            0.00000   0.00000   1.00000
 This molecule is a prolate symmetric top.
 Rotational symmetry number  1.
 Rotational temperature (Kelvin)      1.52399
 Rotational constant (GHZ):          31.754727
    2 imaginary frequencies ignored.
 Zero-point vibrational energy      10974.5 (Joules/Mol)
                                    2.62296 (Kcal/Mol)
 Vibrational temperatures:   1319.93  1319.93
          (Kelvin)

 Zero-point correction=                           0.004180 (Hartree/Particle)
 Thermal correction to Energy=                    0.006642
 Thermal correction to Enthalpy=                  0.007586
 Thermal correction to Gibbs Free Energy=        -0.015780
 Sum of electronic and zero-point Energies=           -100.816122
 Sum of electronic and thermal Energies=              -100.813661
 Sum of electronic and thermal Enthalpies=            -100.812716
 Sum of electronic and thermal Free Energies=         -100.836083

                     E (Thermal)             CV                S
                      KCal/Mol        Cal/Mol-Kelvin    Cal/Mol-Kelvin
 Total                    4.168              5.921             49.178
 Electronic               0.000              0.000              1.377
 Translational            0.889              2.981             35.068
 Rotational               0.592              1.987             12.472
 Vibrational              2.686              0.953              0.261

 Normal termination of Gaussian 16 at Fri Aug 22 16:56:11 2025.
