 Gaussian 16, Revision C.01,
 Gaussian 16:  ES64L-G16RevC.01  3-Jul-2019

 -----------------------------------------
 # sp b3lyp/6-311g** Force nosymm scf=(qc)
 -----------------------------------------

 -------------------
 Title Card Required
 -------------------
 Symbolic Z-matrix:
 Charge =  0 Multiplicity = 2

                          Input orientation:
 ---------------------------------------------------------------------
 Center     Atomic      Atomic             Coordinates (Angstroms)
 Number     Number       Type             X           Y           Z
 ---------------------------------------------------------------------
      1          1           0        0.000000    0.000000    0.000000
      2          1           0       -3.400000    0.000000    0.000000
      3          9           0        2.050000    0.000000    0.000000
 ---------------------------------------------------------------------

 SCF Done:  E(UB3LYP) =  -100.784220175     a.u. after   16 cycles

 Alpha  occ. eigenvalues --  -24.68636  -1.14960  -0.47642  -0.40107  -0.40107
 Alpha  occ. eigenvalues --   -0.33454
 Alpha virt. eigenvalues --   -0.13350   0.22561   0.32390   0.88596   0.94794
 Alpha virt. eigenvalues --    0.94794   1.05791   1.24064   1.24064   1.24244
 Alpha virt. eigenvalues --    1.35933   1.35933   1.58074   2.14133   2.30350

  Beta  occ. eigenvalues --  -24.66188  -1.08097  -0.37690  -0.37690  -0.37623
  Beta virt. eigenvalues --   -0.21079  -0.07170   0.22913   0.37744   0.90338
  Beta virt. eigenvalues --    0.95565   0.95565   1.08186   1.21756   1.21756
  Beta virt. eigenvalues --    1.45025   1.45625   1.45625   1.50654   2.12001

 Mulliken charges and spin densities:
               1          2
     1  H    0.178029  -0.767347
     2  H    0.001977   0.997018
     3  F   -0.180006   0.770328
 Sum of Mulliken charges =  -0.00000   1.00000

 Dipole moment (field-independent basis, Debye):
    X=             -1.8621    Y=             -0.0000    Z=              0.0000  Tot=              1.8621
 Quadrupole moment (field-independent basis, Debye-Ang):
   XX=             -9.9435   YY=             -7.5016   ZZ=             -7.5016
   XY=             -0.0000   XZ=              0.0000   YZ=              0.0000

  Exact polarizability:      27.027      -0.000       2.054       0.000      -0.000       2.054
 Approx polarizability:      38.022      -0.000       1.941       0.000      -0.000       1.941

 ******    2 imaginary frequencies (negative Signs) ******

                      1                      2                      3
                      A                      A                      A
 Frequencies --  -1056.2249              -135.8277               445.7307
 Red. masses --      1.0565                 1.0550                 1.0251
 Frc consts  --      0.6944                 0.0115                 0.1200
 IR Inten    --    116.5620                 0.4069                29.5696

                      4
                      A
 Frequencies --    445.7307
 Red. masses --      1.0251
 Frc consts  --      0.1200
 IR Inten    --     29.5696

 - Thermochemistry -
 -------------------
 Temperature   298.150 Kelvin.  Pressure   1.00000 Atm.
 Atom     1 has atomic number  1 and mass   1.00783

 Molecular mass:    21.01405 amu.
 Principal axes and moments of inertia in atomic units:
                           1         2         3
     Eigenvalues --     0.00000 112.31525 112.31525
           X            1.00000  -0.00000   0.00000
           Y            0.00000   1.00000   0.00000
           Z            0.00000   0.00000   1.00000
 This molecule is a prolate symmetric top.
 Rotational symmetry number  1.
 Rotational temperature (Kelvin)      0.77117
 Rotational constant (GHZ):          16.068533
    2 imaginary frequencies ignored.
 Zero-point vibrational energy       5332.1 (Joules/Mol)
                                    1.27441 (Kcal/Mol)
 Warning -- explicit consideration of   2 degrees of freedom as
           vibrations may cause significant error
 Vibrational temperatures:    641.31   641.31
          (Kelvin)

 Zero-point correction=                           0.002031 (Hartree/Particle)
 Thermal correction to Energy=                    0.004926
 Thermal correction to Enthalpy=                  0.005870
 Thermal correction to Gibbs Free Energy=        -0.018784
 Sum of electronic and zero-point Energies=           -100.782189
 Sum of electronic and thermal Energies=              -100.779294
 Sum of electronic and thermal Enthalpies=            -100.778350
 Sum of electronic and thermal Free Energies=         -100.803004

                     E (Thermal)             CV                S
                      KCal/Mol        Cal/Mol-Kelvin    Cal/Mol-Kelvin
 Total                    3.091              7.709             51.889
 Electronic               0.000              0.000              1.377
 Translational            0.889              2.981             35.068
 Rotational               0.592              1.987             13.826
 Vibrational              1.610              2.741              1.618
 Vibration     1          0.805              1.370              0.809
 Vibration     2          0.805              1.370              0.809

 Normal termination of Gaussian 16 at Fri Aug 22 17:01:32 2025.
