 Gaussian 16, Revision C.01,
 Gaussian 16:  ES64L-G16RevC.01  3-Jul-2019

 -----------------------------------------
 # sp b3lyp/6-311g** Force nosymm scf=(qc)
 -----------------------------------------

 -------------------
 Title Card Required
 -------------------
 Symbolic Z-matrix:
 Charge =  0 Multiplicity = 2

                          Input orientation:
 ---------------------------------------------------------------------
 Center     Atomic      Atomic             Coordinates (Angstroms)
 Number     Number       Type             X           Y           Z
 ---------------------------------------------------------------------
      1          1           0        0.000000    0.000000    0.000000
      2          1           0       -3.950000    0.000000    0.000000
      3          9           0        1.700000    0.000000    0.000000
 ---------------------------------------------------------------------

 SCF Done:  E(UB3LYP) =  -100.814436949     a.u. after    9 cycles

 Alpha  occ. eigenvalues --  -24.64267  -1.08884  -0.40985  -0.36029  -0.36029
 Alpha  occ. eigenvalues --   -0.33659
 Alpha virt. eigenvalues --   -0.18815   0.20068   0.26684   0.94845   0.94845
 Alpha virt. eigenvalues --    0.96400   1.07268   1.23808   1.23846   1.23846
 Alpha virt. eigenvalues --    1.27610   1.27610   1.70078   2.12130   2.16852

  Beta  occ. eigenvalues --  -24.64273  -1.08901  -0.40995  -0.36035  -0.36035
  Beta virt. eigenvalues --   -0.18842  -0.06281   0.22486   0.38122   0.94848
  Beta virt. eigenvalues --    0.94848   0.96411   1.07268   1.27657   1.27657
  Beta virt. eigenvalues --    1.46274   1.46579   1.46579   1.70119   2.15297

 Mulliken charges and spin densities:
               1          2
     1  H    0.327119   0.002668
     2  H    0.000782   0.999181
     3  F   -0.327901  -0.001849
 Sum of Mulliken charges =  -0.00000   1.00000

 Dipole moment (field-independent basis, Debye):
    X=             -2.7607    Y=              0.0000    Z=              0.0000  Tot=              2.7607
 Quadrupole moment (field-independent basis, Debye-Ang):
   XX=            -10.7147   YY=             -7.4178   ZZ=             -7.4178
   XY=              0.0000   XZ=              0.0000   YZ=             -0.0000

  Exact polarizability:      19.099      -0.000       2.103       0.000      -0.000       2.103
 Approx polarizability:      45.933      -0.000       2.014      -0.000       0.000       2.014

 ******    2 imaginary frequencies (negative Signs) ******

                      1                      2                      3
                      A                      A                      A
 Frequencies --  -1180.8450               -53.3699               872.5151
 Red. masses --      1.0580                 1.0535                 1.0305
 Frc consts  --      0.8692                 0.0018                 0.4622
 IR Inten    --     29.8722                 0.0701               104.0331

                      4
                      A
 Frequencies --    872.5151
 Red. masses --      1.0305
 Frc consts  --      0.4622
 IR Inten    --    104.0331

 - Thermochemistry -
 -------------------
 Temperature   298.150 Kelvin.  Pressure   1.00000 Atm.
 Atom     1 has atomic number  1 and mass   1.00783

 Molecular mass:    21.01405 amu.
 Principal axes and moments of inertia in atomic units:
                           1         2         3
     Eigenvalues --     0.00000 115.96583 115.96583
           X            1.00000  -0.00000   0.00000
           Y            0.00000   1.00000   0.00000
           Z            0.00000   0.00000   1.00000
 This molecule is a prolate symmetric top.
 Rotational symmetry number  1.
 Rotational temperature (Kelvin)      0.74689
 Rotational constant (GHZ):          15.562698
    2 imaginary frequencies ignored.
 Zero-point vibrational energy      10437.6 (Joules/Mol)
                                    2.49465 (Kcal/Mol)
 Vibrational temperatures:   1255.35  1255.35
          (Kelvin)

 Zero-point correction=                           0.003975 (Hartree/Particle)
 Thermal correction to Energy=                    0.006456
 Thermal correction to Enthalpy=                  0.007400
 Thermal correction to Gibbs Free Energy=        -0.016664
 Sum of electronic and zero-point Energies=           -100.810461
 Sum of electronic and thermal Energies=              -100.807981
 Sum of electronic and thermal Enthalpies=            -100.807037
 Sum of electronic and thermal Free Energies=         -100.831101

                     E (Thermal)             CV                S
                      KCal/Mol        Cal/Mol-Kelvin    Cal/Mol-Kelvin
 Total                    4.051              6.045             50.646
 Electronic               0.000              0.000              1.377
 Translational            0.889              2.981             35.068
 Rotational               0.592              1.987             13.889
 Vibrational              2.570              1.077              0.311

 Normal termination of Gaussian 16 at Fri Aug 22 16:39:05 2025.
