 Gaussian 16, Revision C.01,
 Gaussian 16:  ES64L-G16RevC.01  3-Jul-2019

 -----------------------------------------
 # sp b3lyp/6-311g** Force nosymm scf=(qc)
 -----------------------------------------

 -------------------
 Title Card Required
 -------------------
 Symbolic Z-matrix:
 Charge =  0 Multiplicity = 2

                          Input orientation:
 ---------------------------------------------------------------------
 Center     Atomic      Atomic             Coordinates (Angstroms)
 Number     Number       Type             X           Y           Z
 ---------------------------------------------------------------------
      1          1           0        0.000000    0.000000    0.000000
      2          1           0       -3.400000    0.000000    0.000000
      3          9           0        1.950000    0.000000    0.000000
 ---------------------------------------------------------------------

 SCF Done:  E(UB3LYP) =  -100.790929204     a.u. after   17 cycles

 Alpha  occ. eigenvalues --  -24.67838  -1.14142  -0.46784  -0.39427  -0.39427
 Alpha  occ. eigenvalues --   -0.33589
 Alpha virt. eigenvalues --   -0.14063   0.22242   0.31500   0.89566   0.94875
 Alpha virt. eigenvalues --    0.94875   1.05714   1.23929   1.23929   1.24093
 Alpha virt. eigenvalues --    1.34939   1.34939   1.62870   2.14009   2.28727

  Beta  occ. eigenvalues --  -24.65555  -1.07781  -0.38258  -0.37182  -0.37182
  Beta virt. eigenvalues --   -0.20412  -0.07220   0.22553   0.37726   0.90706
  Beta virt. eigenvalues --    0.95363   0.95363   1.08136   1.22269   1.22269
  Beta virt. eigenvalues --    1.45109   1.45597   1.45597   1.56459   2.12116

 Mulliken charges and spin densities:
               1          2
     1  H    0.205901  -0.714694
     2  H    0.002202   0.996910
     3  F   -0.208103   0.717784
 Sum of Mulliken charges =   0.00000   1.00000

 Dipole moment (field-independent basis, Debye):
    X=             -2.0343    Y=              0.0000    Z=              0.0000  Tot=              2.0343
 Quadrupole moment (field-independent basis, Debye-Ang):
   XX=            -10.0362   YY=             -7.4796   ZZ=             -7.4796
   XY=              0.0000   XZ=             -0.0000   YZ=              0.0000

  Exact polarizability:      25.889      -0.000       2.069      -0.000       0.000       2.069
 Approx polarizability:      37.419       0.000       1.955      -0.000      -0.000       1.955

 ******    2 imaginary frequencies (negative Signs) ******

                      1                      2                      3
                      A                      A                      A
 Frequencies --  -1217.2806              -134.9100               517.0199
 Red. masses --      1.0569                 1.0546                 1.0259
 Frc consts  --      0.9227                 0.0113                 0.1616
 IR Inten    --    124.2759                 0.4364                39.3199

                      4
                      A
 Frequencies --    517.0199
 Red. masses --      1.0259
 Frc consts  --      0.1616
 IR Inten    --     39.3199

 - Thermochemistry -
 -------------------
 Temperature   298.150 Kelvin.  Pressure   1.00000 Atm.
 Atom     1 has atomic number  1 and mass   1.00783

 Molecular mass:    21.01405 amu.
 Principal axes and moments of inertia in atomic units:
                           1         2         3
     Eigenvalues --     0.00000 107.49963 107.49963
           X            1.00000  -0.00000   0.00000
           Y            0.00000   1.00000   0.00000
           Z            0.00000   0.00000   1.00000
 This molecule is a prolate symmetric top.
 Rotational symmetry number  1.
 Rotational temperature (Kelvin)      0.80571
 Rotational constant (GHZ):          16.788348
    2 imaginary frequencies ignored.
 Zero-point vibrational energy       6184.9 (Joules/Mol)
                                    1.47823 (Kcal/Mol)
 Warning -- explicit consideration of   2 degrees of freedom as
           vibrations may cause significant error
 Vibrational temperatures:    743.88   743.88
          (Kelvin)

 Zero-point correction=                           0.002356 (Hartree/Particle)
 Thermal correction to Energy=                    0.005140
 Thermal correction to Enthalpy=                  0.006084
 Thermal correction to Gibbs Free Energy=        -0.018346
 Sum of electronic and zero-point Energies=           -100.788573
 Sum of electronic and thermal Energies=              -100.785789
 Sum of electronic and thermal Enthalpies=            -100.784845
 Sum of electronic and thermal Free Energies=         -100.809276

                     E (Thermal)             CV                S
                      KCal/Mol        Cal/Mol-Kelvin    Cal/Mol-Kelvin
 Total                    3.225              7.393             51.418
 Electronic               0.000              0.000              1.377
 Translational            0.889              2.981             35.068
 Rotational               0.592              1.987             13.739
 Vibrational              1.744              2.425              1.234
 Vibration     1          0.872              1.212              0.617
 Vibration     2          0.872              1.212              0.617

 Normal termination of Gaussian 16 at Fri Aug 22 16:54:28 2025.
