 Gaussian 16, Revision C.01,
 Gaussian 16:  ES64L-G16RevC.01  3-Jul-2019

 -----------------------------------------
 # sp b3lyp/6-311g** Force nosymm scf=(qc)
 -----------------------------------------

 -------------------
 Title Card Required
 -------------------
 Symbolic Z-matrix:
 Charge =  0 Multiplicity = 2

                          Input orientation:
 ---------------------------------------------------------------------
 Center     Atomic      Atomic             Coordinates (Angstroms)
 Number     Number       Type             X           Y           Z
 ---------------------------------------------------------------------
      1          1           0        0.000000    0.000000    0.000000
      2          1           0       -3.300000    0.000000    0.000000
      3          9           0        1.650000    0.000000    0.000000
 ---------------------------------------------------------------------

 SCF Done:  E(UB3LYP) =  -100.825345431     a.u. after   15 cycles

 Alpha  occ. eigenvalues --  -24.65305  -1.11158  -0.43869  -0.37185  -0.37185
 Alpha  occ. eigenvalues --   -0.34137
 Alpha virt. eigenvalues --   -0.15252   0.21170   0.28880   0.94392   0.94392
 Alpha virt. eigenvalues --    0.98338   1.06545   1.23385   1.23385   1.23572
 Alpha virt. eigenvalues --    1.32678   1.32678   1.74050   2.13695   2.22367

  Beta  occ. eigenvalues --  -24.64091  -1.07873  -0.40753  -0.36014  -0.36014
  Beta virt. eigenvalues --   -0.17847  -0.07426   0.22215   0.37572   0.94070
  Beta virt. eigenvalues --    0.94070   0.99066   1.07472   1.26365   1.26365
  Beta virt. eigenvalues --    1.44917   1.45373   1.45373   1.71070   2.13265

 Mulliken charges and spin densities:
               1          2
     1  H    0.309061  -0.379097
     2  H    0.003446   0.995964
     3  F   -0.312507   0.383134
 Sum of Mulliken charges =   0.00000   1.00000

 Dipole moment (field-independent basis, Debye):
    X=             -2.5686    Y=              0.0000    Z=              0.0000  Tot=              2.5686
 Quadrupole moment (field-independent basis, Debye-Ang):
   XX=            -10.0919   YY=             -7.3920   ZZ=             -7.3920
   XY=              0.0000   XZ=              0.0000   YZ=             -0.0000

  Exact polarizability:      21.844      -0.000       2.134       0.000      -0.000       2.134
 Approx polarizability:      35.827      -0.000       2.039      -0.000      -0.000       2.039

 ******    2 imaginary frequencies (negative Signs) ******

                      1                      2                      3
                      A                      A                      A
 Frequencies --  -1828.9577              -134.8199               835.8038
 Red. masses --      1.0573                 1.0543                 1.0281
 Frc consts  --      2.0838                 0.0113                 0.4231
 IR Inten    --     88.5367                 0.7208                88.5174

                      4
                      A
 Frequencies --    835.8038
 Red. masses --      1.0281
 Frc consts  --      0.4231
 IR Inten    --     88.5174

 - Thermochemistry -
 -------------------
 Temperature   298.150 Kelvin.  Pressure   1.00000 Atm.
 Atom     1 has atomic number  1 and mass   1.00783

 Molecular mass:    21.01405 amu.
 Principal axes and moments of inertia in atomic units:
                           1         2         3
     Eigenvalues --     0.00000  90.46425  90.46425
           X            1.00000  -0.00000   0.00000
           Y            0.00000   1.00000   0.00000
           Z            0.00000   0.00000   1.00000
 This molecule is a prolate symmetric top.
 Rotational symmetry number  1.
 Rotational temperature (Kelvin)      0.95744
 Rotational constant (GHZ):          19.949772
    2 imaginary frequencies ignored.
 Zero-point vibrational energy       9998.4 (Joules/Mol)
                                    2.38968 (Kcal/Mol)
 Vibrational temperatures:   1202.54  1202.54
          (Kelvin)

 Zero-point correction=                           0.003808 (Hartree/Particle)
 Thermal correction to Energy=                    0.006306
 Thermal correction to Enthalpy=                  0.007250
 Thermal correction to Gibbs Free Energy=        -0.016602
 Sum of electronic and zero-point Energies=           -100.821537
 Sum of electronic and thermal Energies=              -100.819039
 Sum of electronic and thermal Enthalpies=            -100.818095
 Sum of electronic and thermal Free Energies=         -100.841948

                     E (Thermal)             CV                S
                      KCal/Mol        Cal/Mol-Kelvin    Cal/Mol-Kelvin
 Total                    3.957              6.155             50.201
 Electronic               0.000              0.000              1.377
 Translational            0.889              2.981             35.068
 Rotational               0.592              1.987             13.396
 Vibrational              2.476              1.187              0.360

 Normal termination of Gaussian 16 at Fri Aug 22 16:35:31 2025.
