 Gaussian 16, Revision C.01,
 Gaussian 16:  ES64L-G16RevC.01  3-Jul-2019

 -----------------------------------------
 # sp b3lyp/6-311g** Force nosymm scf=(qc)
 -----------------------------------------

 -------------------
 Title Card Required
 -------------------
 Symbolic Z-matrix:
 Charge =  0 Multiplicity = 2

                          Input orientation:
 ---------------------------------------------------------------------
 Center     Atomic      Atomic             Coordinates (Angstroms)
 Number     Number       Type             X           Y           Z
 ---------------------------------------------------------------------
      1          1           0        0.000000    0.000000    0.000000
      2          1           0       -0.800000    0.000000    0.000000
      3          9           0        3.050000    0.000000    0.000000
 ---------------------------------------------------------------------

 SCF Done:  E(UB3LYP) =  -100.932520774     a.u. after  304 cycles

 Alpha  occ. eigenvalues --  -24.76594  -1.22407  -0.55599  -0.46853  -0.46749
 Alpha  occ. eigenvalues --   -0.42029
 Alpha virt. eigenvalues --    0.05025   0.20256   0.45145   0.85859   0.90732
 Alpha virt. eigenvalues --    0.93781   1.05039   1.08402   1.08408   1.52583
 Alpha virt. eigenvalues --    1.79070   1.79077   2.06106   2.38716   3.05516

  Beta  occ. eigenvalues --  -24.73433  -1.13320  -0.43762  -0.43580  -0.41947
  Beta virt. eigenvalues --   -0.26224   0.05062   0.20282   0.45241   0.92230
  Beta virt. eigenvalues --    0.95317   0.95552   1.08402   1.08408   1.08772
  Beta virt. eigenvalues --    1.52595   1.79069   1.79077   2.06132   2.38722

 Mulliken charges and spin densities:
               1          2
     1  H   -0.004637  -0.001003
     2  H   -0.003972  -0.000116
     3  F    0.008609   1.001119
 Sum of Mulliken charges =   0.00000   1.00000

 Dipole moment (field-independent basis, Debye):
    X=              0.0895    Y=             -0.0000    Z=             -0.0000  Tot=              0.0895
 Quadrupole moment (field-independent basis, Debye-Ang):
   XX=             -6.0991   YY=             -6.3588   ZZ=             -6.8320
   XY=              0.0000   XZ=             -0.0000   YZ=             -0.3612

  Exact polarizability:       9.322       0.000       2.344      -0.000      -0.193       2.091
 Approx polarizability:      10.878       0.000       2.508      -0.000      -0.242       2.191

                      1                      2                      3
                      A                      A                      A
 Frequencies --     58.7948              1078.3801              1079.8158
 Red. masses --      1.1085                 1.0092                 1.0092
 Frc consts  --      0.0023                 0.6914                 0.6933
 IR Inten    --      0.2613                 0.0057                 0.0048

                      4
                      A
 Frequencies --   3695.4221
 Red. masses --      1.0078
 Frc consts  --      8.1089
 IR Inten    --      0.4059

 - Thermochemistry -
 -------------------
 Temperature   298.150 Kelvin.  Pressure   1.00000 Atm.
 Atom     1 has atomic number  1 and mass   1.00783

 Molecular mass:    21.01405 amu.
 Principal axes and moments of inertia in atomic units:
                           1         2         3
     Eigenvalues --     0.00000  78.60827  78.60827
           X            1.00000  -0.00000   0.00000
           Y            0.00000   1.00000   0.00000
           Z            0.00000   0.00000   1.00000
 This molecule is a prolate symmetric top.
 Rotational symmetry number  1.
 Rotational temperature (Kelvin)      1.10184
 Rotational constant (GHZ):          22.958670
 Zero-point vibrational energy      35364.1 (Joules/Mol)
                                    8.45222 (Kcal/Mol)
 Warning -- explicit consideration of   1 degrees of freedom as
           vibrations may cause significant error
 Vibrational temperatures:     84.59  1551.55  1553.61  5316.89
          (Kelvin)

 Zero-point correction=                           0.013469 (Hartree/Particle)
 Thermal correction to Energy=                    0.016701
 Thermal correction to Enthalpy=                  0.017645
 Thermal correction to Gibbs Free Energy=        -0.008105
 Sum of electronic and zero-point Energies=           -100.919051
 Sum of electronic and thermal Energies=              -100.915820
 Sum of electronic and thermal Enthalpies=            -100.914876
 Sum of electronic and thermal Free Energies=         -100.940626

                     E (Thermal)             CV                S
                      KCal/Mol        Cal/Mol-Kelvin    Cal/Mol-Kelvin
 Total                   10.480              7.539             54.195
 Electronic               0.000              0.000              1.377
 Translational            0.889              2.981             35.068
 Rotational               0.592              1.987             13.117
 Vibrational              8.999              2.571              4.633
 Vibration     1          0.596              1.974              4.497

 Normal termination of Gaussian 16 at Fri Aug 22 19:37:42 2025.
