 Gaussian 16, Revision C.01,
 Gaussian 16:  ES64L-G16RevC.01  3-Jul-2019

 -----------------------------------------
 # sp b3lyp/6-311g** Force nosymm scf=(qc)
 -----------------------------------------

 -------------------
 Title Card Required
 -------------------
 Symbolic Z-matrix:
 Charge =  0 Multiplicity = 2

                          Input orientation:
 ---------------------------------------------------------------------
 Center     Atomic      Atomic             Coordinates (Angstroms)
 Number     Number       Type             X           Y           Z
 ---------------------------------------------------------------------
      1          1           0        0.000000    0.000000    0.000000
      2          1           0       -1.000000    0.000000    0.000000
      3          9           0        0.950000    0.000000    0.000000
 ---------------------------------------------------------------------

 SCF Done:  E(UB3LYP) =  -100.958039902     a.u. after    6 cycles

 Alpha  occ. eigenvalues --  -24.64842  -1.19046  -0.58866  -0.40046  -0.40046
 Alpha  occ. eigenvalues --   -0.36107
 Alpha virt. eigenvalues --    0.13483   0.18709   0.47421   0.90082   0.90082
 Alpha virt. eigenvalues --    0.96886   1.08249   1.08249   1.43041   1.61713
 Alpha virt. eigenvalues --    1.61713   1.67262   2.16140   2.31560   3.06418

  Beta  occ. eigenvalues --  -24.64002  -1.16917  -0.53795  -0.39302  -0.39302
  Beta virt. eigenvalues --   -0.17708   0.15291   0.21880   0.52975   0.91692
  Beta virt. eigenvalues --    0.91692   0.98593   1.14157   1.14157   1.45408
  Beta virt. eigenvalues --    1.66761   1.66761   1.76047   2.16977   2.44393

 Mulliken charges and spin densities:
               1          2
     1  H    0.276063  -0.015244
     2  H    0.009786   0.807241
     3  F   -0.285849   0.208004
 Sum of Mulliken charges =   0.00000   1.00000

 Dipole moment (field-independent basis, Debye):
    X=             -1.8700    Y=              0.0000    Z=              0.0000  Tot=              1.8700
 Quadrupole moment (field-independent basis, Debye-Ang):
   XX=             -7.6029   YY=             -6.6543   ZZ=             -6.6543
   XY=              0.0000   XZ=              0.0000   YZ=              0.0000

  Exact polarizability:      13.429       0.000       2.581      -0.000       0.000       2.581
 Approx polarizability:      15.280       0.000       2.612      -0.000       0.000       2.612

 ******    2 imaginary frequencies (negative Signs) ******

                      1                      2                      3
                      A                      A                      A
 Frequencies --   -924.1383              -924.1383              1541.6514
 Red. masses --      1.0186                 1.0186                 1.0475
 Frc consts  --      0.5125                 0.5125                 1.4668
 IR Inten    --     66.2796                66.2796                68.3553

                      4
                      A
 Frequencies --   3110.7768
 Red. masses --      1.0642
 Frc consts  --      6.0676
 IR Inten    --     23.1932

 - Thermochemistry -
 -------------------
 Temperature   298.150 Kelvin.  Pressure   1.00000 Atm.
 Atom     1 has atomic number  1 and mass   1.00783

 Molecular mass:    21.01405 amu.
 Principal axes and moments of inertia in atomic units:
                           1         2         3
     Eigenvalues --     0.00000  15.48171  15.48171
           X            1.00000  -0.00000   0.00000
           Y            0.00000   1.00000   0.00000
           Z            0.00000   0.00000   1.00000
 This molecule is a prolate symmetric top.
 Rotational symmetry number  1.
 Rotational temperature (Kelvin)      5.59460
 Rotational constant (GHZ):         116.572464
    2 imaginary frequencies ignored.
 Zero-point vibrational energy      27827.7 (Joules/Mol)
                                    6.65098 (Kcal/Mol)
 Vibrational temperatures:   2218.09  4475.71
          (Kelvin)

 Zero-point correction=                           0.010599 (Hartree/Particle)
 Thermal correction to Energy=                    0.012964
 Thermal correction to Enthalpy=                  0.013908
 Thermal correction to Gibbs Free Energy=        -0.008111
 Sum of electronic and zero-point Energies=           -100.947441
 Sum of electronic and thermal Energies=              -100.945076
 Sum of electronic and thermal Enthalpies=            -100.944132
 Sum of electronic and thermal Free Energies=         -100.966151

                     E (Thermal)             CV                S
                      KCal/Mol        Cal/Mol-Kelvin    Cal/Mol-Kelvin
 Total                    8.135              5.033             46.343
 Electronic               0.000              0.000              1.377
 Translational            0.889              2.981             35.068
 Rotational               0.592              1.987              9.888
 Vibrational              6.654              0.065              0.010

 Normal termination of Gaussian 16 at Fri Aug 22 15:57:28 2025.
