 Gaussian 16, Revision C.01,
 Gaussian 16:  ES64L-G16RevC.01  3-Jul-2019

 -----------------------------------------
 # sp b3lyp/6-311g** Force nosymm scf=(qc)
 -----------------------------------------

 -------------------
 Title Card Required
 -------------------
 Symbolic Z-matrix:
 Charge =  0 Multiplicity = 2

                          Input orientation:
 ---------------------------------------------------------------------
 Center     Atomic      Atomic             Coordinates (Angstroms)
 Number     Number       Type             X           Y           Z
 ---------------------------------------------------------------------
      1          1           0        0.000000    0.000000    0.000000
      2          1           0       -3.350000    0.000000    0.000000
      3          9           0        0.650000    0.000000    0.000000
 ---------------------------------------------------------------------

 SCF Done:  E(UB3LYP) =  -100.800706235     a.u. after    6 cycles

 Alpha  occ. eigenvalues --  -24.62933  -1.31312  -0.59801  -0.42354  -0.42354
 Alpha  occ. eigenvalues --   -0.33483
 Alpha virt. eigenvalues --    0.07018   0.25160   0.55389   0.92884   0.92884
 Alpha virt. eigenvalues --    0.94693   1.23595   1.24031   1.24031   1.33430
 Alpha virt. eigenvalues --    1.46914   1.46914   1.96094   2.14847   3.09634

  Beta  occ. eigenvalues --  -24.62933  -1.31309  -0.59799  -0.42354  -0.42354
  Beta virt. eigenvalues --   -0.05432   0.07641   0.39486   0.55446   0.92884
  Beta virt. eigenvalues --    0.92884   0.94686   1.32363   1.46915   1.46915
  Beta virt. eigenvalues --    1.50737   1.50737   1.51423   1.96080   2.44847

 Mulliken charges and spin densities:
               1          2
     1  H    0.254321   0.000706
     2  H    0.000989   0.998757
     3  F   -0.255310   0.000537
 Sum of Mulliken charges =   0.00000   1.00000

 Dipole moment (field-independent basis, Debye):
    X=             -1.5191    Y=              0.0000    Z=              0.0000  Tot=              1.5191
 Quadrupole moment (field-independent basis, Debye-Ang):
   XX=             -7.1087   YY=             -6.6079   ZZ=             -6.6079
   XY=              0.0000   XZ=              0.0000   YZ=             -0.0000

  Exact polarizability:       3.833       0.000       2.447      -0.000       0.000       2.447
 Approx polarizability:       4.098      -0.000       2.427      -0.000       0.000       2.427

 ******    3 imaginary frequencies (negative Signs) ******

                      1                      2                      3
                      A                      A                      A
 Frequencies --  -4594.2903             -4594.2903               -37.5129
 Red. masses --      1.0424                 1.0424                 1.0532
 Frc consts  --     12.9629                12.9629                 0.0009
 IR Inten    --    224.8689               224.8689                 0.0385

                      4
                      A
 Frequencies --  10873.4987
 Red. masses --      1.0583
 Frc consts  --     73.7229
 IR Inten    --    104.2051

 - Thermochemistry -
 -------------------
 Temperature   298.150 Kelvin.  Pressure   1.00000 Atm.
 Atom     1 has atomic number  1 and mass   1.00783

 Molecular mass:    21.01405 amu.
 Principal axes and moments of inertia in atomic units:
                           1         2         3
     Eigenvalues --     0.00000  55.37252  55.37252
           X            1.00000  -0.00000   0.00000
           Y            0.00000   1.00000   0.00000
           Z            0.00000   0.00000   1.00000
 This molecule is a prolate symmetric top.
 Rotational symmetry number  1.
 Rotational temperature (Kelvin)      1.56420
 Rotational constant (GHZ):          32.592720
    3 imaginary frequencies ignored.
 Zero-point vibrational energy      65038.0 (Joules/Mol)
                                   15.54445 (Kcal/Mol)
 Vibrational temperatures:  15644.54
          (Kelvin)

 Zero-point correction=                           0.024772 (Hartree/Particle)
 Thermal correction to Energy=                    0.027132
 Thermal correction to Enthalpy=                  0.028076
 Thermal correction to Gibbs Free Energy=         0.004859
 Sum of electronic and zero-point Energies=           -100.775935
 Sum of electronic and thermal Energies=              -100.773574
 Sum of electronic and thermal Enthalpies=            -100.772630
 Sum of electronic and thermal Free Energies=         -100.795848

                     E (Thermal)             CV                S
                      KCal/Mol        Cal/Mol-Kelvin    Cal/Mol-Kelvin
 Total                   17.026              4.968             48.866
 Electronic               0.000              0.000              1.377
 Translational            0.889              2.981             35.068
 Rotational               0.592              1.987             12.420
 Vibrational             15.544              0.000              0.000

 Normal termination of Gaussian 16 at Fri Aug 22 15:44:56 2025.
