 Gaussian 16, Revision C.01,
 Gaussian 16:  ES64L-G16RevC.01  3-Jul-2019

 -----------------------------------------
 # sp b3lyp/6-311g** Force nosymm scf=(qc)
 -----------------------------------------

 -------------------
 Title Card Required
 -------------------
 Symbolic Z-matrix:
 Charge =  0 Multiplicity = 2

                          Input orientation:
 ---------------------------------------------------------------------
 Center     Atomic      Atomic             Coordinates (Angstroms)
 Number     Number       Type             X           Y           Z
 ---------------------------------------------------------------------
      1          1           0        0.000000    0.000000    0.000000
      2          1           0       -3.500000    0.000000    0.000000
      3          9           0        1.350000    0.000000    0.000000
 ---------------------------------------------------------------------

 SCF Done:  E(UB3LYP) =  -100.889176940     a.u. after    7 cycles

 Alpha  occ. eigenvalues --  -24.64369  -1.10659  -0.45286  -0.36875  -0.36875
 Alpha  occ. eigenvalues --   -0.33928
 Alpha virt. eigenvalues --   -0.10434   0.21096   0.28165   0.93026   0.93026
 Alpha virt. eigenvalues --    1.02651   1.18488   1.23586   1.23586   1.23626
 Alpha virt. eigenvalues --    1.33255   1.33255   1.70838   2.13588   2.22926

  Beta  occ. eigenvalues --  -24.64360  -1.10637  -0.45263  -0.36867  -0.36867
  Beta virt. eigenvalues --   -0.10964  -0.06145   0.24490   0.38348   0.93023
  Beta virt. eigenvalues --    0.93023   1.02675   1.18539   1.33227   1.33227
  Beta virt. eigenvalues --    1.46112   1.46585   1.46585   1.70865   2.22489

 Mulliken charges and spin densities:
               1          2
     1  H    0.357674  -0.001081
     2  H    0.001537   0.998341
     3  F   -0.359211   0.002740
 Sum of Mulliken charges =  -0.00000   1.00000

 Dipole moment (field-independent basis, Debye):
    X=             -2.4666    Y=              0.0000    Z=              0.0000  Tot=              2.4666
 Quadrupole moment (field-independent basis, Debye-Ang):
   XX=             -9.3644   YY=             -7.2327   ZZ=             -7.2327
   XY=              0.0000   XZ=              0.0000   YZ=             -0.0000

  Exact polarizability:      12.330       0.000       2.257      -0.000      -0.000       2.257
 Approx polarizability:      19.881       0.000       2.195      -0.000       0.000       2.195

 ******    2 imaginary frequencies (negative Signs) ******

                      1                      2                      3
                      A                      A                      A
 Frequencies --   -875.7639               -69.4621              1127.9213
 Red. masses --      1.0572                 1.0543                 1.0323
 Frc consts  --      0.4777                 0.0030                 0.7737
 IR Inten    --     55.3193                 0.0989               131.0617

                      4
                      A
 Frequencies --   1127.9213
 Red. masses --      1.0323
 Frc consts  --      0.7737
 IR Inten    --    131.0617

 - Thermochemistry -
 -------------------
 Temperature   298.150 Kelvin.  Pressure   1.00000 Atm.
 Atom     1 has atomic number  1 and mass   1.00783

 Molecular mass:    21.01405 amu.
 Principal axes and moments of inertia in atomic units:
                           1         2         3
     Eigenvalues --     0.00000  84.58186  84.58186
           X            1.00000  -0.00000   0.00000
           Y            0.00000   1.00000   0.00000
           Z            0.00000   0.00000   1.00000
 This molecule is a prolate symmetric top.
 Rotational symmetry number  1.
 Rotational temperature (Kelvin)      1.02402
 Rotational constant (GHZ):          21.337213
    2 imaginary frequencies ignored.
 Zero-point vibrational energy      13492.9 (Joules/Mol)
                                    3.22489 (Kcal/Mol)
 Vibrational temperatures:   1622.83  1622.83
          (Kelvin)

 Zero-point correction=                           0.005139 (Hartree/Particle)
 Thermal correction to Energy=                    0.007544
 Thermal correction to Enthalpy=                  0.008488
 Thermal correction to Gibbs Free Energy=        -0.015182
 Sum of electronic and zero-point Energies=           -100.884038
 Sum of electronic and thermal Energies=              -100.881633
 Sum of electronic and thermal Enthalpies=            -100.880688
 Sum of electronic and thermal Free Energies=         -100.904359

                     E (Thermal)             CV                S
                      KCal/Mol        Cal/Mol-Kelvin    Cal/Mol-Kelvin
 Total                    4.734              5.482             49.819
 Electronic               0.000              0.000              1.377
 Translational            0.889              2.981             35.068
 Rotational               0.592              1.987             13.262
 Vibrational              3.253              0.514              0.111

 Normal termination of Gaussian 16 at Fri Aug 22 16:18:37 2025.
