 Gaussian 16, Revision C.01,
 Gaussian 16:  ES64L-G16RevC.01  3-Jul-2019

 -----------------------------------------
 # sp b3lyp/6-311g** Force nosymm scf=(qc)
 -----------------------------------------

 -------------------
 Title Card Required
 -------------------
 Symbolic Z-matrix:
 Charge =  0 Multiplicity = 2

                          Input orientation:
 ---------------------------------------------------------------------
 Center     Atomic      Atomic             Coordinates (Angstroms)
 Number     Number       Type             X           Y           Z
 ---------------------------------------------------------------------
      1          1           0        0.000000    0.000000    0.000000
      2          1           0       -1.800000    0.000000    0.000000
      3          9           0        2.600000    0.000000    0.000000
 ---------------------------------------------------------------------

 SCF Done:  E(UB3LYP) =  -100.791306009     a.u. after   24 cycles

 Alpha  occ. eigenvalues --  -24.72787  -1.18930  -0.51913  -0.43582  -0.43582
 Alpha  occ. eigenvalues --   -0.34956
 Alpha virt. eigenvalues --   -0.12376   0.24683   0.31204   0.89919   0.93027
 Alpha virt. eigenvalues --    0.93027   1.04433   1.13581   1.22592   1.22592
 Alpha virt. eigenvalues --    1.35411   1.35411   1.59237   2.12903   2.38746

  Beta  occ. eigenvalues --  -24.69868  -1.10595  -0.40667  -0.40667  -0.34846
  Beta virt. eigenvalues --   -0.24246  -0.11710   0.26294   0.30890   0.94436
  Beta virt. eigenvalues --    0.94436   0.97080   1.07061   1.16439   1.22831
  Beta virt. eigenvalues --    1.22831   1.36270   1.36270   1.59902   2.13897

 Mulliken charges and spin densities:
               1          2
     1  H    0.033785  -0.671670
     2  H    0.032048   0.748203
     3  F   -0.065833   0.923467
 Sum of Mulliken charges =  -0.00000   1.00000

 Dipole moment (field-independent basis, Debye):
    X=             -1.1491    Y=              0.0000    Z=             -0.0000  Tot=              1.1491
 Quadrupole moment (field-independent basis, Debye-Ang):
   XX=             -7.5953   YY=             -7.6955   ZZ=             -7.6955
   XY=              0.0000   XZ=             -0.0000   YZ=              0.0000

  Exact polarizability:      63.293       0.000       2.012      -0.000      -0.000       2.012
 Approx polarizability:      72.736      -0.000       1.951       0.000      -0.000       1.951

 ******    2 imaginary frequencies (negative Signs) ******

                      1                      2                      3
                      A                      A                      A
 Frequencies --  -1747.2946              -344.6215               755.6163
 Red. masses --      1.0083                 1.1079                 1.0141
 Frc consts  --      1.8137                 0.0775                 0.3411
 IR Inten    --    146.3883                47.2800                 0.3375

                      4
                      A
 Frequencies --    755.6163
 Red. masses --      1.0141
 Frc consts  --      0.3411
 IR Inten    --      0.3375

 - Thermochemistry -
 -------------------
 Temperature   298.150 Kelvin.  Pressure   1.00000 Atm.
 Atom     1 has atomic number  1 and mass   1.00783

 Molecular mass:    21.01405 amu.
 Principal axes and moments of inertia in atomic units:
                           1         2         3
     Eigenvalues --     0.00000  85.54836  85.54836
           X            1.00000  -0.00000   0.00000
           Y            0.00000   1.00000   0.00000
           Z            0.00000   0.00000   1.00000
 This molecule is a prolate symmetric top.
 Rotational symmetry number  1.
 Rotational temperature (Kelvin)      1.01246
 Rotational constant (GHZ):          21.096151
    2 imaginary frequencies ignored.
 Zero-point vibrational energy       9039.2 (Joules/Mol)
                                    2.16042 (Kcal/Mol)
 Vibrational temperatures:   1087.16  1087.16
          (Kelvin)

 Zero-point correction=                           0.003443 (Hartree/Particle)
 Thermal correction to Energy=                    0.005988
 Thermal correction to Enthalpy=                  0.006932
 Thermal correction to Gibbs Free Energy=        -0.016931
 Sum of electronic and zero-point Energies=           -100.787863
 Sum of electronic and thermal Energies=              -100.785318
 Sum of electronic and thermal Enthalpies=            -100.784374
 Sum of electronic and thermal Free Energies=         -100.808237

                     E (Thermal)             CV                S
                      KCal/Mol        Cal/Mol-Kelvin    Cal/Mol-Kelvin
 Total                    3.757              6.421             50.224
 Electronic               0.000              0.000              1.377
 Translational            0.889              2.981             35.068
 Rotational               0.592              1.987             13.285
 Vibrational              2.276              1.453              0.493

 Normal termination of Gaussian 16 at Fri Aug 22 18:03:30 2025.
