 Gaussian 16, Revision C.01,
 Gaussian 16:  ES64L-G16RevC.01  3-Jul-2019

 -----------------------------------------
 # sp b3lyp/6-311g** Force nosymm scf=(qc)
 -----------------------------------------

 -------------------
 Title Card Required
 -------------------
 Symbolic Z-matrix:
 Charge =  0 Multiplicity = 2

                          Input orientation:
 ---------------------------------------------------------------------
 Center     Atomic      Atomic             Coordinates (Angstroms)
 Number     Number       Type             X           Y           Z
 ---------------------------------------------------------------------
      1          1           0        0.000000    0.000000    0.000000
      2          1           0       -3.850000    0.000000    0.000000
      3          9           0        0.700000    0.000000    0.000000
 ---------------------------------------------------------------------

 SCF Done:  E(UB3LYP) =  -100.874747061     a.u. after    6 cycles

 Alpha  occ. eigenvalues --  -24.63201  -1.28235  -0.58591  -0.41767  -0.41767
 Alpha  occ. eigenvalues --   -0.33216
 Alpha virt. eigenvalues --    0.06454   0.24447   0.52514   0.93477   0.93477
 Alpha virt. eigenvalues --    0.95781   1.24186   1.24289   1.24289   1.30589
 Alpha virt. eigenvalues --    1.44055   1.44055   1.97672   2.14335   2.86559

  Beta  occ. eigenvalues --  -24.63200  -1.28235  -0.58590  -0.41767  -0.41767
  Beta virt. eigenvalues --   -0.04858   0.06656   0.38988   0.52488   0.93477
  Beta virt. eigenvalues --    0.93477   0.95776   1.30407   1.44055   1.44055
  Beta virt. eigenvalues --    1.50275   1.50490   1.50490   1.97725   2.45010

 Mulliken charges and spin densities:
               1          2
     1  H    0.262527   0.000330
     2  H    0.000384   0.999562
     3  F   -0.262911   0.000108
 Sum of Mulliken charges =   0.00000   1.00000

 Dipole moment (field-independent basis, Debye):
    X=             -1.5839    Y=             -0.0000    Z=              0.0000  Tot=              1.5839
 Quadrupole moment (field-independent basis, Debye-Ang):
   XX=             -7.3169   YY=             -6.6631   ZZ=             -6.6631
   XY=             -0.0000   XZ=              0.0000   YZ=             -0.0000

  Exact polarizability:       3.758      -0.000       2.444       0.000       0.000       2.444
 Approx polarizability:       4.138       0.000       2.424      -0.000       0.000       2.424

 ******    3 imaginary frequencies (negative Signs) ******

                      1                      2                      3
                      A                      A                      A
 Frequencies --  -3568.4329             -3568.4329               -32.3325
 Red. masses --      1.0432                 1.0432                 1.0532
 Frc consts  --      7.8263                 7.8263                 0.0006
 IR Inten    --    216.3209               216.3209                 0.0107

                      4
                      A
 Frequencies --   9073.2519
 Red. masses --      1.0583
 Frc consts  --     51.3321
 IR Inten    --    104.1091

 - Thermochemistry -
 -------------------
 Temperature   298.150 Kelvin.  Pressure   1.00000 Atm.
 Atom     1 has atomic number  1 and mass   1.00783

 Molecular mass:    21.01405 amu.
 Principal axes and moments of inertia in atomic units:
                           1         2         3
     Eigenvalues --     0.00000  71.51451  71.51451
           X            1.00000  -0.00000   0.00000
           Y            0.00000   1.00000   0.00000
           Z            0.00000   0.00000   1.00000
 This molecule is a prolate symmetric top.
 Rotational symmetry number  1.
 Rotational temperature (Kelvin)      1.21114
 Rotational constant (GHZ):          25.236014
    3 imaginary frequencies ignored.
 Zero-point vibrational energy      54270.1 (Joules/Mol)
                                   12.97086 (Kcal/Mol)
 Vibrational temperatures:  13054.39
          (Kelvin)

 Zero-point correction=                           0.020670 (Hartree/Particle)
 Thermal correction to Energy=                    0.023031
 Thermal correction to Enthalpy=                  0.023975
 Thermal correction to Gibbs Free Energy=         0.000516
 Sum of electronic and zero-point Energies=           -100.854077
 Sum of electronic and thermal Energies=              -100.851716
 Sum of electronic and thermal Enthalpies=            -100.850772
 Sum of electronic and thermal Free Energies=         -100.874231

                     E (Thermal)             CV                S
                      KCal/Mol        Cal/Mol-Kelvin    Cal/Mol-Kelvin
 Total                   14.452              4.968             49.374
 Electronic               0.000              0.000              1.377
 Translational            0.889              2.981             35.068
 Rotational               0.592              1.987             12.929
 Vibrational             12.971              0.000              0.000

 Normal termination of Gaussian 16 at Fri Aug 22 15:47:35 2025.
