 Gaussian 16, Revision C.01,
 Gaussian 16:  ES64L-G16RevC.01  3-Jul-2019

 -----------------------------------------
 # sp b3lyp/6-311g** Force nosymm scf=(qc)
 -----------------------------------------

 -------------------
 Title Card Required
 -------------------
 Symbolic Z-matrix:
 Charge =  0 Multiplicity = 2

                          Input orientation:
 ---------------------------------------------------------------------
 Center     Atomic      Atomic             Coordinates (Angstroms)
 Number     Number       Type             X           Y           Z
 ---------------------------------------------------------------------
      1          1           0        0.000000    0.000000    0.000000
      2          1           0       -1.900000    0.000000    0.000000
      3          9           0        0.850000    0.000000    0.000000
 ---------------------------------------------------------------------

 SCF Done:  E(UB3LYP) =  -100.965517259     a.u. after    6 cycles

 Alpha  occ. eigenvalues --  -24.63576  -1.20707  -0.55124  -0.39905  -0.39905
 Alpha  occ. eigenvalues --   -0.35938
 Alpha virt. eigenvalues --    0.08427   0.23768   0.40935   0.94525   0.94525
 Alpha virt. eigenvalues --    0.97564   1.15663   1.21159   1.21159   1.38958
 Alpha virt. eigenvalues --    1.38958   1.52900   1.98542   2.21387   2.45756

  Beta  occ. eigenvalues --  -24.63510  -1.20536  -0.54752  -0.39851  -0.39851
  Beta virt. eigenvalues --   -0.11921   0.10308   0.33684   0.41813   0.94540
  Beta virt. eigenvalues --    0.94540   0.97889   1.25100   1.36752   1.36752
  Beta virt. eigenvalues --    1.42775   1.42775   1.60549   2.05082   2.34714

 Mulliken charges and spin densities:
               1          2
     1  H    0.268887   0.008784
     2  H    0.014749   0.975454
     3  F   -0.283636   0.015762
 Sum of Mulliken charges =   0.00000   1.00000

 Dipole moment (field-independent basis, Debye):
    X=             -1.9559    Y=             -0.0000    Z=              0.0000  Tot=              1.9559
 Quadrupole moment (field-independent basis, Debye-Ang):
   XX=             -7.3869   YY=             -6.7716   ZZ=             -6.7716
   XY=             -0.0000   XZ=              0.0000   YZ=              0.0000

  Exact polarizability:       8.487      -0.000       2.502      -0.000      -0.000       2.502
 Approx polarizability:       8.722      -0.000       2.494       0.000      -0.000       2.494

 ******    2 imaginary frequencies (negative Signs) ******

                      1                      2                      3
                      A                      A                      A
 Frequencies --  -1312.4777             -1312.4777               314.2074
 Red. masses --      1.0299                 1.0299                 1.0531
 Frc consts  --      1.0452                 1.0452                 0.0613
 IR Inten    --    149.6418               149.6418                 0.7006

                      4
                      A
 Frequencies --   5286.3527
 Red. masses --      1.0585
 Frc consts  --     17.4280
 IR Inten    --    176.6763

 - Thermochemistry -
 -------------------
 Temperature   298.150 Kelvin.  Pressure   1.00000 Atm.
 Atom     1 has atomic number  1 and mass   1.00783

 Molecular mass:    21.01405 amu.
 Principal axes and moments of inertia in atomic units:
                           1         2         3
     Eigenvalues --     0.00000  27.58080  27.58080
           X            1.00000  -0.00000   0.00000
           Y            0.00000   1.00000   0.00000
           Z            0.00000   0.00000   1.00000
 This molecule is a prolate symmetric top.
 Rotational symmetry number  1.
 Rotational temperature (Kelvin)      3.14037
 Rotational constant (GHZ):          65.434694
    2 imaginary frequencies ignored.
 Zero-point vibrational energy      33498.8 (Joules/Mol)
                                    8.00640 (Kcal/Mol)
 Warning -- explicit consideration of   1 degrees of freedom as
           vibrations may cause significant error
 Vibrational temperatures:    452.07  7605.88
          (Kelvin)

 Zero-point correction=                           0.012759 (Hartree/Particle)
 Thermal correction to Energy=                    0.015522
 Thermal correction to Enthalpy=                  0.016466
 Thermal correction to Gibbs Free Energy=        -0.006730
 Sum of electronic and zero-point Energies=           -100.952758
 Sum of electronic and thermal Energies=              -100.949995
 Sum of electronic and thermal Enthalpies=            -100.949051
 Sum of electronic and thermal Free Energies=         -100.972247

                     E (Thermal)             CV                S
                      KCal/Mol        Cal/Mol-Kelvin    Cal/Mol-Kelvin
 Total                    9.740              6.615             48.821
 Electronic               0.000              0.000              1.377
 Translational            0.889              2.981             35.068
 Rotational               0.592              1.987             11.035
 Vibrational              8.259              1.647              1.340
 Vibration     1          0.702              1.647              1.340

 Normal termination of Gaussian 16 at Fri Aug 22 15:53:23 2025.
