 Gaussian 16, Revision C.01,
 Gaussian 16:  ES64L-G16RevC.01  3-Jul-2019

 -----------------------------------------
 # sp b3lyp/6-311g** Force nosymm scf=(qc)
 -----------------------------------------

 -------------------
 Title Card Required
 -------------------
 Symbolic Z-matrix:
 Charge =  0 Multiplicity = 2

                          Input orientation:
 ---------------------------------------------------------------------
 Center     Atomic      Atomic             Coordinates (Angstroms)
 Number     Number       Type             X           Y           Z
 ---------------------------------------------------------------------
      1          1           0        0.000000    0.000000    0.000000
      2          1           0       -3.500000    0.000000    0.000000
      3          9           0        0.500000    0.000000    0.000000
 ---------------------------------------------------------------------

 SCF Done:  E(UB3LYP) =  -100.268977745     a.u. after    6 cycles

 Alpha  occ. eigenvalues --  -24.63030  -1.42353  -0.63507  -0.44335  -0.44335
 Alpha  occ. eigenvalues --   -0.33253
 Alpha virt. eigenvalues --    0.08044   0.25098   0.62084   0.88993   0.90151
 Alpha virt. eigenvalues --    0.90151   1.24008   1.24256   1.24256   1.37159
 Alpha virt. eigenvalues --    1.58516   1.58516   2.00206   2.15031   3.76632

  Beta  occ. eigenvalues --  -24.63030  -1.42352  -0.63507  -0.44335  -0.44335
  Beta virt. eigenvalues --   -0.05231   0.08510   0.39372   0.62108   0.88989
  Beta virt. eigenvalues --    0.90149   0.90149   1.36315   1.49988   1.50252
  Beta virt. eigenvalues --    1.50252   1.58518   1.58518   2.00186   2.45333

 Mulliken charges and spin densities:
               1          2
     1  H    0.126159   0.000455
     2  H    0.000742   0.999153
     3  F   -0.126901   0.000391
 Sum of Mulliken charges =   0.00000   1.00000

 Dipole moment (field-independent basis, Debye):
    X=             -1.3015    Y=              0.0000    Z=             -0.0000  Tot=              1.3015
 Quadrupole moment (field-independent basis, Debye-Ang):
   XX=             -6.6475   YY=             -6.4388   ZZ=             -6.4388
   XY=              0.0000   XZ=             -0.0000   YZ=              0.0000

  Exact polarizability:       3.038      -0.000       2.414      -0.000      -0.000       2.414
 Approx polarizability:       3.195      -0.000       2.390       0.000      -0.000       2.390

 ******    3 imaginary frequencies (negative Signs) ******

                      1                      2                      3
                      A                      A                      A
 Frequencies --  -9597.7189             -9597.7189               -29.3481
 Red. masses --      1.0459                 1.0459                 1.0532
 Frc consts  --     56.7649                56.7649                 0.0005
 IR Inten    --    283.6210               283.6210                 0.0232

                      4
                      A
 Frequencies --  19159.3643
 Red. masses --      1.0583
 Frc consts  --    228.8893
 IR Inten    --     77.0294

 - Thermochemistry -
 -------------------
 Temperature   298.150 Kelvin.  Pressure   1.00000 Atm.
 Atom     1 has atomic number  1 and mass   1.00783

 Molecular mass:    21.01405 amu.
 Principal axes and moments of inertia in atomic units:
                           1         2         3
     Eigenvalues --     0.00000  54.98860  54.98860
           X            1.00000  -0.00000   0.00000
           Y            0.00000   1.00000   0.00000
           Z            0.00000   0.00000   1.00000
 This molecule is a prolate symmetric top.
 Rotational symmetry number  1.
 Rotational temperature (Kelvin)      1.57513
 Rotational constant (GHZ):          32.820280
    3 imaginary frequencies ignored.
 Zero-point vibrational energy     114598.4 (Joules/Mol)
                                   27.38969 (Kcal/Mol)
 Vibrational temperatures:  27566.05
          (Kelvin)

 Zero-point correction=                           0.043648 (Hartree/Particle)
 Thermal correction to Energy=                    0.046009
 Thermal correction to Enthalpy=                  0.046953
 Thermal correction to Gibbs Free Energy=         0.023742
 Sum of electronic and zero-point Energies=           -100.225330
 Sum of electronic and thermal Energies=              -100.222969
 Sum of electronic and thermal Enthalpies=            -100.222025
 Sum of electronic and thermal Free Energies=         -100.245236

                     E (Thermal)             CV                S
                      KCal/Mol        Cal/Mol-Kelvin    Cal/Mol-Kelvin
 Total                   28.871              4.968             48.852
 Electronic               0.000              0.000              1.377
 Translational            0.889              2.981             35.068
 Rotational               0.592              1.987             12.407
 Vibrational             27.390              0.000              0.000

 Normal termination of Gaussian 16 at Fri Aug 22 15:37:55 2025.
