 Gaussian 16, Revision C.01,
 Gaussian 16:  ES64L-G16RevC.01  3-Jul-2019

 -----------------------------------------
 # sp b3lyp/6-311g** Force nosymm scf=(qc)
 -----------------------------------------

 -------------------
 Title Card Required
 -------------------
 Symbolic Z-matrix:
 Charge =  0 Multiplicity = 2

                          Input orientation:
 ---------------------------------------------------------------------
 Center     Atomic      Atomic             Coordinates (Angstroms)
 Number     Number       Type             X           Y           Z
 ---------------------------------------------------------------------
      1          1           0        0.000000    0.000000    0.000000
      2          1           0       -2.700000    0.000000    0.000000
      3          9           0        0.850000    0.000000    0.000000
 ---------------------------------------------------------------------

 SCF Done:  E(UB3LYP) =  -100.965696334     a.u. after    6 cycles

 Alpha  occ. eigenvalues --  -24.63804  -1.20856  -0.54988  -0.40087  -0.40087
 Alpha  occ. eigenvalues --   -0.34423
 Alpha virt. eigenvalues --    0.05017   0.25390   0.42500   0.94382   0.94382
 Alpha virt. eigenvalues --    0.97352   1.20583   1.23121   1.23121   1.36449
 Alpha virt. eigenvalues --    1.38407   1.38407   2.03677   2.14278   2.43014

  Beta  occ. eigenvalues --  -24.63796  -1.20835  -0.54957  -0.40080  -0.40080
  Beta virt. eigenvalues --   -0.08090   0.06415   0.37887   0.42916   0.94383
  Beta virt. eigenvalues --    0.94383   0.97379   1.29796   1.38399   1.38399
  Beta virt. eigenvalues --    1.47037   1.47037   1.51768   2.03686   2.41204

 Mulliken charges and spin densities:
               1          2
     1  H    0.281362   0.002500
     2  H    0.003850   0.994536
     3  F   -0.285213   0.002965
 Sum of Mulliken charges =   0.00000   1.00000

 Dipole moment (field-independent basis, Debye):
    X=             -1.8616    Y=              0.0000    Z=             -0.0000  Tot=              1.8616
 Quadrupole moment (field-independent basis, Debye-Ang):
   XX=             -7.6035   YY=             -6.8162   ZZ=             -6.8162
   XY=              0.0000   XZ=             -0.0000   YZ=              0.0000

  Exact polarizability:       6.390       0.000       2.456      -0.000       0.000       2.456
 Approx polarizability:       6.928      -0.000       2.438       0.000       0.000       2.438

 ******    3 imaginary frequencies (negative Signs) ******

                      1                      2                      3
                      A                      A                      A
 Frequencies --  -1316.0365             -1316.0365               -36.9162
 Red. masses --      1.0355                 1.0355                 1.0532
 Frc consts  --      1.0566                 1.0566                 0.0008
 IR Inten    --    178.6985               178.6985                 0.3154

                      4
                      A
 Frequencies --   5308.8086
 Red. masses --      1.0584
 Frc consts  --     17.5742
 IR Inten    --    119.8753

 - Thermochemistry -
 -------------------
 Temperature   298.150 Kelvin.  Pressure   1.00000 Atm.
 Atom     1 has atomic number  1 and mass   1.00783

 Molecular mass:    21.01405 amu.
 Principal axes and moments of inertia in atomic units:
                           1         2         3
     Eigenvalues --     0.00000  44.61512  44.61512
           X            1.00000  -0.00000   0.00000
           Y            0.00000   1.00000   0.00000
           Z            0.00000   0.00000   1.00000
 This molecule is a prolate symmetric top.
 Rotational symmetry number  1.
 Rotational temperature (Kelvin)      1.94136
 Rotational constant (GHZ):          40.451337
    3 imaginary frequencies ignored.
 Zero-point vibrational energy      31753.7 (Joules/Mol)
                                    7.58932 (Kcal/Mol)
 Vibrational temperatures:   7638.19
          (Kelvin)

 Zero-point correction=                           0.012094 (Hartree/Particle)
 Thermal correction to Energy=                    0.014455
 Thermal correction to Enthalpy=                  0.015399
 Thermal correction to Gibbs Free Energy=        -0.007615
 Sum of electronic and zero-point Energies=           -100.953602
 Sum of electronic and thermal Energies=              -100.951242
 Sum of electronic and thermal Enthalpies=            -100.950297
 Sum of electronic and thermal Free Energies=         -100.973311

                     E (Thermal)             CV                S
                      KCal/Mol        Cal/Mol-Kelvin    Cal/Mol-Kelvin
 Total                    9.071              4.968             48.437
 Electronic               0.000              0.000              1.377
 Translational            0.889              2.981             35.068
 Rotational               0.592              1.987             11.991
 Vibrational              7.589              0.000              0.000

 Normal termination of Gaussian 16 at Fri Aug 22 15:53:55 2025.
