 Gaussian 16, Revision C.01,
 Gaussian 16:  ES64L-G16RevC.01  3-Jul-2019

 -----------------------------------------
 # sp b3lyp/6-311g** Force nosymm scf=(qc)
 -----------------------------------------

 -------------------
 Title Card Required
 -------------------
 Symbolic Z-matrix:
 Charge =  0 Multiplicity = 2

                          Input orientation:
 ---------------------------------------------------------------------
 Center     Atomic      Atomic             Coordinates (Angstroms)
 Number     Number       Type             X           Y           Z
 ---------------------------------------------------------------------
      1          1           0        0.000000    0.000000    0.000000
      2          1           0       -2.600000    0.000000    0.000000
      3          9           0        3.150000    0.000000    0.000000
 ---------------------------------------------------------------------

 SCF Done:  E(UB3LYP) =  -100.763086671     a.u. after   24 cycles

 Alpha  occ. eigenvalues --  -24.74637  -1.20654  -0.53756  -0.45136  -0.45136
 Alpha  occ. eigenvalues --   -0.32843
 Alpha virt. eigenvalues --   -0.09796   0.25372   0.34059   0.88931   0.91942
 Alpha virt. eigenvalues --    0.91942   1.03114   1.24773   1.24773   1.26458
 Alpha virt. eigenvalues --    1.41050   1.41050   1.42170   2.15717   2.37372

  Beta  occ. eigenvalues --  -24.71574  -1.11865  -0.42068  -0.42068  -0.33474
  Beta virt. eigenvalues --   -0.25095  -0.08817   0.25324   0.35281   0.93415
  Beta virt. eigenvalues --    0.93415   0.97847   1.07043   1.24013   1.24013
  Beta virt. eigenvalues --    1.25539   1.42625   1.42625   1.43692   2.16559

 Mulliken charges and spin densities:
               1          2
     1  H    0.022617  -0.948856
     2  H    0.003455   0.977815
     3  F   -0.026071   0.971041
 Sum of Mulliken charges =  -0.00000   1.00000

 Dipole moment (field-independent basis, Debye):
    X=             -0.4645    Y=             -0.0000    Z=             -0.0000  Tot=              0.4645
 Quadrupole moment (field-independent basis, Debye-Ang):
   XX=             -7.7268   YY=             -7.6498   ZZ=             -7.6498
   XY=             -0.0000   XZ=             -0.0000   YZ=             -0.0000

  Exact polarizability:      39.624      -0.000       2.018      -0.000      -0.000       2.018
 Approx polarizability:      33.937      -0.000       1.925      -0.000       0.000       1.925

 ******    2 imaginary frequencies (negative Signs) ******

                      1                      2                      3
                      A                      A                      A
 Frequencies --   -607.7893              -198.9256               224.5354
 Red. masses --      1.0097                 1.1063                 1.0158
 Frc consts  --      0.2198                 0.0258                 0.0302
 IR Inten    --     17.5337                13.6762                 0.4038

                      4
                      A
 Frequencies --    224.5354
 Red. masses --      1.0158
 Frc consts  --      0.0302
 IR Inten    --      0.4038

 - Thermochemistry -
 -------------------
 Temperature   298.150 Kelvin.  Pressure   1.00000 Atm.
 Atom     1 has atomic number  1 and mass   1.00783

 Molecular mass:    21.01405 amu.
 Principal axes and moments of inertia in atomic units:
                           1         2         3
     Eigenvalues --     0.00000 141.03119 141.03119
           X            1.00000  -0.00000   0.00000
           Y            0.00000   1.00000   0.00000
           Z            0.00000   0.00000   1.00000
 This molecule is a prolate symmetric top.
 Rotational symmetry number  1.
 Rotational temperature (Kelvin)      0.61415
 Rotational constant (GHZ):          12.796752
    2 imaginary frequencies ignored.
 Zero-point vibrational energy       2686.0 (Joules/Mol)
                                    0.64198 (Kcal/Mol)
 Warning -- explicit consideration of   2 degrees of freedom as
           vibrations may cause significant error
 Vibrational temperatures:    323.06   323.06
          (Kelvin)

 Zero-point correction=                           0.001023 (Hartree/Particle)
 Thermal correction to Energy=                    0.004430
 Thermal correction to Enthalpy=                  0.005374
 Thermal correction to Gibbs Free Energy=        -0.020553
 Sum of electronic and zero-point Energies=           -100.762064
 Sum of electronic and thermal Energies=              -100.758657
 Sum of electronic and thermal Enthalpies=            -100.757712
 Sum of electronic and thermal Free Energies=         -100.783640

                     E (Thermal)             CV                S
                      KCal/Mol        Cal/Mol-Kelvin    Cal/Mol-Kelvin
 Total                    2.780              8.575             54.568
 Electronic               0.000              0.000              1.377
 Translational            0.889              2.981             35.068
 Rotational               0.592              1.987             14.278
 Vibrational              1.299              3.607              3.844
 Vibration     1          0.649              1.804              1.922
 Vibration     2          0.649              1.804              1.922

 Normal termination of Gaussian 16 at Fri Aug 22 20:10:44 2025.
