 Gaussian 16, Revision C.01,
 Gaussian 16:  ES64L-G16RevC.01  3-Jul-2019

 -----------------------------------------
 # sp b3lyp/6-311g** Force nosymm scf=(qc)
 -----------------------------------------

 -------------------
 Title Card Required
 -------------------
 Symbolic Z-matrix:
 Charge =  0 Multiplicity = 2

                          Input orientation:
 ---------------------------------------------------------------------
 Center     Atomic      Atomic             Coordinates (Angstroms)
 Number     Number       Type             X           Y           Z
 ---------------------------------------------------------------------
      1          1           0        0.000000    0.000000    0.000000
      2          1           0       -1.550000    0.000000    0.000000
      3          9           0        1.750000    0.000000    0.000000
 ---------------------------------------------------------------------

 SCF Done:  E(UB3LYP) =  -100.845360823     a.u. after   11 cycles

 Alpha  occ. eigenvalues --  -24.67124  -1.13582  -0.47203  -0.38903  -0.38903
 Alpha  occ. eigenvalues --   -0.38617
 Alpha virt. eigenvalues --   -0.10026   0.21795   0.29935   0.88298   0.94045
 Alpha virt. eigenvalues --    0.94045   1.03272   1.16601   1.16601   1.37142
 Alpha virt. eigenvalues --    1.38122   1.38122   1.83824   2.18489   2.41278

  Beta  occ. eigenvalues --  -24.65009  -1.07741  -0.39090  -0.36835  -0.36835
  Beta virt. eigenvalues --   -0.22486  -0.07639   0.24489   0.30116   0.91936
  Beta virt. eigenvalues --    0.94453   0.94453   1.07257   1.20737   1.20737
  Beta virt. eigenvalues --    1.38905   1.38905   1.42489   1.86295   2.19496

 Mulliken charges and spin densities:
               1          2
     1  H    0.161380  -0.350861
     2  H    0.070396   0.689488
     3  F   -0.231776   0.661373
 Sum of Mulliken charges =   0.00000   1.00000

 Dipole moment (field-independent basis, Debye):
    X=             -2.5099    Y=             -0.0000    Z=             -0.0000  Tot=              2.5099
 Quadrupole moment (field-independent basis, Debye-Ang):
   XX=             -8.1051   YY=             -7.4129   ZZ=             -7.4129
   XY=              0.0000   XZ=              0.0000   YZ=             -0.0000

  Exact polarizability:      45.649      -0.000       2.182      -0.000      -0.000       2.182
 Approx polarizability:      67.989      -0.000       2.116      -0.000      -0.000       2.116

 ******    2 imaginary frequencies (negative Signs) ******

                      1                      2                      3
                      A                      A                      A
 Frequencies --  -2347.4785              -560.0520              1012.8299
 Red. masses --      1.0179                 1.0966                 1.0165
 Frc consts  --      3.3048                 0.2027                 0.6144
 IR Inten    --    583.4973                 2.2545                10.4586

                      4
                      A
 Frequencies --   1012.8299
 Red. masses --      1.0165
 Frc consts  --      0.6144
 IR Inten    --     10.4586

 - Thermochemistry -
 -------------------
 Temperature   298.150 Kelvin.  Pressure   1.00000 Atm.
 Atom     1 has atomic number  1 and mass   1.00783

 Molecular mass:    21.01405 amu.
 Principal axes and moments of inertia in atomic units:
                           1         2         3
     Eigenvalues --     0.00000  45.81326  45.81326
           X            1.00000  -0.00000   0.00000
           Y            0.00000   1.00000   0.00000
           Z            0.00000   0.00000   1.00000
 This molecule is a prolate symmetric top.
 Rotational symmetry number  1.
 Rotational temperature (Kelvin)      1.89059
 Rotational constant (GHZ):          39.393426
    2 imaginary frequencies ignored.
 Zero-point vibrational energy      12116.1 (Joules/Mol)
                                    2.89583 (Kcal/Mol)
 Vibrational temperatures:   1457.24  1457.24
          (Kelvin)

 Zero-point correction=                           0.004615 (Hartree/Particle)
 Thermal correction to Energy=                    0.007045
 Thermal correction to Enthalpy=                  0.007990
 Thermal correction to Gibbs Free Energy=        -0.015134
 Sum of electronic and zero-point Energies=           -100.840746
 Sum of electronic and thermal Energies=              -100.838315
 Sum of electronic and thermal Enthalpies=            -100.837371
 Sum of electronic and thermal Free Energies=         -100.860495

                     E (Thermal)             CV                S
                      KCal/Mol        Cal/Mol-Kelvin    Cal/Mol-Kelvin
 Total                    4.421              5.695             48.667
 Electronic               0.000              0.000              1.377
 Translational            0.889              2.981             35.068
 Rotational               0.592              1.987             12.044
 Vibrational              2.940              0.727              0.178

 Normal termination of Gaussian 16 at Fri Aug 22 16:40:03 2025.
