 Gaussian 16, Revision C.01,
 Gaussian 16:  ES64L-G16RevC.01  3-Jul-2019

 -----------------------------------------
 # sp b3lyp/6-311g** Force nosymm scf=(qc)
 -----------------------------------------

 -------------------
 Title Card Required
 -------------------
 Symbolic Z-matrix:
 Charge =  0 Multiplicity = 2

                          Input orientation:
 ---------------------------------------------------------------------
 Center     Atomic      Atomic             Coordinates (Angstroms)
 Number     Number       Type             X           Y           Z
 ---------------------------------------------------------------------
      1          1           0        0.000000    0.000000    0.000000
      2          1           0       -0.900000    0.000000    0.000000
      3          9           0        1.700000    0.000000    0.000000
 ---------------------------------------------------------------------

 SCF Done:  E(UB3LYP) =  -100.928245614     a.u. after    7 cycles

 Alpha  occ. eigenvalues --  -24.71939  -1.18482  -0.53532  -0.43121  -0.43121
 Alpha  occ. eigenvalues --   -0.42366
 Alpha virt. eigenvalues --    0.04475   0.20426   0.38273   0.90130   0.90130
 Alpha virt. eigenvalues --    0.95878   1.07004   1.07004   1.15448   1.64806
 Alpha virt. eigenvalues --    1.70308   1.70308   2.16152   2.35461   2.72916

  Beta  occ. eigenvalues --  -24.69207  -1.10843  -0.43850  -0.40431  -0.40431
  Beta virt. eigenvalues --   -0.24429   0.06062   0.21404   0.39492   0.91277
  Beta virt. eigenvalues --    0.91277   1.02872   1.08804   1.08804   1.18472
  Beta virt. eigenvalues --    1.67624   1.71370   1.71370   2.17703   2.37406

 Mulliken charges and spin densities:
               1          2
     1  H    0.076900  -0.064303
     2  H    0.041043   0.219647
     3  F   -0.117943   0.844656
 Sum of Mulliken charges =  -0.00000   1.00000

 Dipole moment (field-independent basis, Debye):
    X=             -1.1331    Y=              0.0000    Z=              0.0000  Tot=              1.1331
 Quadrupole moment (field-independent basis, Debye-Ang):
   XX=             -6.8169   YY=             -7.0155   ZZ=             -7.0155
   XY=              0.0000   XZ=              0.0000   YZ=              0.0000

  Exact polarizability:      26.255       0.000       2.254      -0.000      -0.000       2.254
 Approx polarizability:      34.828      -0.000       2.278       0.000      -0.000       2.278

 ******    1 imaginary frequencies (negative Signs) ******

                      1                      2                      3
                      A                      A                      A
 Frequencies --   -605.2380              1244.1588              1244.1588
 Red. masses --      1.1054                 1.0121                 1.0121
 Frc consts  --      0.2386                 0.9230                 0.9230
 IR Inten    --    180.6115                 0.2499                 0.2499

                      4
                      A
 Frequencies --   2249.3923
 Red. masses --      1.0104
 Frc consts  --      3.0121
 IR Inten    --    702.6008

 - Thermochemistry -
 -------------------
 Temperature   298.150 Kelvin.  Pressure   1.00000 Atm.
 Atom     1 has atomic number  1 and mass   1.00783

 Molecular mass:    21.01405 amu.
 Principal axes and moments of inertia in atomic units:
                           1         2         3
     Eigenvalues --     0.00000  31.53893  31.53893
           X            1.00000  -0.00000   0.00000
           Y            0.00000   1.00000   0.00000
           Z            0.00000   0.00000   1.00000
 This molecule is a prolate symmetric top.
 Rotational symmetry number  1.
 Rotational temperature (Kelvin)      2.74625
 Rotational constant (GHZ):          57.222651
    1 imaginary frequencies ignored.
 Zero-point vibrational energy      28337.8 (Joules/Mol)
                                    6.77290 (Kcal/Mol)
 Vibrational temperatures:   1790.07  1790.07  3236.37
          (Kelvin)

 Zero-point correction=                           0.010793 (Hartree/Particle)
 Thermal correction to Energy=                    0.013182
 Thermal correction to Enthalpy=                  0.014126
 Thermal correction to Gibbs Free Energy=        -0.008593
 Sum of electronic and zero-point Energies=           -100.917452
 Sum of electronic and thermal Energies=              -100.915064
 Sum of electronic and thermal Enthalpies=            -100.914119
 Sum of electronic and thermal Free Energies=         -100.936839

                     E (Thermal)             CV                S
                      KCal/Mol        Cal/Mol-Kelvin    Cal/Mol-Kelvin
 Total                    8.272              5.328             47.817
 Electronic               0.000              0.000              1.377
 Translational            0.889              2.981             35.068
 Rotational               0.592              1.987             11.302
 Vibrational              6.791              0.360              0.069

 Normal termination of Gaussian 16 at Fri Aug 22 16:36:25 2025.
