 Gaussian 16, Revision C.01,
 Gaussian 16:  ES64L-G16RevC.01  3-Jul-2019

 -----------------------------------------
 # sp b3lyp/6-311g** Force nosymm scf=(qc)
 -----------------------------------------

 -------------------
 Title Card Required
 -------------------
 Symbolic Z-matrix:
 Charge =  0 Multiplicity = 2

                          Input orientation:
 ---------------------------------------------------------------------
 Center     Atomic      Atomic             Coordinates (Angstroms)
 Number     Number       Type             X           Y           Z
 ---------------------------------------------------------------------
      1          1           0        0.000000    0.000000    0.000000
      2          1           0       -1.650000    0.000000    0.000000
      3          9           0        3.150000    0.000000    0.000000
 ---------------------------------------------------------------------

 SCF Done:  E(UB3LYP) =  -100.800755253     a.u. after   28 cycles

 Alpha  occ. eigenvalues --  -24.75289  -1.21261  -0.54415  -0.45696  -0.45696
 Alpha  occ. eigenvalues --   -0.33961
 Alpha virt. eigenvalues --   -0.11121   0.25086   0.30161   0.88933   0.91505
 Alpha virt. eigenvalues --    0.91505   1.03035   1.06174   1.22368   1.22368
 Alpha virt. eigenvalues --    1.37975   1.37975   1.70498   2.17382   2.42912

  Beta  occ. eigenvalues --  -24.72195  -1.12377  -0.42597  -0.42597  -0.33848
  Beta virt. eigenvalues --   -0.25593  -0.10906   0.25343   0.30467   0.92984
  Beta virt. eigenvalues --    0.92984   0.97839   1.06194   1.07195   1.22498
  Beta virt. eigenvalues --    1.22498   1.38166   1.38166   1.70795   2.18095

 Mulliken charges and spin densities:
               1          2
     1  H    0.001169  -0.538652
     2  H    0.014879   0.558096
     3  F   -0.016048   0.980556
 Sum of Mulliken charges =  -0.00000   1.00000

 Dipole moment (field-independent basis, Debye):
    X=             -0.3743    Y=             -0.0000    Z=             -0.0000  Tot=              0.3743
 Quadrupole moment (field-independent basis, Debye-Ang):
   XX=             -6.3261   YY=             -7.7539   ZZ=             -7.7539
   XY=             -0.0000   XZ=             -0.0000   YZ=             -0.0000

  Exact polarizability:      52.852       0.000       1.995       0.000      -0.000       1.995
 Approx polarizability:      61.249      -0.000       1.987      -0.000       0.000       1.987

 ******    2 imaginary frequencies (negative Signs) ******

                      1                      2                      3
                      A                      A                      A
 Frequencies --  -1993.9379              -174.8604               967.1605
 Red. masses --      1.0079                 1.1085                 1.0120
 Frc consts  --      2.3609                 0.0200                 0.5577
 IR Inten    --     87.6703                15.3248                 0.0264

                      4
                      A
 Frequencies --    967.1605
 Red. masses --      1.0120
 Frc consts  --      0.5577
 IR Inten    --      0.0264

 - Thermochemistry -
 -------------------
 Temperature   298.150 Kelvin.  Pressure   1.00000 Atm.
 Atom     1 has atomic number  1 and mass   1.00783

 Molecular mass:    21.01405 amu.
 Principal axes and moments of inertia in atomic units:
                           1         2         3
     Eigenvalues --     0.00000 107.72313 107.72313
           X            1.00000  -0.00000   0.00000
           Y            0.00000   1.00000   0.00000
           Z            0.00000   0.00000   1.00000
 This molecule is a prolate symmetric top.
 Rotational symmetry number  1.
 Rotational temperature (Kelvin)      0.80404
 Rotational constant (GHZ):          16.753516
    2 imaginary frequencies ignored.
 Zero-point vibrational energy      11569.8 (Joules/Mol)
                                    2.76525 (Kcal/Mol)
 Vibrational temperatures:   1391.53  1391.53
          (Kelvin)

 Zero-point correction=                           0.004407 (Hartree/Particle)
 Thermal correction to Energy=                    0.006851
 Thermal correction to Enthalpy=                  0.007795
 Thermal correction to Gibbs Free Energy=        -0.016153
 Sum of electronic and zero-point Energies=           -100.796349
 Sum of electronic and thermal Energies=              -100.793904
 Sum of electronic and thermal Enthalpies=            -100.792960
 Sum of electronic and thermal Free Energies=         -100.816908

                     E (Thermal)             CV                S
                      KCal/Mol        Cal/Mol-Kelvin    Cal/Mol-Kelvin
 Total                    4.299              5.797             50.402
 Electronic               0.000              0.000              1.377
 Translational            0.889              2.981             35.068
 Rotational               0.592              1.987             13.743
 Vibrational              2.818              0.829              0.214

 Normal termination of Gaussian 16 at Fri Aug 22 20:09:20 2025.
