 Gaussian 16, Revision C.01,
 Gaussian 16:  ES64L-G16RevC.01  3-Jul-2019

 -----------------------------------------
 # sp b3lyp/6-311g** Force nosymm scf=(qc)
 -----------------------------------------

 -------------------
 Title Card Required
 -------------------
 Symbolic Z-matrix:
 Charge =  0 Multiplicity = 2

                          Input orientation:
 ---------------------------------------------------------------------
 Center     Atomic      Atomic             Coordinates (Angstroms)
 Number     Number       Type             X           Y           Z
 ---------------------------------------------------------------------
      1          1           0        0.000000    0.000000    0.000000
      2          1           0       -3.100000    0.000000    0.000000
      3          9           0        2.600000    0.000000    0.000000
 ---------------------------------------------------------------------

 SCF Done:  E(UB3LYP) =  -100.766144293     a.u. after   19 cycles

 Alpha  occ. eigenvalues --  -24.72308  -1.18488  -0.51416  -0.43185  -0.43185
 Alpha  occ. eigenvalues --   -0.33017
 Alpha virt. eigenvalues --   -0.10256   0.24077   0.34880   0.90011   0.93309
 Alpha virt. eigenvalues --    0.93309   1.06130   1.24515   1.24515   1.25194
 Alpha virt. eigenvalues --    1.41042   1.41042   1.43393   2.15057   2.36212

  Beta  occ. eigenvalues --  -24.69417  -1.10243  -0.40300  -0.40300  -0.34971
  Beta virt. eigenvalues --   -0.23711  -0.07554   0.24553   0.37011   0.94708
  Beta virt. eigenvalues --    0.94708   0.97327   1.08948   1.22428   1.22428
  Beta virt. eigenvalues --    1.27336   1.44812   1.44921   1.44921   2.14186

 Mulliken charges and spin densities:
               1          2
     1  H    0.074226  -0.908610
     2  H    0.002190   0.994286
     3  F   -0.076416   0.914324
 Sum of Mulliken charges =  -0.00000   1.00000

 Dipole moment (field-independent basis, Debye):
    X=             -1.0466    Y=             -0.0000    Z=              0.0000  Tot=              1.0466
 Quadrupole moment (field-independent basis, Debye-Ang):
   XX=             -9.0139   YY=             -7.5906   ZZ=             -7.5906
   XY=             -0.0000   XZ=              0.0000   YZ=              0.0000

  Exact polarizability:      33.996      -0.000       2.022       0.000       0.000       2.022
 Approx polarizability:      39.908      -0.000       1.920       0.000      -0.000       1.920

 ******    2 imaginary frequencies (negative Signs) ******

                      1                      2                      3
                      A                      A                      A
 Frequencies --   -584.8306              -189.1827               224.7608
 Red. masses --      1.0450                 1.0668                 1.0202
 Frc consts  --      0.2106                 0.0225                 0.0304
 IR Inten    --     68.9168                 2.2545                 5.0766

                      4
                      A
 Frequencies --    224.7608
 Red. masses --      1.0202
 Frc consts  --      0.0304
 IR Inten    --      5.0766

 - Thermochemistry -
 -------------------
 Temperature   298.150 Kelvin.  Pressure   1.00000 Atm.
 Atom     1 has atomic number  1 and mass   1.00783

 Molecular mass:    21.01405 amu.
 Principal axes and moments of inertia in atomic units:
                           1         2         3
     Eigenvalues --     0.00000 129.37019 129.37019
           X            1.00000  -0.00000   0.00000
           Y            0.00000   1.00000   0.00000
           Z            0.00000   0.00000   1.00000
 This molecule is a prolate symmetric top.
 Rotational symmetry number  1.
 Rotational temperature (Kelvin)      0.66950
 Rotational constant (GHZ):          13.950209
    2 imaginary frequencies ignored.
 Zero-point vibrational energy       2688.7 (Joules/Mol)
                                    0.64262 (Kcal/Mol)
 Warning -- explicit consideration of   2 degrees of freedom as
           vibrations may cause significant error
 Vibrational temperatures:    323.38   323.38
          (Kelvin)

 Zero-point correction=                           0.001024 (Hartree/Particle)
 Thermal correction to Energy=                    0.004430
 Thermal correction to Enthalpy=                  0.005375
 Thermal correction to Gibbs Free Energy=        -0.020469
 Sum of electronic and zero-point Energies=           -100.765120
 Sum of electronic and thermal Energies=              -100.761714
 Sum of electronic and thermal Enthalpies=            -100.760770
 Sum of electronic and thermal Free Energies=         -100.786614

                     E (Thermal)             CV                S
                      KCal/Mol        Cal/Mol-Kelvin    Cal/Mol-Kelvin
 Total                    2.780              8.575             54.393
 Electronic               0.000              0.000              1.377
 Translational            0.889              2.981             35.068
 Rotational               0.592              1.987             14.107
 Vibrational              1.299              3.607              3.841
 Vibration     1          0.649              1.803              1.920
 Vibration     2          0.649              1.803              1.920

 Normal termination of Gaussian 16 at Fri Aug 22 18:04:49 2025.
