 Gaussian 16, Revision C.01,
 Gaussian 16:  ES64L-G16RevC.01  3-Jul-2019

 -----------------------------------------
 # sp b3lyp/6-311g** Force nosymm scf=(qc)
 -----------------------------------------

 -------------------
 Title Card Required
 -------------------
 Symbolic Z-matrix:
 Charge =  0 Multiplicity = 2

                          Input orientation:
 ---------------------------------------------------------------------
 Center     Atomic      Atomic             Coordinates (Angstroms)
 Number     Number       Type             X           Y           Z
 ---------------------------------------------------------------------
      1          1           0        0.000000    0.000000    0.000000
      2          1           0       -1.300000    0.000000    0.000000
      3          9           0        2.400000    0.000000    0.000000
 ---------------------------------------------------------------------

 SCF Done:  E(UB3LYP) =  -100.856150470     a.u. after   16 cycles

 Alpha  occ. eigenvalues --  -24.74166  -1.20238  -0.53422  -0.44775  -0.44775
 Alpha  occ. eigenvalues --   -0.37098
 Alpha virt. eigenvalues --   -0.07038   0.22884   0.33183   0.88775   0.92014
 Alpha virt. eigenvalues --    0.92014   1.06813   1.13517   1.13517   1.20263
 Alpha virt. eigenvalues --    1.47690   1.47690   1.96898   2.26938   2.52532

  Beta  occ. eigenvalues --  -24.71175  -1.11691  -0.41788  -0.41788  -0.36723
  Beta virt. eigenvalues --   -0.25445  -0.06205   0.23432   0.33657   0.93430
  Beta virt. eigenvalues --    0.93430   0.96324   1.09552   1.14071   1.14071
  Beta virt. eigenvalues --    1.22920   1.48148   1.48148   1.97546   2.27687

 Mulliken charges and spin densities:
               1          2
     1  H    0.008958  -0.093382
     2  H    0.034677   0.149149
     3  F   -0.043635   0.944233
 Sum of Mulliken charges =  -0.00000   1.00000

 Dipole moment (field-independent basis, Debye):
    X=             -0.7394    Y=             -0.0000    Z=             -0.0000  Tot=              0.7394
 Quadrupole moment (field-independent basis, Debye-Ang):
   XX=             -6.4345   YY=             -7.5389   ZZ=             -7.5389
   XY=             -0.0000   XZ=             -0.0000   YZ=             -0.0000

  Exact polarizability:      45.666      -0.000       2.109      -0.000      -0.000       2.109
 Approx polarizability:      61.819       0.000       2.100       0.000       0.000       2.100

 ******    2 imaginary frequencies (negative Signs) ******

                      1                      2                      3
                      A                      A                      A
 Frequencies --  -1333.3445              -242.2328              1345.6418
 Red. masses --      1.0102                 1.1057                 1.0122
 Frc consts  --      1.0581                 0.0382                 1.0799
 IR Inten    --    580.0590                11.1612                 0.0134

                      4
                      A
 Frequencies --   1345.6418
 Red. masses --      1.0122
 Frc consts  --      1.0799
 IR Inten    --      0.0134

 - Thermochemistry -
 -------------------
 Temperature   298.150 Kelvin.  Pressure   1.00000 Atm.
 Atom     1 has atomic number  1 and mass   1.00783

 Molecular mass:    21.01405 amu.
 Principal axes and moments of inertia in atomic units:
                           1         2         3
     Eigenvalues --     0.00000  63.57801  63.57801
           X            1.00000  -0.00000   0.00000
           Y            0.00000   1.00000   0.00000
           Z            0.00000   0.00000   1.00000
 This molecule is a prolate symmetric top.
 Rotational symmetry number  1.
 Rotational temperature (Kelvin)      1.36233
 Rotational constant (GHZ):          28.386247
    2 imaginary frequencies ignored.
 Zero-point vibrational energy      16097.5 (Joules/Mol)
                                    3.84738 (Kcal/Mol)
 Vibrational temperatures:   1936.08  1936.08
          (Kelvin)

 Zero-point correction=                           0.006131 (Hartree/Particle)
 Thermal correction to Energy=                    0.008510
 Thermal correction to Enthalpy=                  0.009454
 Thermal correction to Gibbs Free Energy=        -0.013915
 Sum of electronic and zero-point Energies=           -100.850019
 Sum of electronic and thermal Energies=              -100.847640
 Sum of electronic and thermal Enthalpies=            -100.846696
 Sum of electronic and thermal Free Energies=         -100.870066

                     E (Thermal)             CV                S
                      KCal/Mol        Cal/Mol-Kelvin    Cal/Mol-Kelvin
 Total                    5.340              5.222             49.186
 Electronic               0.000              0.000              1.377
 Translational            0.889              2.981             35.068
 Rotational               0.592              1.987             12.695
 Vibrational              3.859              0.254              0.045

 Normal termination of Gaussian 16 at Fri Aug 22 17:31:25 2025.
