 Gaussian 16, Revision C.01,
 Gaussian 16:  ES64L-G16RevC.01  3-Jul-2019

 -----------------------------------------
 # sp b3lyp/6-311g** Force nosymm scf=(qc)
 -----------------------------------------

 -------------------
 Title Card Required
 -------------------
 Symbolic Z-matrix:
 Charge =  0 Multiplicity = 2

                          Input orientation:
 ---------------------------------------------------------------------
 Center     Atomic      Atomic             Coordinates (Angstroms)
 Number     Number       Type             X           Y           Z
 ---------------------------------------------------------------------
      1          1           0        0.000000    0.000000    0.000000
      2          1           0       -1.100000    0.000000    0.000000
      3          9           0        0.950000    0.000000    0.000000
 ---------------------------------------------------------------------

 SCF Done:  E(UB3LYP) =  -100.963149852     a.u. after    6 cycles

 Alpha  occ. eigenvalues --  -24.64350  -1.18409  -0.57396  -0.39596  -0.39596
 Alpha  occ. eigenvalues --   -0.36486
 Alpha virt. eigenvalues --    0.12813   0.19041   0.43967   0.91355   0.91355
 Alpha virt. eigenvalues --    0.97383   1.08778   1.08778   1.39745   1.56599
 Alpha virt. eigenvalues --    1.56599   1.61964   2.16256   2.29842   2.92101

  Beta  occ. eigenvalues --  -24.63679  -1.16710  -0.53140  -0.39003  -0.39003
  Beta virt. eigenvalues --   -0.17520   0.14628   0.22780   0.49312   0.92613
  Beta virt. eigenvalues --    0.92613   0.98753   1.15537   1.15537   1.43218
  Beta virt. eigenvalues --    1.61847   1.61847   1.69505   2.18622   2.42899

 Mulliken charges and spin densities:
               1          2
     1  H    0.277375  -0.011718
     2  H    0.020277   0.844575
     3  F   -0.297652   0.167143
 Sum of Mulliken charges =   0.00000   1.00000

 Dipole moment (field-independent basis, Debye):
    X=             -1.9855    Y=              0.0000    Z=             -0.0000  Tot=              1.9855
 Quadrupole moment (field-independent basis, Debye-Ang):
   XX=             -7.6085   YY=             -6.6901   ZZ=             -6.6901
   XY=              0.0000   XZ=             -0.0000   YZ=             -0.0000

  Exact polarizability:      13.291      -0.000       2.578      -0.000       0.000       2.578
 Approx polarizability:      14.869      -0.000       2.602       0.000       0.000       2.602

 ******    2 imaginary frequencies (negative Signs) ******

                      1                      2                      3
                      A                      A                      A
 Frequencies --   -629.3290              -629.3290              1165.0090
 Red. masses --      1.0198                 1.0198                 1.0449
 Frc consts  --      0.2380                 0.2380                 0.8355
 IR Inten    --     75.0366                75.0366                37.6672

                      4
                      A
 Frequencies --   3183.7782
 Red. masses --      1.0669
 Frc consts  --      6.3719
 IR Inten    --     57.7844

 - Thermochemistry -
 -------------------
 Temperature   298.150 Kelvin.  Pressure   1.00000 Atm.
 Atom     1 has atomic number  1 and mass   1.00783

 Molecular mass:    21.01405 amu.
 Principal axes and moments of inertia in atomic units:
                           1         2         3
     Eigenvalues --     0.00000  16.81948  16.81948
           X            1.00000  -0.00000   0.00000
           Y            0.00000   1.00000   0.00000
           Z            0.00000   0.00000   1.00000
 This molecule is a prolate symmetric top.
 Rotational symmetry number  1.
 Rotational temperature (Kelvin)      5.14962
 Rotational constant (GHZ):         107.300677
    2 imaginary frequencies ignored.
 Zero-point vibrational energy      26011.5 (Joules/Mol)
                                    6.21690 (Kcal/Mol)
 Vibrational temperatures:   1676.19  4580.75
          (Kelvin)

 Zero-point correction=                           0.009907 (Hartree/Particle)
 Thermal correction to Energy=                    0.012287
 Thermal correction to Enthalpy=                  0.013231
 Thermal correction to Gibbs Free Energy=        -0.008884
 Sum of electronic and zero-point Energies=           -100.953243
 Sum of electronic and thermal Energies=              -100.950863
 Sum of electronic and thermal Enthalpies=            -100.949919
 Sum of electronic and thermal Free Energies=         -100.972034

                     E (Thermal)             CV                S
                      KCal/Mol        Cal/Mol-Kelvin    Cal/Mol-Kelvin
 Total                    7.710              5.197             46.546
 Electronic               0.000              0.000              1.377
 Translational            0.889              2.981             35.068
 Rotational               0.592              1.987             10.053
 Vibrational              6.229              0.229              0.048

 Normal termination of Gaussian 16 at Fri Aug 22 15:57:32 2025.
