 Gaussian 16, Revision C.01,
 Gaussian 16:  ES64L-G16RevC.01  3-Jul-2019

 -----------------------------------------
 # sp b3lyp/6-311g** Force nosymm scf=(qc)
 -----------------------------------------

 -------------------
 Title Card Required
 -------------------
 Symbolic Z-matrix:
 Charge =  0 Multiplicity = 2

                          Input orientation:
 ---------------------------------------------------------------------
 Center     Atomic      Atomic             Coordinates (Angstroms)
 Number     Number       Type             X           Y           Z
 ---------------------------------------------------------------------
      1          1           0        0.000000    0.000000    0.000000
      2          1           0       -2.500000    0.000000    0.000000
      3          9           0        0.950000    0.000000    0.000000
 ---------------------------------------------------------------------

 SCF Done:  E(UB3LYP) =  -100.971381965     a.u. after    6 cycles

 Alpha  occ. eigenvalues --  -24.63989  -1.17345  -0.52699  -0.39111  -0.39111
 Alpha  occ. eigenvalues --   -0.34916
 Alpha virt. eigenvalues --    0.03171   0.25185   0.36667   0.94318   0.94318
 Alpha virt. eigenvalues --    0.98065   1.19396   1.22633   1.22633   1.36584
 Alpha virt. eigenvalues --    1.36584   1.38686   1.96615   2.13630   2.35312

  Beta  occ. eigenvalues --  -24.63970  -1.17296  -0.52617  -0.39094  -0.39094
  Beta virt. eigenvalues --   -0.09623   0.04875   0.35874   0.38082   0.94320
  Beta virt. eigenvalues --    0.94320   0.98158   1.28862   1.36551   1.36551
  Beta virt. eigenvalues --    1.44430   1.44430   1.51580   1.96586   2.34585

 Mulliken charges and spin densities:
               1          2
     1  H    0.303043   0.003252
     2  H    0.006482   0.990819
     3  F   -0.309525   0.005929
 Sum of Mulliken charges =   0.00000   1.00000

 Dipole moment (field-independent basis, Debye):
    X=             -2.0397    Y=              0.0000    Z=             -0.0000  Tot=              2.0397
 Quadrupole moment (field-independent basis, Debye-Ang):
   XX=             -7.8360   YY=             -6.9087   ZZ=             -6.9087
   XY=              0.0000   XZ=             -0.0000   YZ=              0.0000

  Exact polarizability:       8.116      -0.000       2.441       0.000       0.000       2.441
 Approx polarizability:       9.027      -0.000       2.421      -0.000       0.000       2.421

 ******    1 imaginary frequencies (negative Signs) ******

                      1                      2                      3
                      A                      A                      A
 Frequencies --    -62.3109               659.2449               659.2449
 Red. masses --      1.0530                 1.0325                 1.0325
 Frc consts  --      0.0024                 0.2644                 0.2644
 IR Inten    --      0.8041               160.5434               160.5434

                      4
                      A
 Frequencies --   3669.8891
 Red. masses --      1.0585
 Frc consts  --      8.3996
 IR Inten    --    127.3669

 - Thermochemistry -
 -------------------
 Temperature   298.150 Kelvin.  Pressure   1.00000 Atm.
 Atom     1 has atomic number  1 and mass   1.00783

 Molecular mass:    21.01405 amu.
 Principal axes and moments of inertia in atomic units:
                           1         2         3
     Eigenvalues --     0.00000  42.74363  42.74363
           X            1.00000  -0.00000   0.00000
           Y            0.00000   1.00000   0.00000
           Z            0.00000   0.00000   1.00000
 This molecule is a prolate symmetric top.
 Rotational symmetry number  1.
 Rotational temperature (Kelvin)      2.02636
 Rotational constant (GHZ):          42.222455
    1 imaginary frequencies ignored.
 Zero-point vibrational energy      29837.1 (Joules/Mol)
                                    7.13125 (Kcal/Mol)
 Vibrational temperatures:    948.51   948.51  5280.15
          (Kelvin)

 Zero-point correction=                           0.011364 (Hartree/Particle)
 Thermal correction to Energy=                    0.013985
 Thermal correction to Enthalpy=                  0.014929
 Thermal correction to Gibbs Free Energy=        -0.008384
 Sum of electronic and zero-point Energies=           -100.960018
 Sum of electronic and thermal Energies=              -100.957397
 Sum of electronic and thermal Enthalpies=            -100.956453
 Sum of electronic and thermal Free Energies=         -100.979766

                     E (Thermal)             CV                S
                      KCal/Mol        Cal/Mol-Kelvin    Cal/Mol-Kelvin
 Total                    8.776              6.786             49.068
 Electronic               0.000              0.000              1.377
 Translational            0.889              2.981             35.068
 Rotational               0.592              1.987             11.906
 Vibrational              7.295              1.818              0.716

 Normal termination of Gaussian 16 at Fri Aug 22 15:58:29 2025.
