 Gaussian 16, Revision C.01,
 Gaussian 16:  ES64L-G16RevC.01  3-Jul-2019

 -----------------------------------------
 # sp b3lyp/6-311g** Force nosymm scf=(qc)
 -----------------------------------------

 -------------------
 Title Card Required
 -------------------
 Symbolic Z-matrix:
 Charge =  0 Multiplicity = 2

                          Input orientation:
 ---------------------------------------------------------------------
 Center     Atomic      Atomic             Coordinates (Angstroms)
 Number     Number       Type             X           Y           Z
 ---------------------------------------------------------------------
      1          1           0        0.000000    0.000000    0.000000
      2          1           0       -1.850000    0.000000    0.000000
      3          9           0        1.500000    0.000000    0.000000
 ---------------------------------------------------------------------

 SCF Done:  E(UB3LYP) =  -100.863420290     a.u. after   11 cycles

 Alpha  occ. eigenvalues --  -24.63934  -1.10173  -0.44801  -0.37646  -0.36222
 Alpha  occ. eigenvalues --   -0.36222
 Alpha virt. eigenvalues --   -0.10362   0.22563   0.27850   0.94228   0.94228
 Alpha virt. eigenvalues --    0.98533   1.04504   1.19079   1.19079   1.34623
 Alpha virt. eigenvalues --    1.34623   1.38129   1.73580   2.11342   2.30450

  Beta  occ. eigenvalues --  -24.63041  -1.07804  -0.41598  -0.35373  -0.35373
  Beta virt. eigenvalues --   -0.19288  -0.06570   0.25819   0.31163   0.94065
  Beta virt. eigenvalues --    0.94065   1.02658   1.06779   1.29169   1.29169
  Beta virt. eigenvalues --    1.37127   1.37127   1.47707   1.74721   2.16709

 Mulliken charges and spin densities:
               1          2
     1  H    0.289522  -0.182171
     2  H    0.055871   0.903640
     3  F   -0.345393   0.278531
 Sum of Mulliken charges =  -0.00000   1.00000

 Dipole moment (field-independent basis, Debye):
    X=             -3.0505    Y=              0.0000    Z=             -0.0000  Tot=              3.0505
 Quadrupole moment (field-independent basis, Debye-Ang):
   XX=             -8.6543   YY=             -7.2848   ZZ=             -7.2848
   XY=              0.0000   XZ=             -0.0000   YZ=              0.0000

  Exact polarizability:      30.963       0.000       2.243      -0.000       0.000       2.243
 Approx polarizability:      42.990      -0.000       2.176       0.000       0.000       2.176

 ******    2 imaginary frequencies (negative Signs) ******

                      1                      2                      3
                      A                      A                      A
 Frequencies --  -2087.8959              -440.7730               987.9921
 Red. masses --      1.0317                 1.0810                 1.0207
 Frc consts  --      2.6499                 0.1237                 0.5870
 IR Inten    --      0.2544                 0.0021                56.6275

                      4
                      A
 Frequencies --    987.9921
 Red. masses --      1.0207
 Frc consts  --      0.5870
 IR Inten    --     56.6275

 - Thermochemistry -
 -------------------
 Temperature   298.150 Kelvin.  Pressure   1.00000 Atm.
 Atom     1 has atomic number  1 and mass   1.00783

 Molecular mass:    21.01405 amu.
 Principal axes and moments of inertia in atomic units:
                           1         2         3
     Eigenvalues --     0.00000  44.42750  44.42750
           X            1.00000  -0.00000   0.00000
           Y            0.00000   1.00000   0.00000
           Z            0.00000   0.00000   1.00000
 This molecule is a prolate symmetric top.
 Rotational symmetry number  1.
 Rotational temperature (Kelvin)      1.94956
 Rotational constant (GHZ):          40.622168
    2 imaginary frequencies ignored.
 Zero-point vibrational energy      11819.0 (Joules/Mol)
                                    2.82481 (Kcal/Mol)
 Vibrational temperatures:   1421.50  1421.50
          (Kelvin)

 Zero-point correction=                           0.004502 (Hartree/Particle)
 Thermal correction to Energy=                    0.006939
 Thermal correction to Enthalpy=                  0.007883
 Thermal correction to Gibbs Free Energy=        -0.015220
 Sum of electronic and zero-point Energies=           -100.858919
 Sum of electronic and thermal Energies=              -100.856481
 Sum of electronic and thermal Enthalpies=            -100.855537
 Sum of electronic and thermal Free Energies=         -100.878640

                     E (Thermal)             CV                S
                      KCal/Mol        Cal/Mol-Kelvin    Cal/Mol-Kelvin
 Total                    4.354              5.749             48.625
 Electronic               0.000              0.000              1.377
 Translational            0.889              2.981             35.068
 Rotational               0.592              1.987             11.983
 Vibrational              2.873              0.781              0.196

 Normal termination of Gaussian 16 at Fri Aug 22 16:25:23 2025.
