 Gaussian 16, Revision C.01,
 Gaussian 16:  ES64L-G16RevC.01  3-Jul-2019

 -----------------------------------------
 # sp b3lyp/6-311g** Force nosymm scf=(qc)
 -----------------------------------------

 -------------------
 Title Card Required
 -------------------
 Symbolic Z-matrix:
 Charge =  0 Multiplicity = 2

                          Input orientation:
 ---------------------------------------------------------------------
 Center     Atomic      Atomic             Coordinates (Angstroms)
 Number     Number       Type             X           Y           Z
 ---------------------------------------------------------------------
      1          1           0        0.000000    0.000000    0.000000
      2          1           0       -0.900000    0.000000    0.000000
      3          9           0        2.300000    0.000000    0.000000
 ---------------------------------------------------------------------

 SCF Done:  E(UB3LYP) =  -100.922696897     a.u. after    7 cycles

 Alpha  occ. eigenvalues --  -24.75422  -1.21396  -0.54764  -0.45820  -0.45820
 Alpha  occ. eigenvalues --   -0.41561
 Alpha virt. eigenvalues --    0.02896   0.20860   0.42049   0.89494   0.91147
 Alpha virt. eigenvalues --    0.91147   1.07228   1.07228   1.12058   1.47043
 Alpha virt. eigenvalues --    1.71102   1.71102   2.17352   2.37495   2.73326

  Beta  occ. eigenvalues --  -24.72346  -1.12586  -0.42744  -0.42744  -0.41482
  Beta virt. eigenvalues --   -0.25972   0.03547   0.21248   0.42386   0.92587
  Beta virt. eigenvalues --    0.92587   0.97755   1.07579   1.07579   1.15942
  Beta virt. eigenvalues --    1.47865   1.71333   1.71333   2.17761   2.37839

 Mulliken charges and spin densities:
               1          2
     1  H   -0.007075  -0.020484
     2  H    0.025235   0.050104
     3  F   -0.018160   0.970381
 Sum of Mulliken charges =   0.00000   1.00000

 Dipole moment (field-independent basis, Debye):
    X=             -0.3155    Y=              0.0000    Z=              0.0000  Tot=              0.3155
 Quadrupole moment (field-independent basis, Debye-Ang):
   XX=             -5.8871   YY=             -7.1290   ZZ=             -7.1290
   XY=              0.0000   XZ=              0.0000   YZ=              0.0000

  Exact polarizability:      20.823       0.000       2.037      -0.000       0.000       2.037
 Approx polarizability:      23.475       0.000       2.133      -0.000      -0.000       2.133

 ******    1 imaginary frequencies (negative Signs) ******

                      1                      2                      3
                      A                      A                      A
 Frequencies --   -216.1072              1490.5443              1490.5444
 Red. masses --      1.1085                 1.0105                 1.0105
 Frc consts  --      0.0305                 1.3227                 1.3227
 IR Inten    --     17.7629                 1.2198                 1.2198

                      4
                      A
 Frequencies --   2573.3368
 Red. masses --      1.0079
 Frc consts  --      3.9323
 IR Inten    --    157.7351

 - Thermochemistry -
 -------------------
 Temperature   298.150 Kelvin.  Pressure   1.00000 Atm.
 Atom     1 has atomic number  1 and mass   1.00783

 Molecular mass:    21.01405 amu.
 Principal axes and moments of inertia in atomic units:
                           1         2         3
     Eigenvalues --     0.00000  50.67124  50.67124
           X            1.00000  -0.00000   0.00000
           Y            0.00000   1.00000   0.00000
           Z            0.00000   0.00000   1.00000
 This molecule is a prolate symmetric top.
 Rotational symmetry number  1.
 Rotational temperature (Kelvin)      1.70933
 Rotational constant (GHZ):          35.616675
    1 imaginary frequencies ignored.
 Zero-point vibrational energy      33222.8 (Joules/Mol)
                                    7.94045 (Kcal/Mol)
 Vibrational temperatures:   2144.56  2144.56  3702.46
          (Kelvin)

 Zero-point correction=                           0.012654 (Hartree/Particle)
 Thermal correction to Energy=                    0.015025
 Thermal correction to Enthalpy=                  0.015969
 Thermal correction to Gibbs Free Energy=        -0.007177
 Sum of electronic and zero-point Energies=           -100.910043
 Sum of electronic and thermal Energies=              -100.907672
 Sum of electronic and thermal Enthalpies=            -100.906728
 Sum of electronic and thermal Free Energies=         -100.929874

                     E (Thermal)             CV                S
                      KCal/Mol        Cal/Mol-Kelvin    Cal/Mol-Kelvin
 Total                    9.428              5.124             48.714
 Electronic               0.000              0.000              1.377
 Translational            0.889              2.981             35.068
 Rotational               0.592              1.987             12.244
 Vibrational              7.947              0.156              0.025

 Normal termination of Gaussian 16 at Fri Aug 22 17:20:47 2025.
