 Gaussian 16, Revision C.01,
 Gaussian 16:  ES64L-G16RevC.01  3-Jul-2019

 -----------------------------------------
 # sp b3lyp/6-311g** Force nosymm scf=(qc)
 -----------------------------------------

 -------------------
 Title Card Required
 -------------------
 Symbolic Z-matrix:
 Charge =  0 Multiplicity = 2

                          Input orientation:
 ---------------------------------------------------------------------
 Center     Atomic      Atomic             Coordinates (Angstroms)
 Number     Number       Type             X           Y           Z
 ---------------------------------------------------------------------
      1          1           0        0.000000    0.000000    0.000000
      2          1           0       -3.350000    0.000000    0.000000
      3          9           0        3.600000    0.000000    0.000000
 ---------------------------------------------------------------------

 SCF Done:  E(UB3LYP) =  -100.759133828     a.u. after   27 cycles

 Alpha  occ. eigenvalues --  -24.75540  -1.21492  -0.54663  -0.45896  -0.45896
 Alpha  occ. eigenvalues --   -0.32338
 Alpha virt. eigenvalues --   -0.07167   0.24474   0.36958   0.87313   0.91385
 Alpha virt. eigenvalues --    0.91385   1.01584   1.25172   1.25172   1.25425
 Alpha virt. eigenvalues --    1.44905   1.45100   1.45100   2.15257   2.40733

  Beta  occ. eigenvalues --  -24.72416  -1.12514  -0.42765  -0.42765  -0.32728
  Beta virt. eigenvalues --   -0.25562  -0.06728   0.24255   0.37697   0.92877
  Beta virt. eigenvalues --    0.92877   0.96517   1.05630   1.24728   1.24728
  Beta virt. eigenvalues --    1.24959   1.45573   1.45807   1.45807   2.15421

 Mulliken charges and spin densities:
               1          2
     1  H    0.008449  -0.987348
     2  H    0.000219   0.996913
     3  F   -0.008668   0.990435
 Sum of Mulliken charges =  -0.00000   1.00000

 Dipole moment (field-independent basis, Debye):
    X=             -0.1642    Y=             -0.0000    Z=              0.0000  Tot=              0.1642
 Quadrupole moment (field-independent basis, Debye-Ang):
   XX=             -7.2422   YY=             -7.6252   ZZ=             -7.6252
   XY=             -0.0000   XZ=              0.0000   YZ=             -0.0000

  Exact polarizability:      21.451      -0.000       2.042       0.000       0.000       2.042
 Approx polarizability:      16.357      -0.000       1.934       0.000       0.000       1.934

 ******    2 imaginary frequencies (negative Signs) ******

                      1                      2                      3
                      A                      A                      A
 Frequencies --   -254.6443              -106.4880                76.6070
 Red. masses --      1.0171                 1.0975                 1.0171
 Frc consts  --      0.0389                 0.0073                 0.0035
 IR Inten    --      6.2823                 1.7978                 0.0542

                      4
                      A
 Frequencies --     76.6071
 Red. masses --      1.0171
 Frc consts  --      0.0035
 IR Inten    --      0.0542

 - Thermochemistry -
 -------------------
 Temperature   298.150 Kelvin.  Pressure   1.00000 Atm.
 Atom     1 has atomic number  1 and mass   1.00783

 Molecular mass:    21.01405 amu.
 Principal axes and moments of inertia in atomic units:
                           1         2         3
     Eigenvalues --     0.00000 201.27268 201.27268
           X            1.00000  -0.00000   0.00000
           Y            0.00000   1.00000   0.00000
           Z            0.00000   0.00000   1.00000
 This molecule is a prolate symmetric top.
 Rotational symmetry number  1.
 Rotational temperature (Kelvin)      0.43033
 Rotational constant (GHZ):           8.966648
    2 imaginary frequencies ignored.
 Zero-point vibrational energy        916.4 (Joules/Mol)
                                    0.21903 (Kcal/Mol)
 Warning -- explicit consideration of   2 degrees of freedom as
           vibrations may cause significant error
 Vibrational temperatures:    110.22   110.22
          (Kelvin)

 Zero-point correction=                           0.000349 (Hartree/Particle)
 Thermal correction to Energy=                    0.004270
 Thermal correction to Enthalpy=                  0.005214
 Thermal correction to Gibbs Free Energy=        -0.023000
 Sum of electronic and zero-point Energies=           -100.758785
 Sum of electronic and thermal Energies=              -100.754864
 Sum of electronic and thermal Enthalpies=            -100.753919
 Sum of electronic and thermal Free Energies=         -100.782134

                     E (Thermal)             CV                S
                      KCal/Mol        Cal/Mol-Kelvin    Cal/Mol-Kelvin
 Total                    2.680              8.897             59.382
 Electronic               0.000              0.000              1.377
 Translational            0.889              2.981             35.068
 Rotational               0.592              1.987             14.985
 Vibrational              1.198              3.929              7.952
 Vibration     1          0.599              1.965              3.976
 Vibration     2          0.599              1.965              3.976

 Normal termination of Gaussian 16 at Fri Aug 22 23:07:40 2025.
