 Gaussian 16, Revision C.01,
 Gaussian 16:  ES64L-G16RevC.01  3-Jul-2019

 -----------------------------------------
 # sp b3lyp/6-311g** Force nosymm scf=(qc)
 -----------------------------------------

 -------------------
 Title Card Required
 -------------------
 Symbolic Z-matrix:
 Charge =  0 Multiplicity = 2

                          Input orientation:
 ---------------------------------------------------------------------
 Center     Atomic      Atomic             Coordinates (Angstroms)
 Number     Number       Type             X           Y           Z
 ---------------------------------------------------------------------
      1          1           0        0.000000    0.000000    0.000000
      2          1           0       -0.950000    0.000000    0.000000
      3          9           0        1.400000    0.000000    0.000000
 ---------------------------------------------------------------------

 SCF Done:  E(UB3LYP) =  -100.933867865     a.u. after    8 cycles

 Alpha  occ. eigenvalues --  -24.68350  -1.15890  -0.54199  -0.40561  -0.40561
 Alpha  occ. eigenvalues --   -0.40190
 Alpha virt. eigenvalues --    0.05741   0.19678   0.36471   0.89378   0.89378
 Alpha virt. eigenvalues --    0.98497   1.07609   1.07609   1.26038   1.64882
 Alpha virt. eigenvalues --    1.66663   1.66663   2.21948   2.33562   2.51842

  Beta  occ. eigenvalues --  -24.66194  -1.10088  -0.45886  -0.38494  -0.38494
  Beta virt. eigenvalues --   -0.22786   0.08048   0.21226   0.39197   0.90438
  Beta virt. eigenvalues --    0.90438   1.03529   1.11088   1.11088   1.29997
  Beta virt. eigenvalues --    1.68568   1.68816   1.68816   2.24054   2.38109

 Mulliken charges and spin densities:
               1          2
     1  H    0.188535  -0.082934
     2  H    0.040925   0.437263
     3  F   -0.229459   0.645671
 Sum of Mulliken charges =   0.00000   1.00000

 Dipole moment (field-independent basis, Debye):
    X=             -1.7957    Y=             -0.0000    Z=              0.0000  Tot=              1.7957
 Quadrupole moment (field-independent basis, Debye-Ang):
   XX=             -7.3874   YY=             -6.9190   ZZ=             -6.9190
   XY=             -0.0000   XZ=              0.0000   YZ=             -0.0000

  Exact polarizability:      24.919       0.000       2.414      -0.000       0.000       2.414
 Approx polarizability:      35.295       0.000       2.416      -0.000       0.000       2.416

 ******    1 imaginary frequencies (negative Signs) ******

                      1                      2                      3
                      A                      A                      A
 Frequencies --  -1670.1224              1115.7305              1115.7305
 Red. masses --      1.0583                 1.0139                 1.0139
 Frc consts  --      1.7392                 0.7437                 0.7437
 IR Inten    --    665.1887                 6.9813                 6.9813

                      4
                      A
 Frequencies --   1380.6063
 Red. masses --      1.0533
 Frc consts  --      1.1828
 IR Inten    --    268.2812

 - Thermochemistry -
 -------------------
 Temperature   298.150 Kelvin.  Pressure   1.00000 Atm.
 Atom     1 has atomic number  1 and mass   1.00783

 Molecular mass:    21.01405 amu.
 Principal axes and moments of inertia in atomic units:
                           1         2         3
     Eigenvalues --     0.00000  24.50230  24.50230
           X            1.00000  -0.00000   0.00000
           Y            0.00000   1.00000   0.00000
           Z            0.00000   0.00000   1.00000
 This molecule is a prolate symmetric top.
 Rotational symmetry number  1.
 Rotational temperature (Kelvin)      3.53493
 Rotational constant (GHZ):          73.656002
    1 imaginary frequencies ignored.
 Zero-point vibrational energy      21605.0 (Joules/Mol)
                                    5.16371 (Kcal/Mol)
 Vibrational temperatures:   1605.29  1605.29  1986.38
          (Kelvin)

 Zero-point correction=                           0.008229 (Hartree/Particle)
 Thermal correction to Energy=                    0.010644
 Thermal correction to Enthalpy=                  0.011588
 Thermal correction to Gibbs Free Energy=        -0.010924
 Sum of electronic and zero-point Energies=           -100.925639
 Sum of electronic and thermal Energies=              -100.923224
 Sum of electronic and thermal Enthalpies=            -100.922279
 Sum of electronic and thermal Free Energies=         -100.944792

                     E (Thermal)             CV                S
                      KCal/Mol        Cal/Mol-Kelvin    Cal/Mol-Kelvin
 Total                    6.679              5.615             47.382
 Electronic               0.000              0.000              1.377
 Translational            0.889              2.981             35.068
 Rotational               0.592              1.987             10.800
 Vibrational              5.198              0.647              0.136

 Normal termination of Gaussian 16 at Fri Aug 22 16:19:18 2025.
