 Gaussian 16, Revision C.01,
 Gaussian 16:  ES64L-G16RevC.01  3-Jul-2019

 -----------------------------------------
 # sp b3lyp/6-311g** Force nosymm scf=(qc)
 -----------------------------------------

 -------------------
 Title Card Required
 -------------------
 Symbolic Z-matrix:
 Charge =  0 Multiplicity = 2

                          Input orientation:
 ---------------------------------------------------------------------
 Center     Atomic      Atomic             Coordinates (Angstroms)
 Number     Number       Type             X           Y           Z
 ---------------------------------------------------------------------
      1          1           0        0.000000    0.000000    0.000000
      2          1           0       -0.700000    0.000000    0.000000
      3          9           0        1.950000    0.000000    0.000000
 ---------------------------------------------------------------------

 SCF Done:  E(UB3LYP) =  -100.933170702     a.u. after    5 cycles

 Alpha  occ. eigenvalues --  -24.74794  -1.20917  -0.55044  -0.45355  -0.45355
 Alpha  occ. eigenvalues --   -0.45347
 Alpha virt. eigenvalues --    0.08340   0.20197   0.46001   0.90476   0.90476
 Alpha virt. eigenvalues --    0.92747   1.07886   1.07886   1.16078   1.65021
 Alpha virt. eigenvalues --    1.84648   1.84648   1.88772   2.41370   3.56552

  Beta  occ. eigenvalues --  -24.71765  -1.12296  -0.45978  -0.42338  -0.42338
  Beta virt. eigenvalues --   -0.25505   0.09103   0.20790   0.46625   0.91829
  Beta virt. eigenvalues --    0.91829   1.00504   1.08587   1.08587   1.19634
  Beta virt. eigenvalues --    1.66393   1.84990   1.84990   1.89319   2.42151

 Mulliken charges and spin densities:
               1          2
     1  H    0.009595  -0.025367
     2  H    0.027134   0.076814
     3  F   -0.036729   0.948553
 Sum of Mulliken charges =   0.00000   1.00000

 Dipole moment (field-independent basis, Debye):
    X=             -0.4255    Y=              0.0000    Z=              0.0000  Tot=              0.4255
 Quadrupole moment (field-independent basis, Debye-Ang):
   XX=             -6.0336   YY=             -6.8400   ZZ=             -6.8400
   XY=              0.0000   XZ=              0.0000   YZ=              0.0000

  Exact polarizability:      16.354      -0.000       2.082       0.000      -0.000       2.082
 Approx polarizability:      18.028       0.000       2.146       0.000       0.000       2.146

 ******    3 imaginary frequencies (negative Signs) ******

                      1                      2                      3
                      A                      A                      A
 Frequencies --  -1302.9704             -1302.9704              -109.2398
 Red. masses --      1.0101                 1.0101                 1.1085
 Frc consts  --      1.0104                 1.0104                 0.0078
 IR Inten    --      0.2589                 0.2589                27.4463

                      4
                      A
 Frequencies --   5017.3021
 Red. masses --      1.0078
 Frc consts  --     14.9479
 IR Inten    --    245.3358

 - Thermochemistry -
 -------------------
 Temperature   298.150 Kelvin.  Pressure   1.00000 Atm.
 Atom     1 has atomic number  1 and mass   1.00783

 Molecular mass:    21.01405 amu.
 Principal axes and moments of inertia in atomic units:
                           1         2         3
     Eigenvalues --     0.00000  35.30691  35.30691
           X            1.00000  -0.00000   0.00000
           Y            0.00000   1.00000   0.00000
           Z            0.00000   0.00000   1.00000
 This molecule is a prolate symmetric top.
 Rotational symmetry number  1.
 Rotational temperature (Kelvin)      2.45317
 Rotational constant (GHZ):          51.115814
    3 imaginary frequencies ignored.
 Zero-point vibrational energy      30010.1 (Joules/Mol)
                                    7.17259 (Kcal/Mol)
 Vibrational temperatures:   7218.78
          (Kelvin)

 Zero-point correction=                           0.011430 (Hartree/Particle)
 Thermal correction to Energy=                    0.013791
 Thermal correction to Enthalpy=                  0.014735
 Thermal correction to Gibbs Free Energy=        -0.008058
 Sum of electronic and zero-point Energies=           -100.921740
 Sum of electronic and thermal Energies=              -100.919380
 Sum of electronic and thermal Enthalpies=            -100.918436
 Sum of electronic and thermal Free Energies=         -100.941229

                     E (Thermal)             CV                S
                      KCal/Mol        Cal/Mol-Kelvin    Cal/Mol-Kelvin
 Total                    8.654              4.968             47.972
 Electronic               0.000              0.000              1.377
 Translational            0.889              2.981             35.068
 Rotational               0.592              1.987             11.526
 Vibrational              7.173              0.000              0.000

 Normal termination of Gaussian 16 at Fri Aug 22 16:52:08 2025.
