 Gaussian 16, Revision C.01,
 Gaussian 16:  ES64L-G16RevC.01  3-Jul-2019

 -----------------------------------------
 # sp b3lyp/6-311g** Force nosymm scf=(qc)
 -----------------------------------------

 -------------------
 Title Card Required
 -------------------
 Symbolic Z-matrix:
 Charge =  0 Multiplicity = 2

                          Input orientation:
 ---------------------------------------------------------------------
 Center     Atomic      Atomic             Coordinates (Angstroms)
 Number     Number       Type             X           Y           Z
 ---------------------------------------------------------------------
      1          1           0        0.000000    0.000000    0.000000
      2          1           0       -2.850000    0.000000    0.000000
      3          9           0        3.650000    0.000000    0.000000
 ---------------------------------------------------------------------

 SCF Done:  E(UB3LYP) =  -100.760303111     a.u. after   30 cycles

 Alpha  occ. eigenvalues --  -24.75624  -1.21570  -0.54748  -0.45968  -0.45968
 Alpha  occ. eigenvalues --   -0.32447
 Alpha virt. eigenvalues --   -0.08291   0.25249   0.35679   0.87182   0.91331
 Alpha virt. eigenvalues --    0.91331   1.01475   1.25109   1.25109   1.26129
 Alpha virt. eigenvalues --    1.43471   1.43471   1.43689   2.15931   2.38920

  Beta  occ. eigenvalues --  -24.72496  -1.12577  -0.42831  -0.42831  -0.32747
  Beta virt. eigenvalues --   -0.25610  -0.07894   0.25041   0.36277   0.92824
  Beta virt. eigenvalues --    0.92824   0.96427   1.05546   1.24766   1.24766
  Beta virt. eigenvalues --    1.25747   1.44088   1.44088   1.44304   2.16162

 Mulliken charges and spin densities:
               1          2
     1  H    0.006491  -0.980651
     2  H    0.000719   0.988686
     3  F   -0.007210   0.991966
 Sum of Mulliken charges =  -0.00000   1.00000

 Dipole moment (field-independent basis, Debye):
    X=             -0.1452    Y=              0.0000    Z=              0.0000  Tot=              0.1452
 Quadrupole moment (field-independent basis, Debye-Ang):
   XX=             -7.0804   YY=             -7.6422   ZZ=             -7.6422
   XY=             -0.0000   XZ=             -0.0000   YZ=             -0.0000

  Exact polarizability:      23.346       0.000       2.016       0.000       0.000       2.016
 Approx polarizability:      17.365      -0.000       1.932      -0.000       0.000       1.932

 ******    2 imaginary frequencies (negative Signs) ******

                      1                      2                      3
                      A                      A                      A
 Frequencies --   -417.3750              -114.3140               150.5625
 Red. masses --      1.0085                 1.1077                 1.0152
 Frc consts  --      0.1035                 0.0085                 0.0136
 IR Inten    --      3.6012                 2.9536                 0.0414

                      4
                      A
 Frequencies --    150.5625
 Red. masses --      1.0152
 Frc consts  --      0.0136
 IR Inten    --      0.0414

 - Thermochemistry -
 -------------------
 Temperature   298.150 Kelvin.  Pressure   1.00000 Atm.
 Atom     1 has atomic number  1 and mass   1.00783

 Molecular mass:    21.01405 amu.
 Principal axes and moments of inertia in atomic units:
                           1         2         3
     Eigenvalues --     0.00000 182.22351 182.22351
           X            1.00000  -0.00000   0.00000
           Y            0.00000   1.00000   0.00000
           Z            0.00000   0.00000   1.00000
 This molecule is a prolate symmetric top.
 Rotational symmetry number  1.
 Rotational temperature (Kelvin)      0.47532
 Rotational constant (GHZ):           9.903998
    2 imaginary frequencies ignored.
 Zero-point vibrational energy       1801.1 (Joules/Mol)
                                    0.43048 (Kcal/Mol)
 Warning -- explicit consideration of   2 degrees of freedom as
           vibrations may cause significant error
 Vibrational temperatures:    216.63   216.63
          (Kelvin)

 Zero-point correction=                           0.000686 (Hartree/Particle)
 Thermal correction to Energy=                    0.004331
 Thermal correction to Enthalpy=                  0.005275
 Thermal correction to Gibbs Free Energy=        -0.021600
 Sum of electronic and zero-point Energies=           -100.759617
 Sum of electronic and thermal Energies=              -100.755972
 Sum of electronic and thermal Enthalpies=            -100.755028
 Sum of electronic and thermal Free Energies=         -100.781903

                     E (Thermal)             CV                S
                      KCal/Mol        Cal/Mol-Kelvin    Cal/Mol-Kelvin
 Total                    2.718              8.772             56.563
 Electronic               0.000              0.000              1.377
 Translational            0.889              2.981             35.068
 Rotational               0.592              1.987             14.788
 Vibrational              1.237              3.804              5.330
 Vibration     1          0.618              1.902              2.665
 Vibration     2          0.618              1.902              2.665

 Normal termination of Gaussian 16 at Fri Aug 22 23:37:04 2025.
