 Gaussian 16, Revision C.01,
 Gaussian 16:  ES64L-G16RevC.01  3-Jul-2019

 -----------------------------------------
 # sp b3lyp/6-311g** Force nosymm scf=(qc)
 -----------------------------------------

 -------------------
 Title Card Required
 -------------------
 Symbolic Z-matrix:
 Charge =  0 Multiplicity = 2

                          Input orientation:
 ---------------------------------------------------------------------
 Center     Atomic      Atomic             Coordinates (Angstroms)
 Number     Number       Type             X           Y           Z
 ---------------------------------------------------------------------
      1          1           0        0.000000    0.000000    0.000000
      2          1           0       -2.450000    0.000000    0.000000
      3          9           0        3.150000    0.000000    0.000000
 ---------------------------------------------------------------------

 SCF Done:  E(UB3LYP) =  -100.764581765     a.u. after   23 cycles

 Alpha  occ. eigenvalues --  -24.74662  -1.20676  -0.53781  -0.45156  -0.45156
 Alpha  occ. eigenvalues --   -0.32969
 Alpha virt. eigenvalues --   -0.10272   0.25526   0.33619   0.88946   0.91927
 Alpha virt. eigenvalues --    0.91927   1.03109   1.24706   1.24706   1.26349
 Alpha virt. eigenvalues --    1.40138   1.40138   1.42203   2.15325   2.36394

  Beta  occ. eigenvalues --  -24.71597  -1.11883  -0.42087  -0.42087  -0.33496
  Beta virt. eigenvalues --   -0.25114  -0.09369   0.25527   0.34718   0.93400
  Beta virt. eigenvalues --    0.93400   0.97869   1.07055   1.24059   1.24059
  Beta virt. eigenvalues --    1.25532   1.41584   1.41584   1.43632   2.16296

 Mulliken charges and spin densities:
               1          2
     1  H    0.020700  -0.937050
     2  H    0.004937   0.965654
     3  F   -0.025637   0.971397
 Sum of Mulliken charges =  -0.00000   1.00000

 Dipole moment (field-independent basis, Debye):
    X=             -0.4722    Y=             -0.0000    Z=             -0.0000  Tot=              0.4722
 Quadrupole moment (field-independent basis, Debye-Ang):
   XX=             -7.6199   YY=             -7.6625   ZZ=             -7.6625
   XY=             -0.0000   XZ=             -0.0000   YZ=             -0.0000

  Exact polarizability:      43.225      -0.000       2.015      -0.000      -0.000       2.015
 Approx polarizability:      36.230      -0.000       1.924      -0.000       0.000       1.924

 ******    2 imaginary frequencies (negative Signs) ******

                      1                      2                      3
                      A                      A                      A
 Frequencies --   -735.5737              -203.3151               274.4116
 Red. masses --      1.0087                 1.1075                 1.0152
 Frc consts  --      0.3215                 0.0270                 0.0450
 IR Inten    --     16.4584                16.0353                 0.3115

                      4
                      A
 Frequencies --    274.4117
 Red. masses --      1.0152
 Frc consts  --      0.0450
 IR Inten    --      0.3115

 - Thermochemistry -
 -------------------
 Temperature   298.150 Kelvin.  Pressure   1.00000 Atm.
 Atom     1 has atomic number  1 and mass   1.00783

 Molecular mass:    21.01405 amu.
 Principal axes and moments of inertia in atomic units:
                           1         2         3
     Eigenvalues --     0.00000 135.36085 135.36085
           X            1.00000  -0.00000   0.00000
           Y            0.00000   1.00000   0.00000
           Z            0.00000   0.00000   1.00000
 This molecule is a prolate symmetric top.
 Rotational symmetry number  1.
 Rotational temperature (Kelvin)      0.63987
 Rotational constant (GHZ):          13.332815
    2 imaginary frequencies ignored.
 Zero-point vibrational energy       3282.7 (Joules/Mol)
                                    0.78458 (Kcal/Mol)
 Warning -- explicit consideration of   2 degrees of freedom as
           vibrations may cause significant error
 Vibrational temperatures:    394.82   394.82
          (Kelvin)

 Zero-point correction=                           0.001250 (Hartree/Particle)
 Thermal correction to Energy=                    0.004517
 Thermal correction to Enthalpy=                  0.005461
 Thermal correction to Gibbs Free Energy=        -0.020091
 Sum of electronic and zero-point Energies=           -100.763331
 Sum of electronic and thermal Energies=              -100.760065
 Sum of electronic and thermal Enthalpies=            -100.759121
 Sum of electronic and thermal Free Energies=         -100.784673

                     E (Thermal)             CV                S
                      KCal/Mol        Cal/Mol-Kelvin    Cal/Mol-Kelvin
 Total                    2.834              8.409             53.779
 Electronic               0.000              0.000              1.377
 Translational            0.889              2.981             35.068
 Rotational               0.592              1.987             14.197
 Vibrational              1.353              3.441              3.137
 Vibration     1          0.677              1.721              1.568
 Vibration     2          0.677              1.721              1.568

 Normal termination of Gaussian 16 at Fri Aug 22 20:10:32 2025.
