 Gaussian 16, Revision C.01,
 Gaussian 16:  ES64L-G16RevC.01  3-Jul-2019

 -----------------------------------------
 # sp b3lyp/6-311g** Force nosymm scf=(qc)
 -----------------------------------------

 -------------------
 Title Card Required
 -------------------
 Symbolic Z-matrix:
 Charge =  0 Multiplicity = 2

                          Input orientation:
 ---------------------------------------------------------------------
 Center     Atomic      Atomic             Coordinates (Angstroms)
 Number     Number       Type             X           Y           Z
 ---------------------------------------------------------------------
      1          1           0        0.000000    0.000000    0.000000
      2          1           0       -1.100000    0.000000    0.000000
      3          9           0        4.000000    0.000000    0.000000
 ---------------------------------------------------------------------

 SCF Done:  E(UB3LYP) =  -100.889520265     a.u. after  111 cycles

 Alpha  occ. eigenvalues --  -24.76190  -1.22093  -0.55297  -0.46470  -0.46454
 Alpha  occ. eigenvalues --   -0.37533
 Alpha virt. eigenvalues --   -0.01903   0.22132   0.36313   0.86068   0.90945
 Alpha virt. eigenvalues --    0.91345   1.00902   1.10775   1.10776   1.29630
 Alpha virt. eigenvalues --    1.59887   1.59888   2.15992   2.34048   2.55138

  Beta  occ. eigenvalues --  -24.73035  -1.13020  -0.43307  -0.43290  -0.37533
  Beta virt. eigenvalues --   -0.25948  -0.01901   0.22134   0.36323   0.92446
  Beta virt. eigenvalues --    0.92839   0.95534   1.05053   1.10775   1.10776
  Beta virt. eigenvalues --    1.29632   1.59887   1.59888   2.15994   2.34048

 Mulliken charges and spin densities:
               1          2
     1  H    0.000922  -0.000064
     2  H   -0.001758  -0.000027
     3  F    0.000836   1.000091
 Sum of Mulliken charges =   0.00000   1.00000

 Dipole moment (field-independent basis, Debye):
    X=              0.0186    Y=              0.0000    Z=             -0.0000  Tot=              0.0186
 Quadrupole moment (field-independent basis, Debye-Ang):
   XX=             -6.3520   YY=             -6.6957   ZZ=             -7.2128
   XY=              0.0000   XZ=             -0.0000   YZ=             -0.3465

  Exact polarizability:      13.755       0.000       2.451      -0.000      -0.189       2.169
 Approx polarizability:      19.428       0.000       2.578      -0.000      -0.234       2.229

 ******    1 imaginary frequencies (negative Signs) ******

                      1                      2                      3
                      A                      A                      A
 Frequencies --    -63.9055              1026.5360              1527.4977
 Red. masses --      1.1085                 1.0078                 1.0093
 Frc consts  --      0.0027                 0.6257                 1.3875
 IR Inten    --      0.0337                 0.0418                 0.0048

                      4
                      A
 Frequencies --   1530.5153
 Red. masses --      1.0093
 Frc consts  --      1.3930
 IR Inten    --      0.0009

 - Thermochemistry -
 -------------------
 Temperature   298.150 Kelvin.  Pressure   1.00000 Atm.
 Atom     1 has atomic number  1 and mass   1.00783

 Molecular mass:    21.01405 amu.
 Principal axes and moments of inertia in atomic units:
                           1         2         3
     Eigenvalues --     0.00000 136.90077 136.90077
           X            1.00000  -0.00000   0.00000
           Y            0.00000   1.00000   0.00000
           Z            0.00000   0.00000   1.00000
 This molecule is a prolate symmetric top.
 Rotational symmetry number  1.
 Rotational temperature (Kelvin)      0.63268
 Rotational constant (GHZ):          13.182842
    1 imaginary frequencies ignored.
 Zero-point vibrational energy      24431.0 (Joules/Mol)
                                    5.83916 (Kcal/Mol)
 Vibrational temperatures:   1476.96  2197.73  2202.07
          (Kelvin)

 Zero-point correction=                           0.009305 (Hartree/Particle)
 Thermal correction to Energy=                    0.011708
 Thermal correction to Enthalpy=                  0.012652
 Thermal correction to Gibbs Free Energy=        -0.011470
 Sum of electronic and zero-point Energies=           -100.880215
 Sum of electronic and thermal Energies=              -100.877813
 Sum of electronic and thermal Enthalpies=            -100.876868
 Sum of electronic and thermal Free Energies=         -100.900991

                     E (Thermal)             CV                S
                      KCal/Mol        Cal/Mol-Kelvin    Cal/Mol-Kelvin
 Total                    7.347              5.452             50.770
 Electronic               0.000              0.000              1.377
 Translational            0.889              2.981             35.068
 Rotational               0.592              1.987             14.219
 Vibrational              5.865              0.484              0.105

 Normal termination of Gaussian 16 at Sat Aug 23 01:46:16 2025.
