 Gaussian 16, Revision C.01,
 Gaussian 16:  ES64L-G16RevC.01  3-Jul-2019

 -----------------------------------------
 # sp b3lyp/6-311g** Force nosymm scf=(qc)
 -----------------------------------------

 -------------------
 Title Card Required
 -------------------
 Symbolic Z-matrix:
 Charge =  0 Multiplicity = 2

                          Input orientation:
 ---------------------------------------------------------------------
 Center     Atomic      Atomic             Coordinates (Angstroms)
 Number     Number       Type             X           Y           Z
 ---------------------------------------------------------------------
      1          1           0        0.000000    0.000000    0.000000
      2          1           0       -3.950000    0.000000    0.000000
      3          9           0        2.250000    0.000000    0.000000
 ---------------------------------------------------------------------

 SCF Done:  E(UB3LYP) =  -100.774216865     a.u. after   16 cycles

 Alpha  occ. eigenvalues --  -24.67429  -1.08853  -0.38690  -0.38690  -0.36511
 Alpha  occ. eigenvalues --   -0.32904
 Alpha virt. eigenvalues --   -0.22203   0.20877   0.27261   0.91943   0.95536
 Alpha virt. eigenvalues --    0.95536   1.08167   1.21532   1.21532   1.24567
 Alpha virt. eigenvalues --    1.24577   1.24577   1.39522   2.10006   2.15875

  Beta  occ. eigenvalues --  -24.70097  -1.16395  -0.49165  -0.41338  -0.41338
  Beta virt. eigenvalues --   -0.12107  -0.04441   0.31294   0.40038   0.88483
  Beta virt. eigenvalues --    0.94380   0.94380   1.06011   1.38100   1.38100
  Beta virt. eigenvalues --    1.48101   1.48101   1.48189   1.50112   2.32622

 Mulliken charges and spin densities:
               1          2
     1  H    0.134145   0.841251
     2  H    0.000323   0.999684
     3  F   -0.134468  -0.840935
 Sum of Mulliken charges =  -0.00000   1.00000

 Dipole moment (field-independent basis, Debye):
    X=             -1.5260    Y=              0.0000    Z=             -0.0000  Tot=              1.5260
 Quadrupole moment (field-independent basis, Debye-Ang):
   XX=             -9.8095   YY=             -7.5271   ZZ=             -7.5271
   XY=             -0.0000   XZ=              0.0000   YZ=             -0.0000

  Exact polarizability:      27.703      -0.000       2.038       0.000       0.000       2.038
 Approx polarizability:      38.409      -0.000       1.927       0.000      -0.000       1.927

 ******    1 imaginary frequencies (negative Signs) ******

                      1                      2                      3
                      A                      A                      A
 Frequencies --   -803.9721                45.3828               336.0903
 Red. masses --      1.0588                 1.0528                 1.0260
 Frc consts  --      0.4032                 0.0013                 0.0683
 IR Inten    --    100.0255                 0.0186                17.4978

                      4
                      A
 Frequencies --    336.0903
 Red. masses --      1.0260
 Frc consts  --      0.0683
 IR Inten    --     17.4978

 - Thermochemistry -
 -------------------
 Temperature   298.150 Kelvin.  Pressure   1.00000 Atm.
 Atom     1 has atomic number  1 and mass   1.00783

 Molecular mass:    21.01405 amu.
 Principal axes and moments of inertia in atomic units:
                           1         2         3
     Eigenvalues --     0.00000 144.24130 144.24130
           X            1.00000  -0.00000   0.00000
           Y            0.00000   1.00000   0.00000
           Z            0.00000   0.00000   1.00000
 This molecule is a prolate symmetric top.
 Rotational symmetry number  1.
 Rotational temperature (Kelvin)      0.60048
 Rotational constant (GHZ):          12.511958
    1 imaginary frequencies ignored.
 Zero-point vibrational energy       4292.0 (Joules/Mol)
                                    1.02581 (Kcal/Mol)
 Warning -- explicit consideration of   3 degrees of freedom as
           vibrations may cause significant error
 Vibrational temperatures:     65.30   483.56   483.56
          (Kelvin)

 Zero-point correction=                           0.001635 (Hartree/Particle)
 Thermal correction to Energy=                    0.005594
 Thermal correction to Enthalpy=                  0.006538
 Thermal correction to Gibbs Free Energy=        -0.021133
 Sum of electronic and zero-point Energies=           -100.772582
 Sum of electronic and thermal Energies=              -100.768623
 Sum of electronic and thermal Enthalpies=            -100.767679
 Sum of electronic and thermal Free Energies=         -100.795350

                     E (Thermal)             CV                S
                      KCal/Mol        Cal/Mol-Kelvin    Cal/Mol-Kelvin
 Total                    3.510             10.154             58.239
 Electronic               0.000              0.000              1.377
 Translational            0.889              2.981             35.068
 Rotational               0.592              1.987             14.323
 Vibrational              2.029              5.186              7.470
 Vibration     1          0.595              1.979              5.009
 Vibration     2          0.717              1.603              1.231
 Vibration     3          0.717              1.603              1.231

 Normal termination of Gaussian 16 at Fri Aug 22 17:18:13 2025.
