 Gaussian 16, Revision C.01,
 Gaussian 16:  ES64L-G16RevC.01  3-Jul-2019

 -----------------------------------------
 # sp b3lyp/6-311g** Force nosymm scf=(qc)
 -----------------------------------------

 -------------------
 Title Card Required
 -------------------
 Symbolic Z-matrix:
 Charge =  0 Multiplicity = 2

                          Input orientation:
 ---------------------------------------------------------------------
 Center     Atomic      Atomic             Coordinates (Angstroms)
 Number     Number       Type             X           Y           Z
 ---------------------------------------------------------------------
      1          1           0        0.000000    0.000000    0.000000
      2          1           0       -0.500000    0.000000    0.000000
      3          9           0        2.950000    0.000000    0.000000
 ---------------------------------------------------------------------

 SCF Done:  E(UB3LYP) =  -100.862215509     a.u. after  187 cycles

 Alpha  occ. eigenvalues --  -24.76581  -1.22374  -0.55568  -0.49219  -0.46717
 Alpha  occ. eigenvalues --   -0.46689
 Alpha virt. eigenvalues --    0.10449   0.18542   0.56558   0.85902   0.90774
 Alpha virt. eigenvalues --    0.93986   1.08225   1.12195   1.12203   1.62083
 Alpha virt. eigenvalues --    1.86190   1.99729   1.99740   2.36919   3.64700

  Beta  occ. eigenvalues --  -24.73418  -1.13285  -0.49174  -0.43559  -0.43546
  Beta virt. eigenvalues --   -0.26188   0.10519   0.18584   0.56686   0.92273
  Beta virt. eigenvalues --    0.95359   0.95900   1.11737   1.12194   1.12202
  Beta virt. eigenvalues --    1.62112   1.86224   1.99728   1.99739   2.36925

 Mulliken charges and spin densities:
               1          2
     1  H   -0.010146  -0.002022
     2  H   -0.000760   0.000494
     3  F    0.010907   1.001528
 Sum of Mulliken charges =   0.00000   1.00000

 Dipole moment (field-independent basis, Debye):
    X=              0.0934    Y=             -0.0000    Z=             -0.0000  Tot=              0.0934
 Quadrupole moment (field-independent basis, Debye-Ang):
   XX=             -5.9578   YY=             -6.1647   ZZ=             -6.1646
   XY=             -0.0000   XZ=             -0.0000   YZ=              0.4317

  Exact polarizability:       5.847       0.000       2.038       0.000       0.229       2.038
 Approx polarizability:       6.105       0.000       2.179       0.000       0.287       2.179

 ******    2 imaginary frequencies (negative Signs) ******

                      1                      2                      3
                      A                      A                      A
 Frequencies --  -4822.4995             -4822.1603                75.2465
 Red. masses --      1.0084                 1.0084                 1.1085
 Frc consts  --     13.8180                13.8160                 0.0037
 IR Inten    --      0.0836                 0.0735                 0.1511

                      4
                      A
 Frequencies --   9960.3362
 Red. masses --      1.0078
 Frc consts  --     58.9092
 IR Inten    --      0.3118

 - Thermochemistry -
 -------------------
 Temperature   298.150 Kelvin.  Pressure   1.00000 Atm.
 Atom     1 has atomic number  1 and mass   1.00783

 Molecular mass:    21.01405 amu.
 Principal axes and moments of inertia in atomic units:
                           1         2         3
     Eigenvalues --     0.00000  67.08759  67.08759
           X            1.00000  -0.00000   0.00000
           Y            0.00000   1.00000   0.00000
           Z            0.00000   0.00000   1.00000
 This molecule is a prolate symmetric top.
 Rotational symmetry number  1.
 Rotational temperature (Kelvin)      1.29106
 Rotational constant (GHZ):          26.901267
    2 imaginary frequencies ignored.
 Zero-point vibrational energy      60026.1 (Joules/Mol)
                                   14.34659 (Kcal/Mol)
 Warning -- explicit consideration of   1 degrees of freedom as
           vibrations may cause significant error
 Vibrational temperatures:    108.26 14330.70
          (Kelvin)

 Zero-point correction=                           0.022863 (Hartree/Particle)
 Thermal correction to Energy=                    0.026006
 Thermal correction to Enthalpy=                  0.026950
 Thermal correction to Gibbs Free Energy=         0.001646
 Sum of electronic and zero-point Energies=           -100.839353
 Sum of electronic and thermal Energies=              -100.836209
 Sum of electronic and thermal Enthalpies=            -100.835265
 Sum of electronic and thermal Free Energies=         -100.860570

                     E (Thermal)             CV                S
                      KCal/Mol        Cal/Mol-Kelvin    Cal/Mol-Kelvin
 Total                   16.319              6.934             53.258
 Electronic               0.000              0.000              1.377
 Translational            0.889              2.981             35.068
 Rotational               0.592              1.987             12.802
 Vibrational             14.838              1.966              4.011
 Vibration     1          0.599              1.966              4.011

 Normal termination of Gaussian 16 at Fri Aug 22 19:05:52 2025.
