 Gaussian 16, Revision C.01,
 Gaussian 16:  ES64L-G16RevC.01  3-Jul-2019

 -----------------------------------------
 # sp b3lyp/6-311g** Force nosymm scf=(qc)
 -----------------------------------------

 -------------------
 Title Card Required
 -------------------
 Symbolic Z-matrix:
 Charge =  0 Multiplicity = 2

                          Input orientation:
 ---------------------------------------------------------------------
 Center     Atomic      Atomic             Coordinates (Angstroms)
 Number     Number       Type             X           Y           Z
 ---------------------------------------------------------------------
      1          1           0        0.000000    0.000000    0.000000
      2          1           0       -2.450000    0.000000    0.000000
      3          9           0        1.550000    0.000000    0.000000
 ---------------------------------------------------------------------

 SCF Done:  E(UB3LYP) =  -100.846084476     a.u. after    9 cycles

 Alpha  occ. eigenvalues --  -24.64270  -1.09942  -0.43282  -0.36325  -0.36325
 Alpha  occ. eigenvalues --   -0.35897
 Alpha virt. eigenvalues --   -0.14005   0.23119   0.26997   0.94172   0.94172
 Alpha virt. eigenvalues --    1.02472   1.08647   1.21603   1.21603   1.24886
 Alpha virt. eigenvalues --    1.32280   1.32280   1.75100   2.12464   2.21012

  Beta  occ. eigenvalues --  -24.63662  -1.08323  -0.41707  -0.35745  -0.35745
  Beta virt. eigenvalues --   -0.17042  -0.08545   0.24840   0.34982   0.93957
  Beta virt. eigenvalues --    0.93957   1.03777   1.08976   1.29381   1.29381
  Beta virt. eigenvalues --    1.41419   1.41419   1.43021   1.74116   2.16276

 Mulliken charges and spin densities:
               1          2
     1  H    0.321514  -0.164550
     2  H    0.022290   0.972950
     3  F   -0.343803   0.191600
 Sum of Mulliken charges =  -0.00000   1.00000

 Dipole moment (field-independent basis, Debye):
    X=             -2.8699    Y=              0.0000    Z=             -0.0000  Tot=              2.8699
 Quadrupole moment (field-independent basis, Debye-Ang):
   XX=             -9.3942   YY=             -7.3529   ZZ=             -7.3529
   XY=              0.0000   XZ=             -0.0000   YZ=              0.0000

  Exact polarizability:      25.748      -0.000       2.181       0.000      -0.000       2.181
 Approx polarizability:      38.813       0.000       2.104      -0.000      -0.000       2.104

 ******    2 imaginary frequencies (negative Signs) ******

                      1                      2                      3
                      A                      A                      A
 Frequencies --  -1763.6735              -294.0799               944.5924
 Red. masses --      1.0489                 1.0627                 1.0243
 Frc consts  --      1.9223                 0.0541                 0.5385
 IR Inten    --      3.7629                 5.0108                88.1761

                      4
                      A
 Frequencies --    944.5924
 Red. masses --      1.0243
 Frc consts  --      0.5385
 IR Inten    --     88.1761

 - Thermochemistry -
 -------------------
 Temperature   298.150 Kelvin.  Pressure   1.00000 Atm.
 Atom     1 has atomic number  1 and mass   1.00783

 Molecular mass:    21.01405 amu.
 Principal axes and moments of inertia in atomic units:
                           1         2         3
     Eigenvalues --     0.00000  60.91403  60.91403
           X            1.00000  -0.00000   0.00000
           Y            0.00000   1.00000   0.00000
           Z            0.00000   0.00000   1.00000
 This molecule is a prolate symmetric top.
 Rotational symmetry number  1.
 Rotational temperature (Kelvin)      1.42190
 Rotational constant (GHZ):          29.627677
    2 imaginary frequencies ignored.
 Zero-point vibrational energy      11299.8 (Joules/Mol)
                                    2.70073 (Kcal/Mol)
 Vibrational temperatures:   1359.06  1359.06
          (Kelvin)

 Zero-point correction=                           0.004304 (Hartree/Particle)
 Thermal correction to Energy=                    0.006756
 Thermal correction to Enthalpy=                  0.007700
 Thermal correction to Gibbs Free Energy=        -0.015719
 Sum of electronic and zero-point Energies=           -100.841781
 Sum of electronic and thermal Energies=              -100.839329
 Sum of electronic and thermal Enthalpies=            -100.838385
 Sum of electronic and thermal Free Energies=         -100.861804

                     E (Thermal)             CV                S
                      KCal/Mol        Cal/Mol-Kelvin    Cal/Mol-Kelvin
 Total                    4.239              5.852             49.289
 Electronic               0.000              0.000              1.377
 Translational            0.889              2.981             35.068
 Rotational               0.592              1.987             12.610
 Vibrational              2.758              0.884              0.234

 Normal termination of Gaussian 16 at Fri Aug 22 16:28:41 2025.
