 Gaussian 16, Revision C.01,
 Gaussian 16:  ES64L-G16RevC.01  3-Jul-2019

 -----------------------------------------
 # sp b3lyp/6-311g** Force nosymm scf=(qc)
 -----------------------------------------

 -------------------
 Title Card Required
 -------------------
 Symbolic Z-matrix:
 Charge =  0 Multiplicity = 2

                          Input orientation:
 ---------------------------------------------------------------------
 Center     Atomic      Atomic             Coordinates (Angstroms)
 Number     Number       Type             X           Y           Z
 ---------------------------------------------------------------------
      1          1           0        0.000000    0.000000    0.000000
      2          1           0       -0.900000    0.000000    0.000000
      3          9           0        2.200000    0.000000    0.000000
 ---------------------------------------------------------------------

 SCF Done:  E(UB3LYP) =  -100.923116634     a.u. after    7 cycles

 Alpha  occ. eigenvalues --  -24.75096  -1.21112  -0.54549  -0.45559  -0.45559
 Alpha  occ. eigenvalues --   -0.41768
 Alpha virt. eigenvalues --    0.03044   0.20879   0.41670   0.89632   0.91158
 Alpha virt. eigenvalues --    0.91158   1.07067   1.07067   1.12166   1.49148
 Alpha virt. eigenvalues --    1.70915   1.70915   2.16936   2.37195   2.73651

  Beta  occ. eigenvalues --  -24.72047  -1.12393  -0.42513  -0.42513  -0.41707
  Beta virt. eigenvalues --   -0.25839   0.03808   0.21331   0.42028   0.92573
  Beta virt. eigenvalues --    0.92573   0.97765   1.07542   1.07542   1.15788
  Beta virt. eigenvalues --    1.50318   1.71221   1.71221   2.17486   2.37664

 Mulliken charges and spin densities:
               1          2
     1  H   -0.002267  -0.025796
     2  H    0.028651   0.065273
     3  F   -0.026384   0.960523
 Sum of Mulliken charges =   0.00000   1.00000

 Dipole moment (field-independent basis, Debye):
    X=             -0.4061    Y=             -0.0000    Z=              0.0000  Tot=              0.4061
 Quadrupole moment (field-independent basis, Debye-Ang):
   XX=             -6.0065   YY=             -7.1201   ZZ=             -7.1201
   XY=             -0.0000   XZ=              0.0000   YZ=              0.0000

  Exact polarizability:      22.362      -0.000       2.107       0.000      -0.000       2.107
 Approx polarizability:      25.596      -0.000       2.147       0.000      -0.000       2.147

 ******    1 imaginary frequencies (negative Signs) ******

                      1                      2                      3
                      A                      A                      A
 Frequencies --   -249.2472              1362.1588              1362.1588
 Red. masses --      1.1084                 1.0107                 1.0107
 Frc consts  --      0.0406                 1.1049                 1.1049
 IR Inten    --     27.6431                 0.0793                 0.0793

                      4
                      A
 Frequencies --   2550.9482
 Red. masses --      1.0079
 Frc consts  --      3.8643
 IR Inten    --    229.3483

 - Thermochemistry -
 -------------------
 Temperature   298.150 Kelvin.  Pressure   1.00000 Atm.
 Atom     1 has atomic number  1 and mass   1.00783

 Molecular mass:    21.01405 amu.
 Principal axes and moments of inertia in atomic units:
                           1         2         3
     Eigenvalues --     0.00000  47.15715  47.15715
           X            1.00000  -0.00000   0.00000
           Y            0.00000   1.00000   0.00000
           Z            0.00000   0.00000   1.00000
 This molecule is a prolate symmetric top.
 Rotational symmetry number  1.
 Rotational temperature (Kelvin)      1.83671
 Rotational constant (GHZ):          38.270790
    1 imaginary frequencies ignored.
 Zero-point vibrational energy      31553.1 (Joules/Mol)
                                    7.54137 (Kcal/Mol)
 Vibrational temperatures:   1959.84  1959.84  3670.25
          (Kelvin)

 Zero-point correction=                           0.012018 (Hartree/Particle)
 Thermal correction to Energy=                    0.014396
 Thermal correction to Enthalpy=                  0.015340
 Thermal correction to Gibbs Free Energy=        -0.007746
 Sum of electronic and zero-point Energies=           -100.911099
 Sum of electronic and thermal Energies=              -100.908721
 Sum of electronic and thermal Enthalpies=            -100.907777
 Sum of electronic and thermal Free Energies=         -100.930863

                     E (Thermal)             CV                S
                      KCal/Mol        Cal/Mol-Kelvin    Cal/Mol-Kelvin
 Total                    9.034              5.210             48.589
 Electronic               0.000              0.000              1.377
 Translational            0.889              2.981             35.068
 Rotational               0.592              1.987             12.101
 Vibrational              7.552              0.242              0.042

 Normal termination of Gaussian 16 at Fri Aug 22 17:10:37 2025.
