 Gaussian 16, Revision C.01,
 Gaussian 16:  ES64L-G16RevC.01  3-Jul-2019

 -----------------------------------------
 # sp b3lyp/6-311g** Force nosymm scf=(qc)
 -----------------------------------------

 -------------------
 Title Card Required
 -------------------
 Symbolic Z-matrix:
 Charge =  0 Multiplicity = 2

                          Input orientation:
 ---------------------------------------------------------------------
 Center     Atomic      Atomic             Coordinates (Angstroms)
 Number     Number       Type             X           Y           Z
 ---------------------------------------------------------------------
      1          1           0        0.000000    0.000000    0.000000
      2          1           0       -1.150000    0.000000    0.000000
      3          9           0        2.850000    0.000000    0.000000
 ---------------------------------------------------------------------

 SCF Done:  E(UB3LYP) =  -100.881403239     a.u. after   17 cycles

 Alpha  occ. eigenvalues --  -24.76804  -1.22608  -0.55792  -0.47078  -0.46940
 Alpha  occ. eigenvalues --   -0.36680
 Alpha virt. eigenvalues --   -0.02633   0.22765   0.35851   0.85685   0.90556
 Alpha virt. eigenvalues --    0.93461   1.05536   1.11972   1.11981   1.26039
 Alpha virt. eigenvalues --    1.57273   1.57282   2.13333   2.33818   2.56008

  Beta  occ. eigenvalues --  -24.73642  -1.13519  -0.43927  -0.43770  -0.36656
  Beta virt. eigenvalues --   -0.26411  -0.02607   0.22791   0.35943   0.92055
  Beta virt. eigenvalues --    0.95140   0.95242   1.09290   1.11972   1.11980
  Beta virt. eigenvalues --    1.26041   1.57271   1.57280   2.13341   2.33821

 Mulliken charges and spin densities:
               1          2
     1  H   -0.002093  -0.000420
     2  H   -0.007883  -0.000954
     3  F    0.009975   1.001374
 Sum of Mulliken charges =   0.00000   1.00000

 Dipole moment (field-independent basis, Debye):
    X=              0.1287    Y=              0.0000    Z=             -0.0000  Tot=              0.1287
 Quadrupole moment (field-independent basis, Debye-Ang):
   XX=             -6.1206   YY=             -6.5883   ZZ=             -7.4517
   XY=             -0.0000   XZ=             -0.0000   YZ=              0.0014

  Exact polarizability:      15.657      -0.000       2.543       0.000       0.001       2.085
 Approx polarizability:      22.319      -0.000       2.697      -0.000       0.001       2.120

                      1                      2                      3
                      A                      A                      A
 Frequencies --     62.0541               583.3426              1497.6746
 Red. masses --      1.1085                 1.0078                 1.0106
 Frc consts  --      0.0025                 0.2021                 1.3356
 IR Inten    --      0.7539                 1.7078                 0.0035

                      4
                      A
 Frequencies --   1501.4566
 Red. masses --      1.0106
 Frc consts  --      1.3423
 IR Inten    --      0.0026

 - Thermochemistry -
 -------------------
 Temperature   298.150 Kelvin.  Pressure   1.00000 Atm.
 Atom     1 has atomic number  1 and mass   1.00783

 Molecular mass:    21.01405 amu.
 Principal axes and moments of inertia in atomic units:
                           1         2         3
     Eigenvalues --     0.00000  78.71794  78.71794
           X            1.00000  -0.00000   0.00000
           Y            0.00000   1.00000   0.00000
           Z            0.00000   0.00000   1.00000
 This molecule is a prolate symmetric top.
 Rotational symmetry number  1.
 Rotational temperature (Kelvin)      1.10031
 Rotational constant (GHZ):          22.926684
 Zero-point vibrational energy      21799.1 (Joules/Mol)
                                    5.21011 (Kcal/Mol)
 Warning -- explicit consideration of   2 degrees of freedom as
           vibrations may cause significant error
 Vibrational temperatures:     89.28   839.30  2154.82  2160.26
          (Kelvin)

 Zero-point correction=                           0.008303 (Hartree/Particle)
 Thermal correction to Energy=                    0.011652
 Thermal correction to Enthalpy=                  0.012597
 Thermal correction to Gibbs Free Energy=        -0.013278
 Sum of electronic and zero-point Energies=           -100.873100
 Sum of electronic and thermal Energies=              -100.869751
 Sum of electronic and thermal Enthalpies=            -100.868807
 Sum of electronic and thermal Free Energies=         -100.894682

                     E (Thermal)             CV                S
                      KCal/Mol        Cal/Mol-Kelvin    Cal/Mol-Kelvin
 Total                    7.312              8.158             54.459
 Electronic               0.000              0.000              1.377
 Translational            0.889              2.981             35.068
 Rotational               0.592              1.987             13.120
 Vibrational              5.831              3.190              4.894
 Vibration     1          0.597              1.972              4.391
 Vibration     2          0.940              1.067              0.479

 Normal termination of Gaussian 16 at Fri Aug 22 18:48:40 2025.
