 Gaussian 16, Revision C.01,
 Gaussian 16:  ES64L-G16RevC.01  3-Jul-2019

 -----------------------------------------
 # sp b3lyp/6-311g** Force nosymm scf=(qc)
 -----------------------------------------

 -------------------
 Title Card Required
 -------------------
 Symbolic Z-matrix:
 Charge =  0 Multiplicity = 2

                          Input orientation:
 ---------------------------------------------------------------------
 Center     Atomic      Atomic             Coordinates (Angstroms)
 Number     Number       Type             X           Y           Z
 ---------------------------------------------------------------------
      1          1           0        0.000000    0.000000    0.000000
      2          1           0       -3.050000    0.000000    0.000000
      3          9           0        1.750000    0.000000    0.000000
 ---------------------------------------------------------------------

 SCF Done:  E(UB3LYP) =  -100.806027911     a.u. after   11 cycles

 Alpha  occ. eigenvalues --  -24.64023  -1.08539  -0.40389  -0.35770  -0.35770
 Alpha  occ. eigenvalues --   -0.34687
 Alpha virt. eigenvalues --   -0.19514   0.20372   0.27354   0.94952   0.95384
 Alpha virt. eigenvalues --    0.95384   1.07863   1.22788   1.22788   1.23251
 Alpha virt. eigenvalues --    1.26791   1.26791   1.68431   2.13418   2.15765

  Beta  occ. eigenvalues --  -24.64055  -1.08628  -0.40376  -0.35802  -0.35802
  Beta virt. eigenvalues --   -0.19685  -0.07948   0.23512   0.37073   0.95095
  Beta virt. eigenvalues --    0.95406   0.95406   1.07904   1.27115   1.27115
  Beta virt. eigenvalues --    1.44137   1.44521   1.44521   1.68735   2.16243

 Mulliken charges and spin densities:
               1          2
     1  H    0.314760   0.019393
     2  H    0.008732   0.990924
     3  F   -0.323492  -0.010317
 Sum of Mulliken charges =  -0.00000   1.00000

 Dipole moment (field-independent basis, Debye):
    X=             -2.9266    Y=             -0.0000    Z=              0.0000  Tot=              2.9266
 Quadrupole moment (field-independent basis, Debye-Ang):
   XX=            -10.5601   YY=             -7.4432   ZZ=             -7.4432
   XY=             -0.0000   XZ=              0.0000   YZ=             -0.0000

  Exact polarizability:      25.859      -0.000       2.086       0.000      -0.000       2.086
 Approx polarizability:      56.919      -0.000       1.997       0.000       0.000       1.997

 ******    2 imaginary frequencies (negative Signs) ******

                      1                      2                      3
                      A                      A                      A
 Frequencies --  -1195.4070              -162.4241               824.1752
 Red. masses --      1.0551                 1.0565                 1.0258
 Frc consts  --      0.8883                 0.0164                 0.4106
 IR Inten    --     75.2857                 3.0299                91.5856

                      4
                      A
 Frequencies --    824.1752
 Red. masses --      1.0258
 Frc consts  --      0.4106
 IR Inten    --     91.5856

 - Thermochemistry -
 -------------------
 Temperature   298.150 Kelvin.  Pressure   1.00000 Atm.
 Atom     1 has atomic number  1 and mass   1.00783

 Molecular mass:    21.01405 amu.
 Principal axes and moments of inertia in atomic units:
                           1         2         3
     Eigenvalues --     0.00000  86.53785  86.53785
           X            1.00000  -0.00000   0.00000
           Y            0.00000   1.00000   0.00000
           Z            0.00000   0.00000   1.00000
 This molecule is a prolate symmetric top.
 Rotational symmetry number  1.
 Rotational temperature (Kelvin)      1.00088
 Rotational constant (GHZ):          20.854934
    2 imaginary frequencies ignored.
 Zero-point vibrational energy       9859.3 (Joules/Mol)
                                    2.35644 (Kcal/Mol)
 Vibrational temperatures:   1185.80  1185.80
          (Kelvin)

 Zero-point correction=                           0.003755 (Hartree/Particle)
 Thermal correction to Energy=                    0.006259
 Thermal correction to Enthalpy=                  0.007203
 Thermal correction to Gibbs Free Energy=        -0.016615
 Sum of electronic and zero-point Energies=           -100.802273
 Sum of electronic and thermal Energies=              -100.799769
 Sum of electronic and thermal Enthalpies=            -100.798825
 Sum of electronic and thermal Free Energies=         -100.822643

                     E (Thermal)             CV                S
                      KCal/Mol        Cal/Mol-Kelvin    Cal/Mol-Kelvin
 Total                    3.928              6.191             50.130
 Electronic               0.000              0.000              1.377
 Translational            0.889              2.981             35.068
 Rotational               0.592              1.987             13.308
 Vibrational              2.446              1.223              0.377

 Normal termination of Gaussian 16 at Fri Aug 22 16:41:24 2025.
