 Gaussian 16, Revision C.01,
 Gaussian 16:  ES64L-G16RevC.01  3-Jul-2019

 -----------------------------------------
 # sp b3lyp/6-311g** Force nosymm scf=(qc)
 -----------------------------------------

 -------------------
 Title Card Required
 -------------------
 Symbolic Z-matrix:
 Charge =  0 Multiplicity = 2

                          Input orientation:
 ---------------------------------------------------------------------
 Center     Atomic      Atomic             Coordinates (Angstroms)
 Number     Number       Type             X           Y           Z
 ---------------------------------------------------------------------
      1          1           0        0.000000    0.000000    0.000000
      2          1           0       -0.750000    0.000000    0.000000
      3          9           0        3.200000    0.000000    0.000000
 ---------------------------------------------------------------------

 SCF Done:  E(UB3LYP) =  -100.934238592     a.u. after  228 cycles

 Alpha  occ. eigenvalues --  -24.76502  -1.22328  -0.55524  -0.46756  -0.46675
 Alpha  occ. eigenvalues --   -0.43063
 Alpha virt. eigenvalues --    0.05923   0.19872   0.46623   0.85918   0.90792
 Alpha virt. eigenvalues --    0.93627   1.03853   1.08599   1.08604   1.55428
 Alpha virt. eigenvalues --    1.82455   1.82461   1.98091   2.38455   3.28304

  Beta  occ. eigenvalues --  -24.73342  -1.13244  -0.43738  -0.43507  -0.42910
  Beta virt. eigenvalues --   -0.26153   0.05954   0.19892   0.46711   0.92291
  Beta virt. eigenvalues --    0.95313   0.95378   1.07681   1.08598   1.08603
  Beta virt. eigenvalues --    1.55440   1.82454   1.82460   1.98120   2.38459

 Mulliken charges and spin densities:
               1          2
     1  H   -0.004057  -0.000858
     2  H   -0.003001  -0.000023
     3  F    0.007058   1.000882
 Sum of Mulliken charges =   0.00000   1.00000

 Dipole moment (field-independent basis, Debye):
    X=              0.0741    Y=             -0.0000    Z=              0.0000  Tot=              0.0741
 Quadrupole moment (field-independent basis, Debye-Ang):
   XX=             -6.1156   YY=             -6.2739   ZZ=             -6.7772
   XY=             -0.0000   XZ=              0.0000   YZ=             -0.3510

  Exact polarizability:       8.519      -0.000       2.325       0.000      -0.188       2.056
 Approx polarizability:       9.742      -0.000       2.495       0.000      -0.236       2.157

                      1                      2                      3
                      A                      A                      A
 Frequencies --     53.5858               425.6003               428.5757
 Red. masses --      1.1085                 1.0089                 1.0089
 Frc consts  --      0.0019                 0.1077                 0.1092
 IR Inten    --      0.1989                 0.0061                 0.0052

                      4
                      A
 Frequencies --   4337.7867
 Red. masses --      1.0078
 Frc consts  --     11.1730
 IR Inten    --      0.1903

 - Thermochemistry -
 -------------------
 Temperature   298.150 Kelvin.  Pressure   1.00000 Atm.
 Atom     1 has atomic number  1 and mass   1.00783

 Molecular mass:    21.01405 amu.
 Principal axes and moments of inertia in atomic units:
                           1         2         3
     Eigenvalues --     0.00000  84.18328  84.18328
           X            1.00000  -0.00000   0.00000
           Y            0.00000   1.00000   0.00000
           Z            0.00000   0.00000   1.00000
 This molecule is a prolate symmetric top.
 Rotational symmetry number  1.
 Rotational temperature (Kelvin)      1.02887
 Rotational constant (GHZ):          21.438238
 Zero-point vibrational energy      31375.3 (Joules/Mol)
                                    7.49889 (Kcal/Mol)
 Warning -- explicit consideration of   3 degrees of freedom as
           vibrations may cause significant error
 Vibrational temperatures:     77.10   612.34   616.62  6241.11
          (Kelvin)

 Zero-point correction=                           0.011950 (Hartree/Particle)
 Thermal correction to Energy=                    0.015706
 Thermal correction to Enthalpy=                  0.016650
 Thermal correction to Gibbs Free Energy=        -0.010012
 Sum of electronic and zero-point Energies=           -100.922288
 Sum of electronic and thermal Energies=              -100.918533
 Sum of electronic and thermal Enthalpies=            -100.917588
 Sum of electronic and thermal Free Energies=         -100.944251

                     E (Thermal)             CV                S
                      KCal/Mol        Cal/Mol-Kelvin    Cal/Mol-Kelvin
 Total                    9.856              9.767             56.115
 Electronic               0.000              0.000              1.377
 Translational            0.889              2.981             35.068
 Rotational               0.592              1.987             13.253
 Vibrational              8.374              4.799              6.417
 Vibration     1          0.596              1.976              4.680
 Vibration     2          0.787              1.415              0.873
 Vibration     3          0.790              1.408              0.863

 Normal termination of Gaussian 16 at Fri Aug 22 20:14:59 2025.
