 Gaussian 16, Revision C.01,
 Gaussian 16:  ES64L-G16RevC.01  3-Jul-2019

 -----------------------------------------
 # sp b3lyp/6-311g** Force nosymm scf=(qc)
 -----------------------------------------

 -------------------
 Title Card Required
 -------------------
 Symbolic Z-matrix:
 Charge =  0 Multiplicity = 2

                          Input orientation:
 ---------------------------------------------------------------------
 Center     Atomic      Atomic             Coordinates (Angstroms)
 Number     Number       Type             X           Y           Z
 ---------------------------------------------------------------------
      1          1           0        0.000000    0.000000    0.000000
      2          1           0       -1.450000    0.000000    0.000000
      3          9           0        1.300000    0.000000    0.000000
 ---------------------------------------------------------------------

 SCF Done:  E(UB3LYP) =  -100.913994400     a.u. after    7 cycles

 Alpha  occ. eigenvalues --  -24.63836  -1.11473  -0.48949  -0.37976  -0.36801
 Alpha  occ. eigenvalues --   -0.36801
 Alpha virt. eigenvalues --   -0.01509   0.20419   0.29275   0.93191   0.93191
 Alpha virt. eigenvalues --    1.01728   1.06020   1.14060   1.14060   1.42235
 Alpha virt. eigenvalues --    1.42235   1.54108   1.88673   2.22456   2.41482

  Beta  occ. eigenvalues --  -24.62978  -1.09254  -0.44565  -0.36002  -0.36002
  Beta virt. eigenvalues --   -0.20305   0.02047   0.24159   0.31776   0.93378
  Beta virt. eigenvalues --    0.93378   1.03805   1.12362   1.22368   1.22368
  Beta virt. eigenvalues --    1.45552   1.45552   1.57281   1.95627   2.27898

 Mulliken charges and spin densities:
               1          2
     1  H    0.289657  -0.089713
     2  H    0.063372   0.831413
     3  F   -0.353029   0.258300
 Sum of Mulliken charges =   0.00000   1.00000

 Dipole moment (field-independent basis, Debye):
    X=             -2.8020    Y=             -0.0000    Z=              0.0000  Tot=              2.8020
 Quadrupole moment (field-independent basis, Debye-Ang):
   XX=             -8.0648   YY=             -7.0599   ZZ=             -7.0599
   XY=             -0.0000   XZ=              0.0000   YZ=              0.0000

  Exact polarizability:      24.822      -0.000       2.406       0.000       0.000       2.406
 Approx polarizability:      33.224       0.000       2.370       0.000       0.000       2.370

 ******    1 imaginary frequencies (negative Signs) ******

                      1                      2                      3
                      A                      A                      A
 Frequencies --  -2239.9837               353.6745              1114.1558
 Red. masses --      1.0220                 1.0919                 1.0193
 Frc consts  --      3.0212                 0.0805                 0.7455
 IR Inten    --      2.4368                24.0895                50.3796

                      4
                      A
 Frequencies --   1114.1558
 Red. masses --      1.0193
 Frc consts  --      0.7455
 IR Inten    --     50.3796

 - Thermochemistry -
 -------------------
 Temperature   298.150 Kelvin.  Pressure   1.00000 Atm.
 Atom     1 has atomic number  1 and mass   1.00783

 Molecular mass:    21.01405 amu.
 Principal axes and moments of inertia in atomic units:
                           1         2         3
     Eigenvalues --     0.00000  30.46864  30.46864
           X            1.00000  -0.00000   0.00000
           Y            0.00000   1.00000   0.00000
           Z            0.00000   0.00000   1.00000
 This molecule is a prolate symmetric top.
 Rotational symmetry number  1.
 Rotational temperature (Kelvin)      2.84272
 Rotational constant (GHZ):          59.232743
    1 imaginary frequencies ignored.
 Zero-point vibrational energy      15443.7 (Joules/Mol)
                                    3.69113 (Kcal/Mol)
 Warning -- explicit consideration of   1 degrees of freedom as
           vibrations may cause significant error
 Vibrational temperatures:    508.86  1603.02  1603.02
          (Kelvin)

 Zero-point correction=                           0.005882 (Hartree/Particle)
 Thermal correction to Energy=                    0.008647
 Thermal correction to Enthalpy=                  0.009591
 Thermal correction to Gibbs Free Energy=        -0.013665
 Sum of electronic and zero-point Energies=           -100.908112
 Sum of electronic and thermal Energies=              -100.905347
 Sum of electronic and thermal Enthalpies=            -100.904403
 Sum of electronic and thermal Free Energies=         -100.927659

                     E (Thermal)             CV                S
                      KCal/Mol        Cal/Mol-Kelvin    Cal/Mol-Kelvin
 Total                    5.426              7.072             48.946
 Electronic               0.000              0.000              1.377
 Translational            0.889              2.981             35.068
 Rotational               0.592              1.987             11.233
 Vibrational              3.945              2.104              1.267
 Vibration     1          0.730              1.568              1.150

 Normal termination of Gaussian 16 at Fri Aug 22 16:14:39 2025.
