 Gaussian 16, Revision C.01,
 Gaussian 16:  ES64L-G16RevC.01  3-Jul-2019

 -----------------------------------------
 # sp b3lyp/6-311g** Force nosymm scf=(qc)
 -----------------------------------------

 -------------------
 Title Card Required
 -------------------
 Symbolic Z-matrix:
 Charge =  0 Multiplicity = 2

                          Input orientation:
 ---------------------------------------------------------------------
 Center     Atomic      Atomic             Coordinates (Angstroms)
 Number     Number       Type             X           Y           Z
 ---------------------------------------------------------------------
      1          1           0        0.000000    0.000000    0.000000
      2          1           0       -1.000000    0.000000    0.000000
      3          9           0        1.850000    0.000000    0.000000
 ---------------------------------------------------------------------

 SCF Done:  E(UB3LYP) =  -100.912875181     a.u. after    8 cycles

 Alpha  occ. eigenvalues --  -24.72483  -1.18828  -0.52870  -0.43478  -0.43478
 Alpha  occ. eigenvalues --   -0.41341
 Alpha virt. eigenvalues --    0.01158   0.20909   0.36716   0.91062   0.91062
 Alpha virt. eigenvalues --    0.92782   1.07294   1.07294   1.10419   1.55002
 Alpha virt. eigenvalues --    1.63637   1.63637   2.20638   2.32815   2.60689

  Beta  occ. eigenvalues --  -24.69681  -1.10926  -0.41691  -0.40702  -0.40702
  Beta virt. eigenvalues --   -0.24829   0.02717   0.21817   0.37467   0.92259
  Beta virt. eigenvalues --    0.92259   1.00050   1.08738   1.08738   1.13217
  Beta virt. eigenvalues --    1.57765   1.64544   1.64544   2.22273   2.34462

 Mulliken charges and spin densities:
               1          2
     1  H    0.050300  -0.072423
     2  H    0.046042   0.198274
     3  F   -0.096342   0.874148
 Sum of Mulliken charges =   0.00000   1.00000

 Dipole moment (field-independent basis, Debye):
    X=             -1.0739    Y=             -0.0000    Z=              0.0000  Tot=              1.0739
 Quadrupole moment (field-independent basis, Debye-Ang):
   XX=             -6.7508   YY=             -7.1614   ZZ=             -7.1614
   XY=             -0.0000   XZ=              0.0000   YZ=              0.0000

  Exact polarizability:      30.863       0.000       2.214      -0.000      -0.000       2.214
 Approx polarizability:      41.547      -0.000       2.231       0.000      -0.000       2.231

 ******    1 imaginary frequencies (negative Signs) ******

                      1                      2                      3
                      A                      A                      A
 Frequencies --   -656.1086              1370.0382              1410.5004
 Red. masses --      1.0979                 1.0167                 1.0122
 Frc consts  --      0.2785                 1.1244                 1.1865
 IR Inten    --    293.1916               571.9357                 0.0595

                      4
                      A
 Frequencies --   1410.5004
 Red. masses --      1.0122
 Frc consts  --      1.1865
 IR Inten    --      0.0595

 - Thermochemistry -
 -------------------
 Temperature   298.150 Kelvin.  Pressure   1.00000 Atm.
 Atom     1 has atomic number  1 and mass   1.00783

 Molecular mass:    21.01405 amu.
 Principal axes and moments of inertia in atomic units:
                           1         2         3
     Eigenvalues --     0.00000  37.73767  37.73767
           X            1.00000  -0.00000   0.00000
           Y            0.00000   1.00000   0.00000
           Z            0.00000   0.00000   1.00000
 This molecule is a prolate symmetric top.
 Rotational symmetry number  1.
 Rotational temperature (Kelvin)      2.29516
 Rotational constant (GHZ):          47.823338
    1 imaginary frequencies ignored.
 Zero-point vibrational energy      25068.0 (Joules/Mol)
                                    5.99139 (Kcal/Mol)
 Vibrational temperatures:   1971.18  2029.40  2029.40
          (Kelvin)

 Zero-point correction=                           0.009548 (Hartree/Particle)
 Thermal correction to Energy=                    0.011931
 Thermal correction to Enthalpy=                  0.012875
 Thermal correction to Gibbs Free Energy=        -0.010007
 Sum of electronic and zero-point Energies=           -100.903327
 Sum of electronic and thermal Energies=              -100.900944
 Sum of electronic and thermal Enthalpies=            -100.900000
 Sum of electronic and thermal Free Energies=         -100.922882

                     E (Thermal)             CV                S
                      KCal/Mol        Cal/Mol-Kelvin    Cal/Mol-Kelvin
 Total                    7.487              5.289             48.159
 Electronic               0.000              0.000              1.377
 Translational            0.889              2.981             35.068
 Rotational               0.592              1.987             11.659
 Vibrational              6.006              0.321              0.055

 Normal termination of Gaussian 16 at Fri Aug 22 16:45:45 2025.
