 Gaussian 16, Revision C.01,
 Gaussian 16:  ES64L-G16RevC.01  3-Jul-2019

 -----------------------------------------
 # sp b3lyp/6-311g** Force nosymm scf=(qc)
 -----------------------------------------

 -------------------
 Title Card Required
 -------------------
 Symbolic Z-matrix:
 Charge =  0 Multiplicity = 2

                          Input orientation:
 ---------------------------------------------------------------------
 Center     Atomic      Atomic             Coordinates (Angstroms)
 Number     Number       Type             X           Y           Z
 ---------------------------------------------------------------------
      1          1           0        0.000000    0.000000    0.000000
      2          1           0       -0.850000    0.000000    0.000000
      3          9           0        2.150000    0.000000    0.000000
 ---------------------------------------------------------------------

 SCF Done:  E(UB3LYP) =  -100.928917363     a.u. after    7 cycles

 Alpha  occ. eigenvalues --  -24.75087  -1.21113  -0.54628  -0.45557  -0.45557
 Alpha  occ. eigenvalues --   -0.42609
 Alpha virt. eigenvalues --    0.04386   0.20671   0.42894   0.90028   0.91046
 Alpha virt. eigenvalues --    0.91046   1.06965   1.06965   1.12836   1.53423
 Alpha virt. eigenvalues --    1.74246   1.74246   2.10951   2.37953   2.87201

  Beta  occ. eigenvalues --  -24.72039  -1.12402  -0.42624  -0.42512  -0.42512
  Beta virt. eigenvalues --   -0.25812   0.05161   0.21150   0.43253   0.92451
  Beta virt. eigenvalues --    0.92451   0.98124   1.07470   1.07470   1.16451
  Beta virt. eigenvalues --    1.54604   1.74551   1.74551   2.11466   2.38475

 Mulliken charges and spin densities:
               1          2
     1  H   -0.001545  -0.024715
     2  H    0.028642   0.065269
     3  F   -0.027097   0.959446
 Sum of Mulliken charges =   0.00000   1.00000

 Dipole moment (field-independent basis, Debye):
    X=             -0.3976    Y=              0.0000    Z=             -0.0000  Tot=              0.3976
 Quadrupole moment (field-independent basis, Debye-Ang):
   XX=             -5.9948   YY=             -7.0549   ZZ=             -7.0549
   XY=             -0.0000   XZ=             -0.0000   YZ=             -0.0000

  Exact polarizability:      20.554       0.000       2.094       0.000      -0.000       2.094
 Approx polarizability:      23.213       0.000       2.144      -0.000       0.000       2.144

 ******    1 imaginary frequencies (negative Signs) ******

                      1                      2                      3
                      A                      A                      A
 Frequencies --   -237.0756              1225.5545              1225.5545
 Red. masses --      1.1085                 1.0105                 1.0105
 Frc consts  --      0.0367                 0.8942                 0.8942
 IR Inten    --     25.8554                 0.1418                 0.1418

                      4
                      A
 Frequencies --   3053.5914
 Red. masses --      1.0079
 Frc consts  --      5.5370
 IR Inten    --    224.8864

 - Thermochemistry -
 -------------------
 Temperature   298.150 Kelvin.  Pressure   1.00000 Atm.
 Atom     1 has atomic number  1 and mass   1.00783

 Molecular mass:    21.01405 amu.
 Principal axes and moments of inertia in atomic units:
                           1         2         3
     Eigenvalues --     0.00000  44.44953  44.44953
           X            1.00000  -0.00000   0.00000
           Y            0.00000   1.00000   0.00000
           Z            0.00000   0.00000   1.00000
 This molecule is a prolate symmetric top.
 Rotational symmetry number  1.
 Rotational temperature (Kelvin)      1.94859
 Rotational constant (GHZ):          40.602034
    1 imaginary frequencies ignored.
 Zero-point vibrational energy      32925.4 (Joules/Mol)
                                    7.86936 (Kcal/Mol)
 Vibrational temperatures:   1763.30  1763.30  4393.44
          (Kelvin)

 Zero-point correction=                           0.012541 (Hartree/Particle)
 Thermal correction to Energy=                    0.014931
 Thermal correction to Enthalpy=                  0.015876
 Thermal correction to Gibbs Free Energy=        -0.007170
 Sum of electronic and zero-point Energies=           -100.916377
 Sum of electronic and thermal Energies=              -100.913986
 Sum of electronic and thermal Enthalpies=            -100.913042
 Sum of electronic and thermal Free Energies=         -100.936087

                     E (Thermal)             CV                S
                      KCal/Mol        Cal/Mol-Kelvin    Cal/Mol-Kelvin
 Total                    9.370              5.346             48.504
 Electronic               0.000              0.000              1.377
 Translational            0.889              2.981             35.068
 Rotational               0.592              1.987             11.984
 Vibrational              7.888              0.378              0.074

 Normal termination of Gaussian 16 at Fri Aug 22 17:06:36 2025.
