 Gaussian 16, Revision C.01,
 Gaussian 16:  ES64L-G16RevC.01  3-Jul-2019

 -----------------------------------------
 # sp b3lyp/6-311g** Force nosymm scf=(qc)
 -----------------------------------------

 -------------------
 Title Card Required
 -------------------
 Symbolic Z-matrix:
 Charge =  0 Multiplicity = 2

                          Input orientation:
 ---------------------------------------------------------------------
 Center     Atomic      Atomic             Coordinates (Angstroms)
 Number     Number       Type             X           Y           Z
 ---------------------------------------------------------------------
      1          1           0        0.000000    0.000000    0.000000
      2          1           0       -0.650000    0.000000    0.000000
      3          9           0        2.250000    0.000000    0.000000
 ---------------------------------------------------------------------

 SCF Done:  E(UB3LYP) =  -100.926579418     a.u. after  128 cycles

 Alpha  occ. eigenvalues --  -24.75839  -1.21781  -0.55305  -0.46367  -0.46163
 Alpha  occ. eigenvalues --   -0.45937
 Alpha virt. eigenvalues --    0.08609   0.19749   0.49737   0.90075   0.90861
 Alpha virt. eigenvalues --    0.91185   1.08661   1.08662   1.14698   1.60133
 Alpha virt. eigenvalues --    1.84084   1.88443   1.88444   2.39943   3.65273

  Beta  occ. eigenvalues --  -24.72728  -1.12859  -0.46303  -0.43049  -0.43035
  Beta virt. eigenvalues --   -0.26060   0.09164   0.20184   0.49960   0.92314
  Beta virt. eigenvalues --    0.92341   0.98613   1.08907   1.08907   1.18849
  Beta virt. eigenvalues --    1.60595   1.84295   1.88553   1.88553   2.40245

 Mulliken charges and spin densities:
               1          2
     1  H   -0.014039  -0.011566
     2  H    0.021801   0.029960
     3  F   -0.007762   0.981606
 Sum of Mulliken charges =   0.00000   1.00000

 Dipole moment (field-independent basis, Debye):
    X=             -0.1528    Y=             -0.0000    Z=              0.0004  Tot=              0.1528
 Quadrupole moment (field-independent basis, Debye-Ang):
   XX=             -5.6471   YY=             -6.7988   ZZ=             -6.7862
   XY=             -0.0039   XZ=              0.1008   YZ=             -0.0005

  Exact polarizability:      14.719       0.002       1.963       0.168      -0.000       1.981
 Approx polarizability:      12.082      -0.001       2.051       0.036      -0.000       2.059

 ******    3 imaginary frequencies (negative Signs) ******

                      1                      2                      3
                      A                      A                      A
 Frequencies --  -2079.9085             -1890.4314              -177.0149
 Red. masses --      1.0095                 1.0094                 1.1084
 Frc consts  --      2.5729                 2.1254                 0.0205
 IR Inten    --     52.3988                 1.1044                15.9147

                      4
                      A
 Frequencies --   5949.9972
 Red. masses --      1.0078
 Frc consts  --     21.0218
 IR Inten    --     86.9188

 - Thermochemistry -
 -------------------
 Temperature   298.150 Kelvin.  Pressure   1.00000 Atm.
 Atom     1 has atomic number  1 and mass   1.00783

 Molecular mass:    21.01405 amu.
 Principal axes and moments of inertia in atomic units:
                           1         2         3
     Eigenvalues --     0.00000  43.90968  43.90968
           X            1.00000  -0.00000   0.00000
           Y            0.00000   1.00000   0.00000
           Z            0.00000   0.00000   1.00000
 This molecule is a prolate symmetric top.
 Rotational symmetry number  1.
 Rotational temperature (Kelvin)      1.97255
 Rotational constant (GHZ):          41.101219
    3 imaginary frequencies ignored.
 Zero-point vibrational energy      35588.9 (Joules/Mol)
                                    8.50595 (Kcal/Mol)
 Vibrational temperatures:   8560.72
          (Kelvin)

 Zero-point correction=                           0.013555 (Hartree/Particle)
 Thermal correction to Energy=                    0.015916
 Thermal correction to Enthalpy=                  0.016860
 Thermal correction to Gibbs Free Energy=        -0.006139
 Sum of electronic and zero-point Energies=           -100.913024
 Sum of electronic and thermal Energies=              -100.910664
 Sum of electronic and thermal Enthalpies=            -100.909720
 Sum of electronic and thermal Free Energies=         -100.932718

                     E (Thermal)             CV                S
                      KCal/Mol        Cal/Mol-Kelvin    Cal/Mol-Kelvin
 Total                    9.987              4.968             48.405
 Electronic               0.000              0.000              1.377
 Translational            0.889              2.981             35.068
 Rotational               0.592              1.987             11.960
 Vibrational              8.506              0.000              0.000

 Normal termination of Gaussian 16 at Fri Aug 22 17:15:13 2025.
