 Gaussian 16, Revision C.01,
 Gaussian 16:  ES64L-G16RevC.01  3-Jul-2019

 -----------------------------------------
 # sp b3lyp/6-311g** Force nosymm scf=(qc)
 -----------------------------------------

 -------------------
 Title Card Required
 -------------------
 Symbolic Z-matrix:
 Charge =  0 Multiplicity = 2

                          Input orientation:
 ---------------------------------------------------------------------
 Center     Atomic      Atomic             Coordinates (Angstroms)
 Number     Number       Type             X           Y           Z
 ---------------------------------------------------------------------
      1          1           0        0.000000    0.000000    0.000000
      2          1           0       -3.450000    0.000000    0.000000
      3          9           0        3.000000    0.000000    0.000000
 ---------------------------------------------------------------------

 SCF Done:  E(UB3LYP) =  -100.761124981     a.u. after   22 cycles

 Alpha  occ. eigenvalues --  -24.74084  -1.20144  -0.53204  -0.44674  -0.44674
 Alpha  occ. eigenvalues --   -0.32556
 Alpha virt. eigenvalues --   -0.08229   0.24065   0.36034   0.89388   0.92276
 Alpha virt. eigenvalues --    0.92276   1.03905   1.24952   1.24952   1.25145
 Alpha virt. eigenvalues --    1.43828   1.43828   1.44123   2.14885   2.39942

  Beta  occ. eigenvalues --  -24.71057  -1.11469  -0.41644  -0.41644  -0.33736
  Beta virt. eigenvalues --   -0.24774  -0.06660   0.24019   0.37803   0.93737
  Beta virt. eigenvalues --    0.93737   0.98075   1.07636   1.23600   1.23600
  Beta virt. eigenvalues --    1.24099   1.45712   1.45973   1.45973   2.15068

 Mulliken charges and spin densities:
               1          2
     1  H    0.036628  -0.956885
     2  H    0.000511   0.997661
     3  F   -0.037139   0.959224
 Sum of Mulliken charges =  -0.00000   1.00000

 Dipole moment (field-independent basis, Debye):
    X=             -0.5807    Y=             -0.0000    Z=             -0.0000  Tot=              0.5807
 Quadrupole moment (field-independent basis, Debye-Ang):
   XX=             -8.2978   YY=             -7.6103   ZZ=             -7.6103
   XY=              0.0000   XZ=              0.0000   YZ=             -0.0000

  Exact polarizability:      32.063       0.000       2.025       0.000      -0.000       2.025
 Approx polarizability:      32.519       0.000       1.926       0.000       0.000       1.926

 ******    2 imaginary frequencies (negative Signs) ******

                      1                      2                      3
                      A                      A                      A
 Frequencies --   -382.1927              -124.1619               135.3613
 Red. masses --      1.0450                 1.0668                 1.0197
 Frc consts  --      0.0899                 0.0097                 0.0110
 IR Inten    --     39.0546                 0.8313                 1.2509

                      4
                      A
 Frequencies --    135.3613
 Red. masses --      1.0197
 Frc consts  --      0.0110
 IR Inten    --      1.2509

 - Thermochemistry -
 -------------------
 Temperature   298.150 Kelvin.  Pressure   1.00000 Atm.
 Atom     1 has atomic number  1 and mass   1.00783

 Molecular mass:    21.01405 amu.
 Principal axes and moments of inertia in atomic units:
                           1         2         3
     Eigenvalues --     0.00000 166.70460 166.70460
           X            1.00000  -0.00000   0.00000
           Y            0.00000   1.00000   0.00000
           Z            0.00000   0.00000   1.00000
 This molecule is a prolate symmetric top.
 Rotational symmetry number  1.
 Rotational temperature (Kelvin)      0.51957
 Rotational constant (GHZ):          10.825983
    2 imaginary frequencies ignored.
 Zero-point vibrational energy       1619.3 (Joules/Mol)
                                    0.38702 (Kcal/Mol)
 Warning -- explicit consideration of   2 degrees of freedom as
           vibrations may cause significant error
 Vibrational temperatures:    194.75   194.75
          (Kelvin)

 Zero-point correction=                           0.000617 (Hartree/Particle)
 Thermal correction to Energy=                    0.004316
 Thermal correction to Enthalpy=                  0.005260
 Thermal correction to Gibbs Free Energy=        -0.021724
 Sum of electronic and zero-point Energies=           -100.760508
 Sum of electronic and thermal Energies=              -100.756809
 Sum of electronic and thermal Enthalpies=            -100.755865
 Sum of electronic and thermal Free Energies=         -100.782849

                     E (Thermal)             CV                S
                      KCal/Mol        Cal/Mol-Kelvin    Cal/Mol-Kelvin
 Total                    2.708              8.804             56.793
 Electronic               0.000              0.000              1.377
 Translational            0.889              2.981             35.068
 Rotational               0.592              1.987             14.611
 Vibrational              1.227              3.836              5.737
 Vibration     1          0.613              1.918              2.868
 Vibration     2          0.613              1.918              2.868

 Normal termination of Gaussian 16 at Fri Aug 22 19:33:06 2025.
