 Gaussian 16, Revision C.01,
 Gaussian 16:  ES64L-G16RevC.01  3-Jul-2019

 -----------------------------------------
 # sp b3lyp/6-311g** Force nosymm scf=(qc)
 -----------------------------------------

 -------------------
 Title Card Required
 -------------------
 Symbolic Z-matrix:
 Charge =  0 Multiplicity = 2

                          Input orientation:
 ---------------------------------------------------------------------
 Center     Atomic      Atomic             Coordinates (Angstroms)
 Number     Number       Type             X           Y           Z
 ---------------------------------------------------------------------
      1          1           0        0.000000    0.000000    0.000000
      2          1           0       -1.550000    0.000000    0.000000
      3          9           0        3.500000    0.000000    0.000000
 ---------------------------------------------------------------------

 SCF Done:  E(UB3LYP) =  -100.812836173     a.u. after  393 cycles

 Alpha  occ. eigenvalues --  -24.76371  -1.22249  -0.55449  -0.46640  -0.46603
 Alpha  occ. eigenvalues --   -0.33391
 Alpha virt. eigenvalues --   -0.10022   0.25210   0.30435   0.85943   0.90820
 Alpha virt. eigenvalues --    0.91984   1.01266   1.06920   1.21469   1.21471
 Alpha virt. eigenvalues --    1.40412   1.40416   1.78285   2.20891   2.45380

  Beta  occ. eigenvalues --  -24.73216  -1.13174  -0.43482  -0.43439  -0.33385
  Beta virt. eigenvalues --   -0.26093  -0.10043   0.25202   0.30505   0.92321
  Beta virt. eigenvalues --    0.93452   0.95410   1.05340   1.06933   1.21461
  Beta virt. eigenvalues --    1.21464   1.40407   1.40409   1.78328   2.21044

 Mulliken charges and spin densities:
               1          2
     1  H    0.000578  -0.333823
     2  H   -0.003161   0.333670
     3  F    0.002583   1.000153
 Sum of Mulliken charges =   0.00000   1.00000

 Dipole moment (field-independent basis, Debye):
    X=              0.0495    Y=             -0.0000    Z=              0.0000  Tot=              0.0495
 Quadrupole moment (field-independent basis, Debye-Ang):
   XX=             -6.3305   YY=             -7.7681   ZZ=             -6.9038
   XY=             -0.0000   XZ=             -0.0000   YZ=             -0.0010

  Exact polarizability:      23.328      -0.000       2.033       0.000      -0.001       2.461
 Approx polarizability:      42.469       0.000       2.020      -0.000      -0.001       2.602

 ******    2 imaginary frequencies (negative Signs) ******

                      1                      2                      3
                      A                      A                      A
 Frequencies --  -2128.4330               -33.3691              1136.1672
 Red. masses --      1.0078                 1.1085                 1.0110
 Frc consts  --      2.6900                 0.0007                 0.7690
 IR Inten    --      0.0669                 0.1739                 0.0026

                      4
                      A
 Frequencies --   1156.2235
 Red. masses --      1.0110
 Frc consts  --      0.7964
 IR Inten    --      0.0413

 - Thermochemistry -
 -------------------
 Temperature   298.150 Kelvin.  Pressure   1.00000 Atm.
 Atom     1 has atomic number  1 and mass   1.00783

 Molecular mass:    21.01405 amu.
 Principal axes and moments of inertia in atomic units:
                           1         2         3
     Eigenvalues --     0.00000 123.25357 123.25357
           X            1.00000  -0.00000   0.00000
           Y            0.00000   1.00000   0.00000
           Z            0.00000   0.00000   1.00000
 This molecule is a prolate symmetric top.
 Rotational symmetry number  1.
 Rotational temperature (Kelvin)      0.70273
 Rotational constant (GHZ):          14.642506
    2 imaginary frequencies ignored.
 Zero-point vibrational energy      13711.5 (Joules/Mol)
                                    3.27714 (Kcal/Mol)
 Vibrational temperatures:   1634.69  1663.55
          (Kelvin)

 Zero-point correction=                           0.005222 (Hartree/Particle)
 Thermal correction to Energy=                    0.007624
 Thermal correction to Enthalpy=                  0.008569
 Thermal correction to Gibbs Free Energy=        -0.015454
 Sum of electronic and zero-point Energies=           -100.807614
 Sum of electronic and thermal Energies=              -100.805212
 Sum of electronic and thermal Enthalpies=            -100.804268
 Sum of electronic and thermal Free Energies=         -100.828290

                     E (Thermal)             CV                S
                      KCal/Mol        Cal/Mol-Kelvin    Cal/Mol-Kelvin
 Total                    4.784              5.454             50.559
 Electronic               0.000              0.000              1.377
 Translational            0.889              2.981             35.068
 Rotational               0.592              1.987             14.011
 Vibrational              3.303              0.486              0.103

 Normal termination of Gaussian 16 at Fri Aug 22 22:05:50 2025.
