 Gaussian 16, Revision C.01,
 Gaussian 16:  ES64L-G16RevC.01  3-Jul-2019

 -----------------------------------------
 # sp b3lyp/6-311g** Force nosymm scf=(qc)
 -----------------------------------------

 -------------------
 Title Card Required
 -------------------
 Symbolic Z-matrix:
 Charge =  0 Multiplicity = 2

                          Input orientation:
 ---------------------------------------------------------------------
 Center     Atomic      Atomic             Coordinates (Angstroms)
 Number     Number       Type             X           Y           Z
 ---------------------------------------------------------------------
      1          1           0        0.000000    0.000000    0.000000
      2          1           0       -1.550000    0.000000    0.000000
      3          9           0        2.950000    0.000000    0.000000
 ---------------------------------------------------------------------

 SCF Done:  E(UB3LYP) =  -100.813681604     a.u. after   28 cycles

 Alpha  occ. eigenvalues --  -24.75041  -1.21034  -0.54176  -0.45492  -0.45492
 Alpha  occ. eigenvalues --   -0.34509
 Alpha virt. eigenvalues --   -0.10762   0.24544   0.30153   0.89624   0.91644
 Alpha virt. eigenvalues --    0.91644   1.04197   1.06232   1.20350   1.20350
 Alpha virt. eigenvalues --    1.39456   1.39456   1.77518   2.19896   2.45531

  Beta  occ. eigenvalues --  -24.71969  -1.12218  -0.42415  -0.42415  -0.34294
  Beta virt. eigenvalues --   -0.25551  -0.10463   0.25004   0.30419   0.93113
  Beta virt. eigenvalues --    0.93113   0.98238   1.06078   1.08776   1.20587
  Beta virt. eigenvalues --    1.20587   1.39678   1.39678   1.77903   2.20606

 Mulliken charges and spin densities:
               1          2
     1  H    0.001410  -0.363527
     2  H    0.020306   0.390206
     3  F   -0.021716   0.973321
 Sum of Mulliken charges =   0.00000   1.00000

 Dipole moment (field-independent basis, Debye):
    X=             -0.4757    Y=              0.0000    Z=             -0.0000  Tot=              0.4757
 Quadrupole moment (field-independent basis, Debye-Ang):
   XX=             -6.3035   YY=             -7.7360   ZZ=             -7.7360
   XY=              0.0000   XZ=             -0.0000   YZ=             -0.0000

  Exact polarizability:      54.056       0.000       2.077      -0.000      -0.000       2.077
 Approx polarizability:      68.356       0.000       2.014      -0.000       0.000       2.014

 ******    2 imaginary frequencies (negative Signs) ******

                      1                      2                      3
                      A                      A                      A
 Frequencies --  -2097.0490              -200.3880              1105.0254
 Red. masses --      1.0079                 1.1084                 1.0120
 Frc consts  --      2.6115                 0.0262                 0.7281
 IR Inten    --    243.6998                19.1906                 0.0036

                      4
                      A
 Frequencies --   1105.0256
 Red. masses --      1.0120
 Frc consts  --      0.7281
 IR Inten    --      0.0036

 - Thermochemistry -
 -------------------
 Temperature   298.150 Kelvin.  Pressure   1.00000 Atm.
 Atom     1 has atomic number  1 and mass   1.00783

 Molecular mass:    21.01405 amu.
 Principal axes and moments of inertia in atomic units:
                           1         2         3
     Eigenvalues --     0.00000  94.62018  94.62018
           X            1.00000  -0.00000   0.00000
           Y            0.00000   1.00000   0.00000
           Z            0.00000   0.00000   1.00000
 This molecule is a prolate symmetric top.
 Rotational symmetry number  1.
 Rotational temperature (Kelvin)      0.91539
 Rotational constant (GHZ):          19.073534
    2 imaginary frequencies ignored.
 Zero-point vibrational energy      13219.0 (Joules/Mol)
                                    3.15943 (Kcal/Mol)
 Vibrational temperatures:   1589.89  1589.89
          (Kelvin)

 Zero-point correction=                           0.005035 (Hartree/Particle)
 Thermal correction to Energy=                    0.007444
 Thermal correction to Enthalpy=                  0.008388
 Thermal correction to Gibbs Free Energy=        -0.015393
 Sum of electronic and zero-point Energies=           -100.808647
 Sum of electronic and thermal Energies=              -100.806237
 Sum of electronic and thermal Enthalpies=            -100.805293
 Sum of electronic and thermal Free Energies=         -100.829075

                     E (Thermal)             CV                S
                      KCal/Mol        Cal/Mol-Kelvin    Cal/Mol-Kelvin
 Total                    4.671              5.519             50.053
 Electronic               0.000              0.000              1.377
 Translational            0.889              2.981             35.068
 Rotational               0.592              1.987             13.485
 Vibrational              3.190              0.551              0.122

 Normal termination of Gaussian 16 at Fri Aug 22 19:16:38 2025.
