 Gaussian 16, Revision C.01,
 Gaussian 16:  ES64L-G16RevC.01  3-Jul-2019

 -----------------------------------------
 # sp b3lyp/6-311g** Force nosymm scf=(qc)
 -----------------------------------------

 -------------------
 Title Card Required
 -------------------
 Symbolic Z-matrix:
 Charge =  0 Multiplicity = 2

                          Input orientation:
 ---------------------------------------------------------------------
 Center     Atomic      Atomic             Coordinates (Angstroms)
 Number     Number       Type             X           Y           Z
 ---------------------------------------------------------------------
      1          1           0        0.000000    0.000000    0.000000
      2          1           0       -1.300000    0.000000    0.000000
      3          9           0        2.000000    0.000000    0.000000
 ---------------------------------------------------------------------

 SCF Done:  E(UB3LYP) =  -100.862622261     a.u. after   13 cycles

 Alpha  occ. eigenvalues --  -24.71371  -1.17686  -0.51047  -0.42483  -0.42483
 Alpha  occ. eigenvalues --   -0.38673
 Alpha virt. eigenvalues --   -0.06913   0.21978   0.32564   0.87661   0.92756
 Alpha virt. eigenvalues --    0.92756   1.04668   1.12278   1.12278   1.34318
 Alpha virt. eigenvalues --    1.46649   1.46649   1.98519   2.25562   2.51187

  Beta  occ. eigenvalues --  -24.68648  -1.09999  -0.39782  -0.39782  -0.38263
  Beta virt. eigenvalues --   -0.24445  -0.05175   0.23264   0.32925   0.93337
  Beta virt. eigenvalues --    0.93921   0.93921   1.08071   1.13820   1.13820
  Beta virt. eigenvalues --    1.37974   1.47614   1.47614   2.00258   2.26836

 Mulliken charges and spin densities:
               1          2
     1  H    0.057333  -0.181001
     2  H    0.056566   0.327020
     3  F   -0.113899   0.853981
 Sum of Mulliken charges =  -0.00000   1.00000

 Dipole moment (field-independent basis, Debye):
    X=             -1.4706    Y=              0.0000    Z=             -0.0000  Tot=              1.4706
 Quadrupole moment (field-independent basis, Debye-Ang):
   XX=             -7.1575   YY=             -7.4433   ZZ=             -7.4433
   XY=             -0.0000   XZ=              0.0000   YZ=              0.0000

  Exact polarizability:      46.092      -0.000       2.160       0.000      -0.000       2.160
 Approx polarizability:      69.714       0.000       2.139      -0.000      -0.000       2.139

 ******    2 imaginary frequencies (negative Signs) ******

                      1                      2                      3
                      A                      A                      A
 Frequencies --  -1837.0620              -321.2765              1292.2437
 Red. masses --      1.0138                 1.1013                 1.0136
 Frc consts  --      2.0159                 0.0670                 0.9972
 IR Inten    --   1120.1692                 2.5919                 0.3694

                      4
                      A
 Frequencies --   1292.2437
 Red. masses --      1.0136
 Frc consts  --      0.9972
 IR Inten    --      0.3694

 - Thermochemistry -
 -------------------
 Temperature   298.150 Kelvin.  Pressure   1.00000 Atm.
 Atom     1 has atomic number  1 and mass   1.00783

 Molecular mass:    21.01405 amu.
 Principal axes and moments of inertia in atomic units:
                           1         2         3
     Eigenvalues --     0.00000  48.74071  48.74071
           X            1.00000  -0.00000   0.00000
           Y            0.00000   1.00000   0.00000
           Z            0.00000   0.00000   1.00000
 This molecule is a prolate symmetric top.
 Rotational symmetry number  1.
 Rotational temperature (Kelvin)      1.77703
 Rotational constant (GHZ):          37.027389
    2 imaginary frequencies ignored.
 Zero-point vibrational energy      15458.7 (Joules/Mol)
                                    3.69471 (Kcal/Mol)
 Vibrational temperatures:   1859.25  1859.25
          (Kelvin)

 Zero-point correction=                           0.005888 (Hartree/Particle)
 Thermal correction to Energy=                    0.008271
 Thermal correction to Enthalpy=                  0.009216
 Thermal correction to Gibbs Free Energy=        -0.013908
 Sum of electronic and zero-point Energies=           -100.856734
 Sum of electronic and thermal Energies=              -100.854351
 Sum of electronic and thermal Enthalpies=            -100.853407
 Sum of electronic and thermal Free Energies=         -100.876531

                     E (Thermal)             CV                S
                      KCal/Mol        Cal/Mol-Kelvin    Cal/Mol-Kelvin
 Total                    5.190              5.272             48.669
 Electronic               0.000              0.000              1.377
 Translational            0.889              2.981             35.068
 Rotational               0.592              1.987             12.167
 Vibrational              3.709              0.304              0.056

 Normal termination of Gaussian 16 at Fri Aug 22 16:55:51 2025.
