 Gaussian 16, Revision C.01,
 Gaussian 16:  ES64L-G16RevC.01  3-Jul-2019

 -----------------------------------------
 # sp b3lyp/6-311g** Force nosymm scf=(qc)
 -----------------------------------------

 -------------------
 Title Card Required
 -------------------
 Symbolic Z-matrix:
 Charge =  0 Multiplicity = 2

                          Input orientation:
 ---------------------------------------------------------------------
 Center     Atomic      Atomic             Coordinates (Angstroms)
 Number     Number       Type             X           Y           Z
 ---------------------------------------------------------------------
      1          1           0        0.000000    0.000000    0.000000
      2          1           0       -0.500000    0.000000    0.000000
      3          9           0        3.000000    0.000000    0.000000
 ---------------------------------------------------------------------

 SCF Done:  E(UB3LYP) =  -100.862186713     a.u. after   38 cycles

 Alpha  occ. eigenvalues --  -24.76559  -1.22356  -0.55551  -0.49219  -0.46700
 Alpha  occ. eigenvalues --   -0.46685
 Alpha virt. eigenvalues --    0.10381   0.18500   0.56411   0.85916   0.90788
 Alpha virt. eigenvalues --    0.94009   1.07602   1.12179   1.12187   1.62048
 Alpha virt. eigenvalues --    1.86227   1.99714   1.99723   2.36809   3.64713

  Beta  occ. eigenvalues --  -24.73397  -1.13268  -0.49182  -0.43547  -0.43530
  Beta virt. eigenvalues --   -0.26172   0.10446   0.18537   0.56539   0.92286
  Beta virt. eigenvalues --    0.95373   0.95906   1.11133   1.12179   1.12187
  Beta virt. eigenvalues --    1.62076   1.86264   1.99713   1.99723   2.36814

 Mulliken charges and spin densities:
               1          2
     1  H   -0.009669  -0.001897
     2  H   -0.000670   0.000473
     3  F    0.010339   1.001424
 Sum of Mulliken charges =   0.00000   1.00000

 Dipole moment (field-independent basis, Debye):
    X=              0.0894    Y=              0.0000    Z=              0.0000  Tot=              0.0894
 Quadrupole moment (field-independent basis, Debye-Ang):
   XX=             -5.9645   YY=             -6.4001   ZZ=             -5.9282
   XY=              0.0000   XZ=              0.0000   YZ=              0.3616

  Exact polarizability:       5.819       0.000       1.912       0.000       0.193       2.163
 Approx polarizability:       6.084       0.000       2.020       0.000       0.241       2.335

 ******    2 imaginary frequencies (negative Signs) ******

                      1                      2                      3
                      A                      A                      A
 Frequencies --  -4823.4206             -4823.2137                68.0502
 Red. masses --      1.0084                 1.0084                 1.1085
 Frc consts  --     13.8230                13.8218                 0.0030
 IR Inten    --      0.0736                 0.0742                 0.1465

                      4
                      A
 Frequencies --   9960.3811
 Red. masses --      1.0078
 Frc consts  --     58.9098
 IR Inten    --      0.2707

 - Thermochemistry -
 -------------------
 Temperature   298.150 Kelvin.  Pressure   1.00000 Atm.
 Atom     1 has atomic number  1 and mass   1.00783

 Molecular mass:    21.01405 amu.
 Principal axes and moments of inertia in atomic units:
                           1         2         3
     Eigenvalues --     0.00000  69.18629  69.18629
           X            1.00000  -0.00000   0.00000
           Y            0.00000   1.00000   0.00000
           Z            0.00000   0.00000   1.00000
 This molecule is a prolate symmetric top.
 Rotational symmetry number  1.
 Rotational temperature (Kelvin)      1.25189
 Rotational constant (GHZ):          26.085243
    2 imaginary frequencies ignored.
 Zero-point vibrational energy      59983.3 (Joules/Mol)
                                   14.33636 (Kcal/Mol)
 Warning -- explicit consideration of   1 degrees of freedom as
           vibrations may cause significant error
 Vibrational temperatures:     97.91 14330.77
          (Kelvin)

 Zero-point correction=                           0.022846 (Hartree/Particle)
 Thermal correction to Energy=                    0.026005
 Thermal correction to Enthalpy=                  0.026949
 Thermal correction to Gibbs Free Energy=         0.001521
 Sum of electronic and zero-point Energies=           -100.839340
 Sum of electronic and thermal Energies=              -100.836182
 Sum of electronic and thermal Enthalpies=            -100.835238
 Sum of electronic and thermal Free Energies=         -100.860666

                     E (Thermal)             CV                S
                      KCal/Mol        Cal/Mol-Kelvin    Cal/Mol-Kelvin
 Total                   16.318              6.937             53.517
 Electronic               0.000              0.000              1.377
 Translational            0.889              2.981             35.068
 Rotational               0.592              1.987             12.863
 Vibrational             14.837              1.969              4.209
 Vibration     1          0.598              1.969              4.209

 Normal termination of Gaussian 16 at Fri Aug 22 19:19:36 2025.
