 Gaussian 16, Revision C.01,
 Gaussian 16:  ES64L-G16RevC.01  3-Jul-2019

 -----------------------------------------
 # sp b3lyp/6-311g** Force nosymm scf=(qc)
 -----------------------------------------

 -------------------
 Title Card Required
 -------------------
 Symbolic Z-matrix:
 Charge =  0 Multiplicity = 2

                          Input orientation:
 ---------------------------------------------------------------------
 Center     Atomic      Atomic             Coordinates (Angstroms)
 Number     Number       Type             X           Y           Z
 ---------------------------------------------------------------------
      1          1           0        0.000000    0.000000    0.000000
      2          1           0       -2.450000    0.000000    0.000000
      3          9           0        0.900000    0.000000    0.000000
 ---------------------------------------------------------------------

 SCF Done:  E(UB3LYP) =  -100.971807648     a.u. after    5 cycles

 Alpha  occ. eigenvalues --  -24.63884  -1.18952  -0.53825  -0.39556  -0.39556
 Alpha  occ. eigenvalues --   -0.34919
 Alpha virt. eigenvalues --    0.04599   0.25220   0.39428   0.94426   0.94426
 Alpha virt. eigenvalues --    0.97611   1.18528   1.22632   1.22632   1.37367
 Alpha virt. eigenvalues --    1.37367   1.40480   2.01117   2.13736   2.37519

  Beta  occ. eigenvalues --  -24.63866  -1.18904  -0.53744  -0.39540  -0.39540
  Beta virt. eigenvalues --   -0.09570   0.06272   0.36763   0.39903   0.94428
  Beta virt. eigenvalues --    0.94428   0.97746   1.28246   1.37331   1.37331
  Beta virt. eigenvalues --    1.44320   1.44320   1.53270   2.01056   2.36612

 Mulliken charges and spin densities:
               1          2
     1  H    0.290375   0.003766
     2  H    0.006511   0.990536
     3  F   -0.296886   0.005698
 Sum of Mulliken charges =   0.00000   1.00000

 Dipole moment (field-independent basis, Debye):
    X=             -1.9664    Y=             -0.0000    Z=             -0.0000  Tot=              1.9664
 Quadrupole moment (field-independent basis, Debye-Ang):
   XX=             -7.6792   YY=             -6.8598   ZZ=             -6.8598
   XY=             -0.0000   XZ=             -0.0000   YZ=             -0.0000

  Exact polarizability:       7.587      -0.000       2.457       0.000       0.000       2.457
 Approx polarizability:       8.228       0.000       2.439       0.000       0.000       2.439

 ******    2 imaginary frequencies (negative Signs) ******

                      1                      2                      3
                      A                      A                      A
 Frequencies --   -626.0439              -626.0439                40.2948
 Red. masses --      1.0330                 1.0330                 1.0531
 Frc consts  --      0.2385                 0.2385                 0.0010
 IR Inten    --    165.7484               165.7484                 0.6897

                      4
                      A
 Frequencies --   4424.0943
 Red. masses --      1.0584
 Frc consts  --     12.2058
 IR Inten    --    131.5653

 - Thermochemistry -
 -------------------
 Temperature   298.150 Kelvin.  Pressure   1.00000 Atm.
 Atom     1 has atomic number  1 and mass   1.00783

 Molecular mass:    21.01405 amu.
 Principal axes and moments of inertia in atomic units:
                           1         2         3
     Eigenvalues --     0.00000  40.18736  40.18736
           X            1.00000  -0.00000   0.00000
           Y            0.00000   1.00000   0.00000
           Z            0.00000   0.00000   1.00000
 This molecule is a prolate symmetric top.
 Rotational symmetry number  1.
 Rotational temperature (Kelvin)      2.15525
 Rotational constant (GHZ):          44.908183
    2 imaginary frequencies ignored.
 Zero-point vibrational energy      26703.0 (Joules/Mol)
                                    6.38216 (Kcal/Mol)
 Warning -- explicit consideration of   1 degrees of freedom as
           vibrations may cause significant error
 Vibrational temperatures:     57.98  6365.28
          (Kelvin)

 Zero-point correction=                           0.010171 (Hartree/Particle)
 Thermal correction to Energy=                    0.013386
 Thermal correction to Enthalpy=                  0.014331
 Thermal correction to Gibbs Free Energy=        -0.011076
 Sum of electronic and zero-point Energies=           -100.961637
 Sum of electronic and thermal Energies=              -100.958421
 Sum of electronic and thermal Enthalpies=            -100.957477
 Sum of electronic and thermal Free Energies=         -100.982884

                     E (Thermal)             CV                S
                      KCal/Mol        Cal/Mol-Kelvin    Cal/Mol-Kelvin
 Total                    8.400              6.949             53.473
 Electronic               0.000              0.000              1.377
 Translational            0.889              2.981             35.068
 Rotational               0.592              1.987             11.784
 Vibrational              6.919              1.981              5.245
 Vibration     1          0.594              1.981              5.245

 Normal termination of Gaussian 16 at Fri Aug 22 15:56:07 2025.
