 Gaussian 16, Revision C.01,
 Gaussian 16:  ES64L-G16RevC.01  3-Jul-2019

 -----------------------------------------
 # sp b3lyp/6-311g** Force nosymm scf=(qc)
 -----------------------------------------

 -------------------
 Title Card Required
 -------------------
 Symbolic Z-matrix:
 Charge =  0 Multiplicity = 2

                          Input orientation:
 ---------------------------------------------------------------------
 Center     Atomic      Atomic             Coordinates (Angstroms)
 Number     Number       Type             X           Y           Z
 ---------------------------------------------------------------------
      1          1           0        0.000000    0.000000    0.000000
      2          1           0       -1.900000    0.000000    0.000000
      3          9           0        2.500000    0.000000    0.000000
 ---------------------------------------------------------------------

 SCF Done:  E(UB3LYP) =  -100.786742936     a.u. after   20 cycles

 Alpha  occ. eigenvalues --  -24.72015  -1.18203  -0.51130  -0.42928  -0.42928
 Alpha  occ. eigenvalues --   -0.35051
 Alpha virt. eigenvalues --   -0.12706   0.24690   0.31650   0.89696   0.93475
 Alpha virt. eigenvalues --    0.93475   1.05068   1.17982   1.22809   1.22809
 Alpha virt. eigenvalues --    1.34958   1.34958   1.53684   2.11588   2.36344

  Beta  occ. eigenvalues --  -24.69155  -1.10056  -0.40076  -0.40076  -0.35151
  Beta virt. eigenvalues --   -0.23748  -0.11788   0.26543   0.31365   0.94848
  Beta virt. eigenvalues --    0.94848   0.96387   1.07951   1.21066   1.22885
  Beta virt. eigenvalues --    1.22885   1.36319   1.36319   1.54318   2.12419

 Mulliken charges and spin densities:
               1          2
     1  H    0.049688  -0.723995
     2  H    0.032767   0.820132
     3  F   -0.082454   0.903862
 Sum of Mulliken charges =   0.00000   1.00000

 Dipole moment (field-independent basis, Debye):
    X=             -1.3478    Y=             -0.0000    Z=             -0.0000  Tot=              1.3478
 Quadrupole moment (field-independent basis, Debye-Ang):
   XX=             -7.9676   YY=             -7.6710   ZZ=             -7.6710
   XY=             -0.0000   XZ=             -0.0000   YZ=             -0.0000

  Exact polarizability:      61.304       0.000       2.011       0.000       0.000       2.011
 Approx polarizability:      68.452       0.000       1.939       0.000       0.000       1.939

 ******    2 imaginary frequencies (negative Signs) ******

                      1                      2                      3
                      A                      A                      A
 Frequencies --  -1571.5499              -387.9351               651.7763
 Red. masses --      1.0088                 1.1073                 1.0150
 Frc consts  --      1.4680                 0.0982                 0.2540
 IR Inten    --    109.5661                51.1986                 1.0892

                      4
                      A
 Frequencies --    651.7763
 Red. masses --      1.0150
 Frc consts  --      0.2540
 IR Inten    --      1.0892

 - Thermochemistry -
 -------------------
 Temperature   298.150 Kelvin.  Pressure   1.00000 Atm.
 Atom     1 has atomic number  1 and mass   1.00783

 Molecular mass:    21.01405 amu.
 Principal axes and moments of inertia in atomic units:
                           1         2         3
     Eigenvalues --     0.00000  83.95279  83.95279
           X            1.00000  -0.00000   0.00000
           Y            0.00000   1.00000   0.00000
           Z            0.00000   0.00000   1.00000
 This molecule is a prolate symmetric top.
 Rotational symmetry number  1.
 Rotational temperature (Kelvin)      1.03170
 Rotational constant (GHZ):          21.497095
    2 imaginary frequencies ignored.
 Zero-point vibrational energy       7797.0 (Joules/Mol)
                                    1.86352 (Kcal/Mol)
 Vibrational temperatures:    937.76   937.76
          (Kelvin)

 Zero-point correction=                           0.002970 (Hartree/Particle)
 Thermal correction to Energy=                    0.005597
 Thermal correction to Enthalpy=                  0.006542
 Thermal correction to Gibbs Free Energy=        -0.017419
 Sum of electronic and zero-point Energies=           -100.783773
 Sum of electronic and thermal Energies=              -100.781146
 Sum of electronic and thermal Enthalpies=            -100.780201
 Sum of electronic and thermal Free Energies=         -100.804162

                     E (Thermal)             CV                S
                      KCal/Mol        Cal/Mol-Kelvin    Cal/Mol-Kelvin
 Total                    3.512              6.817             50.430
 Electronic               0.000              0.000              1.377
 Translational            0.889              2.981             35.068
 Rotational               0.592              1.987             13.247
 Vibrational              2.031              1.849              0.737

 Normal termination of Gaussian 16 at Fri Aug 22 17:44:41 2025.
