 Gaussian 16, Revision C.01,
 Gaussian 16:  ES64L-G16RevC.01  3-Jul-2019

 -----------------------------------------
 # sp b3lyp/6-311g** Force nosymm scf=(qc)
 -----------------------------------------

 -------------------
 Title Card Required
 -------------------
 Symbolic Z-matrix:
 Charge =  0 Multiplicity = 2

                          Input orientation:
 ---------------------------------------------------------------------
 Center     Atomic      Atomic             Coordinates (Angstroms)
 Number     Number       Type             X           Y           Z
 ---------------------------------------------------------------------
      1          1           0        0.000000    0.000000    0.000000
      2          1           0       -0.500000    0.000000    0.000000
      3          9           0        0.900000    0.000000    0.000000
 ---------------------------------------------------------------------

 SCF Done:  E(UB3LYP) =  -100.770493068     a.u. after    6 cycles

 Alpha  occ. eigenvalues --  -24.68188  -1.26451  -0.70645  -0.43831  -0.43831
 Alpha  occ. eigenvalues --   -0.31250
 Alpha virt. eigenvalues --    0.14671   0.18010   0.74084   0.85955   0.85955
 Alpha virt. eigenvalues --    0.92496   1.13383   1.13383   1.49548   1.70619
 Alpha virt. eigenvalues --    1.87957   1.92628   1.92628   2.95900   3.77135

  Beta  occ. eigenvalues --  -24.66406  -1.21838  -0.63198  -0.42235  -0.42235
  Beta virt. eigenvalues --   -0.13175   0.17391   0.18613   0.78545   0.87894
  Beta virt. eigenvalues --    0.87894   0.96071   1.17281   1.17281   1.51493
  Beta virt. eigenvalues --    1.76067   1.92389   1.96951   1.96951   3.01833

 Mulliken charges and spin densities:
               1          2
     1  H    0.274840  -0.036394
     2  H   -0.111240   0.636191
     3  F   -0.163600   0.400204
 Sum of Mulliken charges =   0.00000   1.00000

 Dipole moment (field-independent basis, Debye):
    X=             -0.9956    Y=             -0.0000    Z=             -0.0000  Tot=              0.9956
 Quadrupole moment (field-independent basis, Debye-Ang):
   XX=             -7.3172   YY=             -6.3391   ZZ=             -6.3391
   XY=             -0.0000   XZ=             -0.0000   YZ=              0.0000

  Exact polarizability:      10.287      -0.000       2.459       0.000      -0.000       2.459
 Approx polarizability:      11.419      -0.000       2.548      -0.000      -0.000       2.548

 ******    2 imaginary frequencies (negative Signs) ******

                      1                      2                      3
                      A                      A                      A
 Frequencies --  -5479.9034             -5479.9034              3252.7363
 Red. masses --      1.0124                 1.0124                 1.1084
 Frc consts  --     17.9120                17.9120                 6.9093
 IR Inten    --     33.8160                33.8160               117.9255

                      4
                      A
 Frequencies --   9868.1622
 Red. masses --      1.0079
 Frc consts  --     57.8309
 IR Inten    --     10.7479

 - Thermochemistry -
 -------------------
 Temperature   298.150 Kelvin.  Pressure   1.00000 Atm.
 Atom     1 has atomic number  1 and mass   1.00783

 Molecular mass:    21.01405 amu.
 Principal axes and moments of inertia in atomic units:
                           1         2         3
     Eigenvalues --     0.00000   9.05616   9.05616
           X            1.00000  -0.00000   0.00000
           Y            0.00000   1.00000   0.00000
           Z            0.00000   0.00000   1.00000
 This molecule is a prolate symmetric top.
 Rotational symmetry number  1.
 Rotational temperature (Kelvin)      9.56409
 Rotational constant (GHZ):         199.283205
    2 imaginary frequencies ignored.
 Zero-point vibrational energy      78480.4 (Joules/Mol)
                                   18.75727 (Kcal/Mol)
 Vibrational temperatures:   4679.96 14198.08
          (Kelvin)

 Zero-point correction=                           0.029892 (Hartree/Particle)
 Thermal correction to Energy=                    0.032252
 Thermal correction to Enthalpy=                  0.033196
 Thermal correction to Gibbs Free Energy=         0.011688
 Sum of electronic and zero-point Energies=           -100.740601
 Sum of electronic and thermal Energies=              -100.738241
 Sum of electronic and thermal Enthalpies=            -100.737297
 Sum of electronic and thermal Free Energies=         -100.758805

                     E (Thermal)             CV                S
                      KCal/Mol        Cal/Mol-Kelvin    Cal/Mol-Kelvin
 Total                   20.238              4.968             45.268
 Electronic               0.000              0.000              1.377
 Translational            0.889              2.981             35.068
 Rotational               0.592              1.987              8.822
 Vibrational             18.757              0.000              0.000

 Normal termination of Gaussian 16 at Fri Aug 22 15:54:46 2025.
