 Gaussian 16, Revision C.01,
 Gaussian 16:  ES64L-G16RevC.01  3-Jul-2019

 -----------------------------------------
 # sp b3lyp/6-311g** Force nosymm scf=(qc)
 -----------------------------------------

 -------------------
 Title Card Required
 -------------------
 Symbolic Z-matrix:
 Charge =  0 Multiplicity = 2

                          Input orientation:
 ---------------------------------------------------------------------
 Center     Atomic      Atomic             Coordinates (Angstroms)
 Number     Number       Type             X           Y           Z
 ---------------------------------------------------------------------
      1          1           0        0.000000    0.000000    0.000000
      2          1           0       -3.500000    0.000000    0.000000
      3          9           0        2.100000    0.000000    0.000000
 ---------------------------------------------------------------------

 SCF Done:  E(UB3LYP) =  -100.781334899     a.u. after   17 cycles

 Alpha  occ. eigenvalues --  -24.69025  -1.15348  -0.48052  -0.40436  -0.40436
 Alpha  occ. eigenvalues --   -0.33319
 Alpha virt. eigenvalues --   -0.12985   0.22645   0.32802   0.88361   0.94712
 Alpha virt. eigenvalues --    0.94712   1.05825   1.24194   1.24194   1.24315
 Alpha virt. eigenvalues --    1.36466   1.36466   1.55803   2.14087   2.31124

  Beta  occ. eigenvalues --  -24.66509  -1.08281  -0.37949  -0.37949  -0.37330
  Beta virt. eigenvalues --   -0.21387  -0.06946   0.22975   0.37882   0.90459
  Beta virt. eigenvalues --    0.95604   0.95604   1.08173   1.21608   1.21608
  Beta virt. eigenvalues --    1.45136   1.45869   1.45869   1.47890   2.11818

 Mulliken charges and spin densities:
               1          2
     1  H    0.165872  -0.789287
     2  H    0.001451   0.997726
     3  F   -0.167322   0.791562
 Sum of Mulliken charges =  -0.00000   1.00000

 Dipole moment (field-independent basis, Debye):
    X=             -1.7728    Y=             -0.0000    Z=              0.0000  Tot=              1.7728
 Quadrupole moment (field-independent basis, Debye-Ang):
   XX=             -9.9147   YY=             -7.5101   ZZ=             -7.5101
   XY=             -0.0000   XZ=              0.0000   YZ=              0.0000

  Exact polarizability:      27.132      -0.000       2.049       0.000       0.000       2.049
 Approx polarizability:      38.024      -0.000       1.936       0.000      -0.000       1.936

 ******    2 imaginary frequencies (negative Signs) ******

                      1                      2                      3
                      A                      A                      A
 Frequencies --   -985.8344              -120.5801               414.8710
 Red. masses --      1.0567                 1.0549                 1.0251
 Frc consts  --      0.6051                 0.0090                 0.1040
 IR Inten    --    113.1858                 0.2556                25.9108

                      4
                      A
 Frequencies --    414.8710
 Red. masses --      1.0251
 Frc consts  --      0.1040
 IR Inten    --     25.9108

 - Thermochemistry -
 -------------------
 Temperature   298.150 Kelvin.  Pressure   1.00000 Atm.
 Atom     1 has atomic number  1 and mass   1.00783

 Molecular mass:    21.01405 amu.
 Principal axes and moments of inertia in atomic units:
                           1         2         3
     Eigenvalues --     0.00000 118.50267 118.50267
           X            1.00000  -0.00000   0.00000
           Y            0.00000   1.00000   0.00000
           Z            0.00000   0.00000   1.00000
 This molecule is a prolate symmetric top.
 Rotational symmetry number  1.
 Rotational temperature (Kelvin)      0.73090
 Rotational constant (GHZ):          15.229540
    2 imaginary frequencies ignored.
 Zero-point vibrational energy       4963.0 (Joules/Mol)
                                    1.18618 (Kcal/Mol)
 Warning -- explicit consideration of   2 degrees of freedom as
           vibrations may cause significant error
 Vibrational temperatures:    596.91   596.91
          (Kelvin)

 Zero-point correction=                           0.001890 (Hartree/Particle)
 Thermal correction to Energy=                    0.004841
 Thermal correction to Enthalpy=                  0.005785
 Thermal correction to Gibbs Free Energy=        -0.019015
 Sum of electronic and zero-point Energies=           -100.779445
 Sum of electronic and thermal Energies=              -100.776494
 Sum of electronic and thermal Enthalpies=            -100.775550
 Sum of electronic and thermal Free Energies=         -100.800350

                     E (Thermal)             CV                S
                      KCal/Mol        Cal/Mol-Kelvin    Cal/Mol-Kelvin
 Total                    3.038              7.844             52.197
 Electronic               0.000              0.000              1.377
 Translational            0.889              2.981             35.068
 Rotational               0.592              1.987             13.932
 Vibrational              1.557              2.876              1.819
 Vibration     1          0.778              1.438              0.910
 Vibration     2          0.778              1.438              0.910

 Normal termination of Gaussian 16 at Fri Aug 22 17:05:17 2025.
