 Gaussian 16, Revision C.01,
 Gaussian 16:  ES64L-G16RevC.01  3-Jul-2019

 -----------------------------------------
 # sp b3lyp/6-311g** Force nosymm scf=(qc)
 -----------------------------------------

 -------------------
 Title Card Required
 -------------------
 Symbolic Z-matrix:
 Charge =  0 Multiplicity = 2

                          Input orientation:
 ---------------------------------------------------------------------
 Center     Atomic      Atomic             Coordinates (Angstroms)
 Number     Number       Type             X           Y           Z
 ---------------------------------------------------------------------
      1          1           0        0.000000    0.000000    0.000000
      2          1           0       -1.350000    0.000000    0.000000
      3          9           0        1.750000    0.000000    0.000000
 ---------------------------------------------------------------------

 SCF Done:  E(UB3LYP) =  -100.866240577     a.u. after   12 cycles

 Alpha  occ. eigenvalues --  -24.68532  -1.15061  -0.49037  -0.40161  -0.40161
 Alpha  occ. eigenvalues --   -0.39266
 Alpha virt. eigenvalues --   -0.06977   0.21249   0.30950   0.90934   0.92968
 Alpha virt. eigenvalues --    0.92968   1.03812   1.12842   1.12842   1.42391
 Alpha virt. eigenvalues --    1.44495   1.44495   1.96986   2.23053   2.49008

  Beta  occ. eigenvalues --  -24.66205  -1.08603  -0.39605  -0.37879  -0.37879
  Beta virt. eigenvalues --   -0.23441  -0.04478   0.23340   0.31408   0.93668
  Beta virt. eigenvalues --    0.93668   0.95641   1.07470   1.15926   1.15926
  Beta virt. eigenvalues --    1.45742   1.45742   1.46809   1.99882   2.24697

 Mulliken charges and spin densities:
               1          2
     1  H    0.128245  -0.242385
     2  H    0.069069   0.517114
     3  F   -0.197315   0.725271
 Sum of Mulliken charges =   0.00000   1.00000

 Dipole moment (field-independent basis, Debye):
    X=             -2.1280    Y=              0.0000    Z=             -0.0000  Tot=              2.1280
 Quadrupole moment (field-independent basis, Debye-Ang):
   XX=             -7.6840   YY=             -7.3567   ZZ=             -7.3567
   XY=              0.0000   XZ=             -0.0000   YZ=             -0.0000

  Exact polarizability:      42.934      -0.000       2.226      -0.000      -0.000       2.226
 Approx polarizability:      67.197      -0.000       2.181       0.000       0.000       2.181

 ******    2 imaginary frequencies (negative Signs) ******

                      1                      2                      3
                      A                      A                      A
 Frequencies --  -2318.5062              -400.6235              1190.0174
 Red. masses --      1.0173                 1.0973                 1.0151
 Frc consts  --      3.2218                 0.1038                 0.8470
 IR Inten    --   1049.3468                 0.0484                 4.4224

                      4
                      A
 Frequencies --   1190.0174
 Red. masses --      1.0151
 Frc consts  --      0.8470
 IR Inten    --      4.4224

 - Thermochemistry -
 -------------------
 Temperature   298.150 Kelvin.  Pressure   1.00000 Atm.
 Atom     1 has atomic number  1 and mass   1.00783

 Molecular mass:    21.01405 amu.
 Principal axes and moments of inertia in atomic units:
                           1         2         3
     Eigenvalues --     0.00000  41.54829  41.54829
           X            1.00000  -0.00000   0.00000
           Y            0.00000   1.00000   0.00000
           Z            0.00000   0.00000   1.00000
 This molecule is a prolate symmetric top.
 Rotational symmetry number  1.
 Rotational temperature (Kelvin)      2.08466
 Rotational constant (GHZ):          43.437196
    2 imaginary frequencies ignored.
 Zero-point vibrational energy      14235.8 (Joules/Mol)
                                    3.40243 (Kcal/Mol)
 Vibrational temperatures:   1712.17  1712.17
          (Kelvin)

 Zero-point correction=                           0.005422 (Hartree/Particle)
 Thermal correction to Energy=                    0.007817
 Thermal correction to Enthalpy=                  0.008762
 Thermal correction to Gibbs Free Energy=        -0.014226
 Sum of electronic and zero-point Energies=           -100.860818
 Sum of electronic and thermal Energies=              -100.858423
 Sum of electronic and thermal Enthalpies=            -100.857479
 Sum of electronic and thermal Free Energies=         -100.880466

                     E (Thermal)             CV                S
                      KCal/Mol        Cal/Mol-Kelvin    Cal/Mol-Kelvin
 Total                    4.906              5.391             48.381
 Electronic               0.000              0.000              1.377
 Translational            0.889              2.981             35.068
 Rotational               0.592              1.987             11.850
 Vibrational              3.424              0.423              0.086

 Normal termination of Gaussian 16 at Fri Aug 22 16:39:52 2025.
