 Gaussian 16, Revision C.01,
 Gaussian 16:  ES64L-G16RevC.01  3-Jul-2019

 -----------------------------------------
 # sp b3lyp/6-311g** Force nosymm scf=(qc)
 -----------------------------------------

 -------------------
 Title Card Required
 -------------------
 Symbolic Z-matrix:
 Charge =  0 Multiplicity = 2

                          Input orientation:
 ---------------------------------------------------------------------
 Center     Atomic      Atomic             Coordinates (Angstroms)
 Number     Number       Type             X           Y           Z
 ---------------------------------------------------------------------
      1          1           0        0.000000    0.000000    0.000000
      2          1           0       -2.150000    0.000000    0.000000
      3          9           0        2.400000    0.000000    0.000000
 ---------------------------------------------------------------------

 SCF Done:  E(UB3LYP) =  -100.779380859     a.u. after   16 cycles

 Alpha  occ. eigenvalues --  -24.71148  -1.17384  -0.50242  -0.42197  -0.42197
 Alpha  occ. eigenvalues --   -0.34744
 Alpha virt. eigenvalues --   -0.12881   0.24778   0.32307   0.89694   0.93948
 Alpha virt. eigenvalues --    0.93948   1.06297   1.23120   1.23120   1.25633
 Alpha virt. eigenvalues --    1.35505   1.35505   1.45977   2.11853   2.32686

  Beta  occ. eigenvalues --  -24.68362  -1.09469  -0.39423  -0.39423  -0.35581
  Beta virt. eigenvalues --   -0.23086  -0.11168   0.26452   0.32868   0.95263
  Beta virt. eigenvalues --    0.95263   0.95853   1.09119   1.22494   1.22494
  Beta virt. eigenvalues --    1.30627   1.38283   1.38283   1.45456   2.12175

 Mulliken charges and spin densities:
               1          2
     1  H    0.077272  -0.797942
     2  H    0.025411   0.918249
     3  F   -0.102683   0.879693
 Sum of Mulliken charges =  -0.00000   1.00000

 Dipole moment (field-independent basis, Debye):
    X=             -1.5115    Y=             -0.0000    Z=             -0.0000  Tot=              1.5115
 Quadrupole moment (field-independent basis, Debye-Ang):
   XX=             -8.5432   YY=             -7.6290   ZZ=             -7.6290
   XY=             -0.0000   XZ=             -0.0000   YZ=             -0.0000

  Exact polarizability:      53.482      -0.000       2.014      -0.000      -0.000       2.014
 Approx polarizability:      57.064       0.000       1.924       0.000       0.000       1.924

 ******    2 imaginary frequencies (negative Signs) ******

                      1                      2                      3
                      A                      A                      A
 Frequencies --  -1185.4132              -420.2740               475.2679
 Red. masses --      1.0120                 1.1035                 1.0167
 Frc consts  --      0.8378                 0.1148                 0.1353
 IR Inten    --     57.8215                46.8955                 3.9593

                      4
                      A
 Frequencies --    475.2679
 Red. masses --      1.0167
 Frc consts  --      0.1353
 IR Inten    --      3.9593

 - Thermochemistry -
 -------------------
 Temperature   298.150 Kelvin.  Pressure   1.00000 Atm.
 Atom     1 has atomic number  1 and mass   1.00783

 Molecular mass:    21.01405 amu.
 Principal axes and moments of inertia in atomic units:
                           1         2         3
     Eigenvalues --     0.00000  86.90142  86.90142
           X            1.00000  -0.00000   0.00000
           Y            0.00000   1.00000   0.00000
           Z            0.00000   0.00000   1.00000
 This molecule is a prolate symmetric top.
 Rotational symmetry number  1.
 Rotational temperature (Kelvin)      0.99669
 Rotational constant (GHZ):          20.767684
    2 imaginary frequencies ignored.
 Zero-point vibrational energy       5685.5 (Joules/Mol)
                                    1.35886 (Kcal/Mol)
 Warning -- explicit consideration of   2 degrees of freedom as
           vibrations may cause significant error
 Vibrational temperatures:    683.80   683.80
          (Kelvin)

 Zero-point correction=                           0.002165 (Hartree/Particle)
 Thermal correction to Energy=                    0.005012
 Thermal correction to Enthalpy=                  0.005956
 Thermal correction to Gibbs Free Energy=        -0.018374
 Sum of electronic and zero-point Energies=           -100.777215
 Sum of electronic and thermal Energies=              -100.774369
 Sum of electronic and thermal Enthalpies=            -100.773425
 Sum of electronic and thermal Free Energies=         -100.797755

                     E (Thermal)             CV                S
                      KCal/Mol        Cal/Mol-Kelvin    Cal/Mol-Kelvin
 Total                    3.145              7.578             51.207
 Electronic               0.000              0.000              1.377
 Translational            0.889              2.981             35.068
 Rotational               0.592              1.987             13.316
 Vibrational              1.664              2.610              1.446
 Vibration     1          0.832              1.305              0.723
 Vibration     2          0.832              1.305              0.723

 Normal termination of Gaussian 16 at Fri Aug 22 17:32:18 2025.
