 Gaussian 16, Revision C.01,
 Gaussian 16:  ES64L-G16RevC.01  3-Jul-2019

 -----------------------------------------
 # sp b3lyp/6-311g** Force nosymm scf=(qc)
 -----------------------------------------

 -------------------
 Title Card Required
 -------------------
 Symbolic Z-matrix:
 Charge =  0 Multiplicity = 2

                          Input orientation:
 ---------------------------------------------------------------------
 Center     Atomic      Atomic             Coordinates (Angstroms)
 Number     Number       Type             X           Y           Z
 ---------------------------------------------------------------------
      1          1           0        0.000000    0.000000    0.000000
      2          1           0       -3.400000    0.000000    0.000000
      3          9           0        2.100000    0.000000    0.000000
 ---------------------------------------------------------------------

 SCF Done:  E(UB3LYP) =  -100.781425038     a.u. after   15 cycles

 Alpha  occ. eigenvalues --  -24.69023  -1.15346  -0.48050  -0.40434  -0.40434
 Alpha  occ. eigenvalues --   -0.33390
 Alpha virt. eigenvalues --   -0.12984   0.22706   0.32813   0.88404   0.94714
 Alpha virt. eigenvalues --    0.94714   1.05864   1.24128   1.24128   1.24316
 Alpha virt. eigenvalues --    1.36455   1.36455   1.55805   2.14192   2.31108

  Beta  occ. eigenvalues --  -24.66508  -1.08279  -0.37947  -0.37947  -0.37326
  Beta virt. eigenvalues --   -0.21388  -0.07144   0.23092   0.37750   0.90534
  Beta virt. eigenvalues --    0.95606   0.95606   1.08203   1.21616   1.21616
  Beta virt. eigenvalues --    1.44818   1.45640   1.45640   1.47991   2.11972

 Mulliken charges and spin densities:
               1          2
     1  H    0.165396  -0.788636
     2  H    0.001868   0.997070
     3  F   -0.167264   0.791567
 Sum of Mulliken charges =  -0.00000   1.00000

 Dipole moment (field-independent basis, Debye):
    X=             -1.7784    Y=             -0.0000    Z=             -0.0000  Tot=              1.7784
 Quadrupole moment (field-independent basis, Debye-Ang):
   XX=             -9.8885   YY=             -7.5116   ZZ=             -7.5116
   XY=             -0.0000   XZ=             -0.0000   YZ=              0.0000

  Exact polarizability:      27.579      -0.000       2.049      -0.000       0.000       2.049
 Approx polarizability:      38.329      -0.000       1.936      -0.000       0.000       1.936

 ******    2 imaginary frequencies (negative Signs) ******

                      1                      2                      3
                      A                      A                      A
 Frequencies --   -987.7139              -136.0153               414.9193
 Red. masses --      1.0563                 1.0553                 1.0247
 Frc consts  --      0.6071                 0.0115                 0.1039
 IR Inten    --    112.6337                 0.3972                25.5996

                      4
                      A
 Frequencies --    414.9193
 Red. masses --      1.0247
 Frc consts  --      0.1039
 IR Inten    --     25.5996

 - Thermochemistry -
 -------------------
 Temperature   298.150 Kelvin.  Pressure   1.00000 Atm.
 Atom     1 has atomic number  1 and mass   1.00783

 Molecular mass:    21.01405 amu.
 Principal axes and moments of inertia in atomic units:
                           1         2         3
     Eigenvalues --     0.00000 114.77186 114.77186
           X            1.00000  -0.00000   0.00000
           Y            0.00000   1.00000   0.00000
           Z            0.00000   0.00000   1.00000
 This molecule is a prolate symmetric top.
 Rotational symmetry number  1.
 Rotational temperature (Kelvin)      0.75466
 Rotational constant (GHZ):          15.724597
    2 imaginary frequencies ignored.
 Zero-point vibrational energy       4963.5 (Joules/Mol)
                                    1.18631 (Kcal/Mol)
 Warning -- explicit consideration of   2 degrees of freedom as
           vibrations may cause significant error
 Vibrational temperatures:    596.98   596.98
          (Kelvin)

 Zero-point correction=                           0.001891 (Hartree/Particle)
 Thermal correction to Energy=                    0.004841
 Thermal correction to Enthalpy=                  0.005785
 Thermal correction to Gibbs Free Energy=        -0.018985
 Sum of electronic and zero-point Energies=           -100.779535
 Sum of electronic and thermal Energies=              -100.776584
 Sum of electronic and thermal Enthalpies=            -100.775640
 Sum of electronic and thermal Free Energies=         -100.800410

                     E (Thermal)             CV                S
                      KCal/Mol        Cal/Mol-Kelvin    Cal/Mol-Kelvin
 Total                    3.038              7.844             52.133
 Electronic               0.000              0.000              1.377
 Translational            0.889              2.981             35.068
 Rotational               0.592              1.987             13.869
 Vibrational              1.557              2.876              1.819
 Vibration     1          0.778              1.438              0.909
 Vibration     2          0.778              1.438              0.909

 Normal termination of Gaussian 16 at Fri Aug 22 17:05:12 2025.
