 Gaussian 16, Revision C.01,
 Gaussian 16:  ES64L-G16RevC.01  3-Jul-2019

 -----------------------------------------
 # sp b3lyp/6-311g** Force nosymm scf=(qc)
 -----------------------------------------

 -------------------
 Title Card Required
 -------------------
 Symbolic Z-matrix:
 Charge =  0 Multiplicity = 2

                          Input orientation:
 ---------------------------------------------------------------------
 Center     Atomic      Atomic             Coordinates (Angstroms)
 Number     Number       Type             X           Y           Z
 ---------------------------------------------------------------------
      1          1           0        0.000000    0.000000    0.000000
      2          1           0       -3.300000    0.000000    0.000000
      3          9           0        3.450000    0.000000    0.000000
 ---------------------------------------------------------------------

 SCF Done:  E(UB3LYP) =  -100.759466506     a.u. after   32 cycles

 Alpha  occ. eigenvalues --  -24.75302  -1.21271  -0.54424  -0.45695  -0.45695
 Alpha  occ. eigenvalues --   -0.32389
 Alpha virt. eigenvalues --   -0.07446   0.24486   0.36594   0.87767   0.91533
 Alpha virt. eigenvalues --    0.91533   1.01953   1.25124   1.25124   1.25425
 Alpha virt. eigenvalues --    1.44596   1.44705   1.44705   2.15290   2.40557

  Beta  occ. eigenvalues --  -24.72193  -1.12341  -0.42580  -0.42580  -0.32905
  Beta virt. eigenvalues --   -0.25441  -0.06843   0.24260   0.37578   0.93021
  Beta virt. eigenvalues --    0.93021   0.96872   1.05945   1.24529   1.24529
  Beta virt. eigenvalues --    1.24805   1.45443   1.45674   1.45674   2.15562

 Mulliken charges and spin densities:
               1          2
     1  H    0.012798  -0.982065
     2  H    0.000338   0.996523
     3  F   -0.013136   0.985542
 Sum of Mulliken charges =   0.00000   1.00000

 Dipole moment (field-independent basis, Debye):
    X=             -0.2384    Y=              0.0000    Z=              0.0000  Tot=              0.2384
 Quadrupole moment (field-independent basis, Debye-Ang):
   XX=             -7.4468   YY=             -7.6249   ZZ=             -7.6249
   XY=              0.0000   XZ=              0.0000   YZ=              0.0000

  Exact polarizability:      25.673       0.000       2.032       0.000      -0.000       2.032
 Approx polarizability:      20.623       0.000       1.932       0.000      -0.000       1.932

 ******    2 imaginary frequencies (negative Signs) ******

                      1                      2                      3
                      A                      A                      A
 Frequencies --   -283.0688              -120.1842                93.4201
 Red. masses --      1.0205                 1.0936                 1.0174
 Frc consts  --      0.0482                 0.0093                 0.0052
 IR Inten    --     11.2106                 2.4528                 0.1434

                      4
                      A
 Frequencies --     93.4202
 Red. masses --      1.0174
 Frc consts  --      0.0052
 IR Inten    --      0.1434

 - Thermochemistry -
 -------------------
 Temperature   298.150 Kelvin.  Pressure   1.00000 Atm.
 Atom     1 has atomic number  1 and mass   1.00783

 Molecular mass:    21.01405 amu.
 Principal axes and moments of inertia in atomic units:
                           1         2         3
     Eigenvalues --     0.00000 188.85900 188.85900
           X            1.00000  -0.00000   0.00000
           Y            0.00000   1.00000   0.00000
           Z            0.00000   0.00000   1.00000
 This molecule is a prolate symmetric top.
 Rotational symmetry number  1.
 Rotational temperature (Kelvin)      0.45862
 Rotational constant (GHZ):           9.556024
    2 imaginary frequencies ignored.
 Zero-point vibrational energy       1117.6 (Joules/Mol)
                                    0.26710 (Kcal/Mol)
 Warning -- explicit consideration of   2 degrees of freedom as
           vibrations may cause significant error
 Vibrational temperatures:    134.41   134.41
          (Kelvin)

 Zero-point correction=                           0.000426 (Hartree/Particle)
 Thermal correction to Energy=                    0.004281
 Thermal correction to Enthalpy=                  0.005225
 Thermal correction to Gibbs Free Energy=        -0.022560
 Sum of electronic and zero-point Energies=           -100.759041
 Sum of electronic and thermal Energies=              -100.755186
 Sum of electronic and thermal Enthalpies=            -100.754242
 Sum of electronic and thermal Free Energies=         -100.782027

                     E (Thermal)             CV                S
                      KCal/Mol        Cal/Mol-Kelvin    Cal/Mol-Kelvin
 Total                    2.686              8.876             58.478
 Electronic               0.000              0.000              1.377
 Translational            0.889              2.981             35.068
 Rotational               0.592              1.987             14.859
 Vibrational              1.205              3.908              7.174
 Vibration     1          0.602              1.954              3.587
 Vibration     2          0.602              1.954              3.587

 Normal termination of Gaussian 16 at Fri Aug 22 21:43:00 2025.
