 Gaussian 16, Revision C.01,
 Gaussian 16:  ES64L-G16RevC.01  3-Jul-2019

 -----------------------------------------
 # sp b3lyp/6-311g** Force nosymm scf=(qc)
 -----------------------------------------

 -------------------
 Title Card Required
 -------------------
 Symbolic Z-matrix:
 Charge =  0 Multiplicity = 2

                          Input orientation:
 ---------------------------------------------------------------------
 Center     Atomic      Atomic             Coordinates (Angstroms)
 Number     Number       Type             X           Y           Z
 ---------------------------------------------------------------------
      1          1           0        0.000000    0.000000    0.000000
      2          1           0       -4.000000    0.000000    0.000000
      3          9           0        3.550000    0.000000    0.000000
 ---------------------------------------------------------------------

 SCF Done:  E(UB3LYP) =  -100.758779295     a.u. after   30 cycles

 Alpha  occ. eigenvalues --  -24.75457  -1.21415  -0.54580  -0.45826  -0.45826
 Alpha  occ. eigenvalues --   -0.32279
 Alpha virt. eigenvalues --   -0.05844   0.24157   0.37560   0.87435   0.91437
 Alpha virt. eigenvalues --    0.91437   1.01691   1.25216   1.25216   1.25235
 Alpha virt. eigenvalues --    1.47468   1.47468   1.48054   2.14533   2.43052

  Beta  occ. eigenvalues --  -24.72339  -1.12453  -0.42700  -0.42700  -0.32750
  Beta virt. eigenvalues --   -0.25518  -0.05805   0.23861   0.38196   0.92928
  Beta virt. eigenvalues --    0.92928   0.96604   1.05716   1.24682   1.24682
  Beta virt. eigenvalues --    1.24685   1.46732   1.46816   1.46816   2.14653

 Mulliken charges and spin densities:
               1          2
     1  H    0.010118  -0.988222
     2  H    0.000042   0.999379
     3  F   -0.010159   0.988843
 Sum of Mulliken charges =  -0.00000   1.00000

 Dipole moment (field-independent basis, Debye):
    X=             -0.1863    Y=              0.0000    Z=             -0.0000  Tot=              0.1863
 Quadrupole moment (field-independent basis, Debye-Ang):
   XX=             -7.3598   YY=             -7.6173   ZZ=             -7.6173
   XY=              0.0000   XZ=             -0.0000   YZ=              0.0000

  Exact polarizability:      21.442       0.000       2.038      -0.000       0.000       2.038
 Approx polarizability:      16.722       0.000       1.935      -0.000      -0.000       1.935

 ******    2 imaginary frequencies (negative Signs) ******

                      1                      2                      3
                      A                      A                      A
 Frequencies --   -204.9209               -66.8082                52.7265
 Red. masses --      1.0452                 1.0666                 1.0195
 Frc consts  --      0.0259                 0.0028                 0.0017
 IR Inten    --      9.5934                 0.1728                 0.0913

                      4
                      A
 Frequencies --     52.7266
 Red. masses --      1.0195
 Frc consts  --      0.0017
 IR Inten    --      0.0913

 - Thermochemistry -
 -------------------
 Temperature   298.150 Kelvin.  Pressure   1.00000 Atm.
 Atom     1 has atomic number  1 and mass   1.00783

 Molecular mass:    21.01405 amu.
 Principal axes and moments of inertia in atomic units:
                           1         2         3
     Eigenvalues --     0.00000 229.24209 229.24209
           X            1.00000  -0.00000   0.00000
           Y            0.00000   1.00000   0.00000
           Z            0.00000   0.00000   1.00000
 This molecule is a prolate symmetric top.
 Rotational symmetry number  1.
 Rotational temperature (Kelvin)      0.37783
 Rotational constant (GHZ):           7.872643
    2 imaginary frequencies ignored.
 Zero-point vibrational energy        630.7 (Joules/Mol)
                                    0.15075 (Kcal/Mol)
 Warning -- explicit consideration of   2 degrees of freedom as
           vibrations may cause significant error
 Vibrational temperatures:     75.86    75.86
          (Kelvin)

 Zero-point correction=                           0.000240 (Hartree/Particle)
 Thermal correction to Energy=                    0.004259
 Thermal correction to Enthalpy=                  0.005203
 Thermal correction to Gibbs Free Energy=        -0.023834
 Sum of electronic and zero-point Energies=           -100.758539
 Sum of electronic and thermal Energies=              -100.754520
 Sum of electronic and thermal Enthalpies=            -100.753576
 Sum of electronic and thermal Free Energies=         -100.782613

                     E (Thermal)             CV                S
                      KCal/Mol        Cal/Mol-Kelvin    Cal/Mol-Kelvin
 Total                    2.673              8.921             61.114
 Electronic               0.000              0.000              1.377
 Translational            0.889              2.981             35.068
 Rotational               0.592              1.987             15.244
 Vibrational              1.191              3.953              9.425
 Vibration     1          0.596              1.977              4.712
 Vibration     2          0.596              1.977              4.712

 Normal termination of Gaussian 16 at Fri Aug 22 22:42:10 2025.
