 Gaussian 16, Revision C.01,
 Gaussian 16:  ES64L-G16RevC.01  3-Jul-2019

 -----------------------------------------
 # sp b3lyp/6-311g** Force nosymm scf=(qc)
 -----------------------------------------

 -------------------
 Title Card Required
 -------------------
 Symbolic Z-matrix:
 Charge =  0 Multiplicity = 2

                          Input orientation:
 ---------------------------------------------------------------------
 Center     Atomic      Atomic             Coordinates (Angstroms)
 Number     Number       Type             X           Y           Z
 ---------------------------------------------------------------------
      1          1           0        0.000000    0.000000    0.000000
      2          1           0       -0.550000    0.000000    0.000000
      3          9           0        3.950000    0.000000    0.000000
 ---------------------------------------------------------------------

 SCF Done:  E(UB3LYP) =  -100.893907991     a.u. after   97 cycles

 Alpha  occ. eigenvalues --  -24.76169  -1.22058  -0.55263  -0.47924  -0.46431
 Alpha  occ. eigenvalues --   -0.46418
 Alpha virt. eigenvalues --    0.09192   0.18585   0.53827   0.86112   0.90989
 Alpha virt. eigenvalues --    0.91972   1.01220   1.11038   1.11040   1.60995
 Alpha virt. eigenvalues --    1.81461   1.96161   1.96163   2.36418   3.64960

  Beta  occ. eigenvalues --  -24.73013  -1.12983  -0.47922  -0.43269  -0.43254
  Beta virt. eigenvalues --   -0.25911   0.09200   0.18588   0.53863   0.92489
  Beta virt. eigenvalues --    0.93458   0.95578   1.05341   1.11038   1.11040
  Beta virt. eigenvalues --    1.60998   1.81472   1.96161   1.96163   2.36418

 Mulliken charges and spin densities:
               1          2
     1  H   -0.000364  -0.000230
     2  H   -0.001287   0.000054
     3  F    0.001651   1.000176
 Sum of Mulliken charges =   0.00000   1.00000

 Dipole moment (field-independent basis, Debye):
    X=              0.0224    Y=             -0.0000    Z=             -0.0000  Tot=              0.0224
 Quadrupole moment (field-independent basis, Debye-Ang):
   XX=             -6.2232   YY=             -5.8162   ZZ=             -6.6424
   XY=              0.0000   XZ=              0.0000   YZ=              0.1273

  Exact polarizability:       5.732       0.000       2.289       0.000       0.069       1.844
 Approx polarizability:       6.176       0.000       2.485       0.000       0.086       1.928

 ******    3 imaginary frequencies (negative Signs) ******

                      1                      2                      3
                      A                      A                      A
 Frequencies --  -3701.6568             -3701.0072               -58.3612
 Red. masses --      1.0083                 1.0083                 1.1085
 Frc consts  --      8.1398                 8.1369                 0.0022
 IR Inten    --      0.0001                 0.0002                 0.0514

                      4
                      A
 Frequencies --   8343.1358
 Red. masses --      1.0078
 Frc consts  --     41.3327
 IR Inten    --      0.0201

 - Thermochemistry -
 -------------------
 Temperature   298.150 Kelvin.  Pressure   1.00000 Atm.
 Atom     1 has atomic number  1 and mass   1.00783

 Molecular mass:    21.01405 amu.
 Principal axes and moments of inertia in atomic units:
                           1         2         3
     Eigenvalues --     0.00000 116.70889 116.70889
           X            1.00000  -0.00000   0.00000
           Y            0.00000   1.00000   0.00000
           Z            0.00000   0.00000   1.00000
 This molecule is a prolate symmetric top.
 Rotational symmetry number  1.
 Rotational temperature (Kelvin)      0.74214
 Rotational constant (GHZ):          15.463614
    3 imaginary frequencies ignored.
 Zero-point vibrational energy      49903.0 (Joules/Mol)
                                   11.92711 (Kcal/Mol)
 Vibrational temperatures:  12003.91
          (Kelvin)

 Zero-point correction=                           0.019007 (Hartree/Particle)
 Thermal correction to Energy=                    0.021368
 Thermal correction to Enthalpy=                  0.022312
 Thermal correction to Gibbs Free Energy=        -0.001610
 Sum of electronic and zero-point Energies=           -100.874901
 Sum of electronic and thermal Energies=              -100.872540
 Sum of electronic and thermal Enthalpies=            -100.871596
 Sum of electronic and thermal Free Energies=         -100.895518

                     E (Thermal)             CV                S
                      KCal/Mol        Cal/Mol-Kelvin    Cal/Mol-Kelvin
 Total                   13.408              4.968             50.348
 Electronic               0.000              0.000              1.377
 Translational            0.889              2.981             35.068
 Rotational               0.592              1.987             13.902
 Vibrational             11.927              0.000              0.000

 Normal termination of Gaussian 16 at Sat Aug 23 01:28:47 2025.
