 Gaussian 16, Revision C.01,
 Gaussian 16:  ES64L-G16RevC.01  3-Jul-2019

 -----------------------------------------
 # sp b3lyp/6-311g** Force nosymm scf=(qc)
 -----------------------------------------

 -------------------
 Title Card Required
 -------------------
 Symbolic Z-matrix:
 Charge =  0 Multiplicity = 2

                          Input orientation:
 ---------------------------------------------------------------------
 Center     Atomic      Atomic             Coordinates (Angstroms)
 Number     Number       Type             X           Y           Z
 ---------------------------------------------------------------------
      1          1           0        0.000000    0.000000    0.000000
      2          1           0       -2.700000    0.000000    0.000000
      3          9           0        1.200000    0.000000    0.000000
 ---------------------------------------------------------------------

 SCF Done:  E(UB3LYP) =  -100.926002646     a.u. after    6 cycles

 Alpha  occ. eigenvalues --  -24.64220  -1.12174  -0.47696  -0.37418  -0.37418
 Alpha  occ. eigenvalues --   -0.34907
 Alpha virt. eigenvalues --   -0.05192   0.24160   0.28520   0.93284   0.93284
 Alpha virt. eigenvalues --    1.00879   1.21826   1.22629   1.22629   1.29844
 Alpha virt. eigenvalues --    1.34755   1.34755   1.73803   2.13860   2.29282

  Beta  occ. eigenvalues --  -24.64192  -1.12102  -0.47587  -0.37392  -0.37392
  Beta virt. eigenvalues --   -0.10560  -0.02880   0.28042   0.36986   0.93283
  Beta virt. eigenvalues --    0.93283   1.00941   1.27352   1.34694   1.34694
  Beta virt. eigenvalues --    1.44503   1.44503   1.45293   1.74119   2.29154

 Mulliken charges and spin densities:
               1          2
     1  H    0.348460  -0.000205
     2  H    0.007041   0.991388
     3  F   -0.355502   0.008817
 Sum of Mulliken charges =  -0.00000   1.00000

 Dipole moment (field-independent basis, Debye):
    X=             -2.3758    Y=             -0.0000    Z=             -0.0000  Tot=              2.3758
 Quadrupole moment (field-independent basis, Debye-Ang):
   XX=             -8.6283   YY=             -7.1259   ZZ=             -7.1259
   XY=             -0.0000   XZ=              0.0000   YZ=             -0.0000

  Exact polarizability:      11.820       0.000       2.340       0.000       0.000       2.340
 Approx polarizability:      15.520      -0.000       2.297      -0.000       0.000       2.297

 ******    1 imaginary frequencies (negative Signs) ******

                      1                      2                      3
                      A                      A                      A
 Frequencies --   -145.4096               967.7779              1187.0555
 Red. masses --      1.0488                 1.0628                 1.0300
 Frc consts  --      0.0131                 0.5865                 0.8551
 IR Inten    --      2.6179               101.2647               135.7414

                      4
                      A
 Frequencies --   1187.0555
 Red. masses --      1.0300
 Frc consts  --      0.8551
 IR Inten    --    135.7414

 - Thermochemistry -
 -------------------
 Temperature   298.150 Kelvin.  Pressure   1.00000 Atm.
 Atom     1 has atomic number  1 and mass   1.00783

 Molecular mass:    21.01405 amu.
 Principal axes and moments of inertia in atomic units:
                           1         2         3
     Eigenvalues --     0.00000  55.43399  55.43399
           X            1.00000  -0.00000   0.00000
           Y            0.00000   1.00000   0.00000
           Z            0.00000   0.00000   1.00000
 This molecule is a prolate symmetric top.
 Rotational symmetry number  1.
 Rotational temperature (Kelvin)      1.56247
 Rotational constant (GHZ):          32.556583
    1 imaginary frequencies ignored.
 Zero-point vibrational energy      19988.9 (Joules/Mol)
                                    4.77747 (Kcal/Mol)
 Vibrational temperatures:   1392.42  1707.91  1707.91
          (Kelvin)

 Zero-point correction=                           0.007613 (Hartree/Particle)
 Thermal correction to Energy=                    0.010051
 Thermal correction to Enthalpy=                  0.010995
 Thermal correction to Gibbs Free Energy=        -0.012316
 Sum of electronic and zero-point Energies=           -100.918389
 Sum of electronic and thermal Energies=              -100.915952
 Sum of electronic and thermal Enthalpies=            -100.915008
 Sum of electronic and thermal Free Energies=         -100.938318

                     E (Thermal)             CV                S
                      KCal/Mol        Cal/Mol-Kelvin    Cal/Mol-Kelvin
 Total                    6.307              5.809             49.062
 Electronic               0.000              0.000              1.377
 Translational            0.889              2.981             35.068
 Rotational               0.592              1.987             12.423
 Vibrational              4.826              0.841              0.194

 Normal termination of Gaussian 16 at Fri Aug 22 16:10:38 2025.
