 Gaussian 16, Revision C.01,
 Gaussian 16:  ES64L-G16RevC.01  3-Jul-2019

 -----------------------------------------
 # sp b3lyp/6-311g** Force nosymm scf=(qc)
 -----------------------------------------

 -------------------
 Title Card Required
 -------------------
 Symbolic Z-matrix:
 Charge =  0 Multiplicity = 2

                          Input orientation:
 ---------------------------------------------------------------------
 Center     Atomic      Atomic             Coordinates (Angstroms)
 Number     Number       Type             X           Y           Z
 ---------------------------------------------------------------------
      1          1           0        0.000000    0.000000    0.000000
      2          1           0       -1.050000    0.000000    0.000000
      3          9           0        2.100000    0.000000    0.000000
 ---------------------------------------------------------------------

 SCF Done:  E(UB3LYP) =  -100.901624781     a.u. after   12 cycles

 Alpha  occ. eigenvalues --  -24.73920  -1.20051  -0.53499  -0.44600  -0.44600
 Alpha  occ. eigenvalues --   -0.40196
 Alpha virt. eigenvalues --   -0.00744   0.21446   0.37241   0.89356   0.91564
 Alpha virt. eigenvalues --    0.91564   1.08043   1.08043   1.09598   1.42694
 Alpha virt. eigenvalues --    1.60884   1.60884   2.18914   2.33239   2.56330

  Beta  occ. eigenvalues --  -24.70969  -1.11647  -0.41658  -0.41658  -0.40018
  Beta virt. eigenvalues --   -0.25417   0.00362   0.22064   0.37711   0.92913
  Beta virt. eigenvalues --    0.92913   0.96998   1.08849   1.08849   1.12650
  Beta virt. eigenvalues --    1.44867   1.61452   1.61452   2.20003   2.34087

 Mulliken charges and spin densities:
               1          2
     1  H    0.015615  -0.054444
     2  H    0.038749   0.126685
     3  F   -0.054364   0.927759
 Sum of Mulliken charges =   0.00000   1.00000

 Dipole moment (field-independent basis, Debye):
    X=             -0.7504    Y=             -0.0000    Z=             -0.0000  Tot=              0.7504
 Quadrupole moment (field-independent basis, Debye-Ang):
   XX=             -6.4171   YY=             -7.2687   ZZ=             -7.2687
   XY=             -0.0000   XZ=             -0.0000   YZ=             -0.0000

  Exact polarizability:      32.244      -0.000       2.152      -0.000       0.000       2.152
 Approx polarizability:      41.212      -0.000       2.173       0.000       0.000       2.173

 ******    1 imaginary frequencies (negative Signs) ******

                      1                      2                      3
                      A                      A                      A
 Frequencies --   -463.3048              1121.8065              1464.7630
 Red. masses --      1.1017                 1.0136                 1.0117
 Frc consts  --      0.1393                 0.7515                 1.2789
 IR Inten    --    163.2248               416.8259                 0.0266

                      4
                      A
 Frequencies --   1464.7630
 Red. masses --      1.0117
 Frc consts  --      1.2789
 IR Inten    --      0.0266

 - Thermochemistry -
 -------------------
 Temperature   298.150 Kelvin.  Pressure   1.00000 Atm.
 Atom     1 has atomic number  1 and mass   1.00783

 Molecular mass:    21.01405 amu.
 Principal axes and moments of inertia in atomic units:
                           1         2         3
     Eigenvalues --     0.00000  46.82531  46.82531
           X            1.00000  -0.00000   0.00000
           Y            0.00000   1.00000   0.00000
           Z            0.00000   0.00000   1.00000
 This molecule is a prolate symmetric top.
 Rotational symmetry number  1.
 Rotational temperature (Kelvin)      1.84972
 Rotational constant (GHZ):          38.542001
    1 imaginary frequencies ignored.
 Zero-point vibrational energy      24232.3 (Joules/Mol)
                                    5.79167 (Kcal/Mol)
 Vibrational temperatures:   1614.03  2107.47  2107.47
          (Kelvin)

 Zero-point correction=                           0.009230 (Hartree/Particle)
 Thermal correction to Energy=                    0.011624
 Thermal correction to Enthalpy=                  0.012569
 Thermal correction to Gibbs Free Energy=        -0.010531
 Sum of electronic and zero-point Energies=           -100.892395
 Sum of electronic and thermal Energies=              -100.890000
 Sum of electronic and thermal Enthalpies=            -100.889056
 Sum of electronic and thermal Free Energies=         -100.912156

                     E (Thermal)             CV                S
                      KCal/Mol        Cal/Mol-Kelvin    Cal/Mol-Kelvin
 Total                    7.294              5.399             48.617
 Electronic               0.000              0.000              1.377
 Translational            0.889              2.981             35.068
 Rotational               0.592              1.987             12.087
 Vibrational              5.813              0.431              0.084

 Normal termination of Gaussian 16 at Fri Aug 22 17:02:56 2025.
