 Gaussian 16, Revision C.01,
 Gaussian 16:  ES64L-G16RevC.01  3-Jul-2019

 -----------------------------------------
 # sp b3lyp/6-311g** Force nosymm scf=(qc)
 -----------------------------------------

 -------------------
 Title Card Required
 -------------------
 Symbolic Z-matrix:
 Charge =  0 Multiplicity = 2

                          Input orientation:
 ---------------------------------------------------------------------
 Center     Atomic      Atomic             Coordinates (Angstroms)
 Number     Number       Type             X           Y           Z
 ---------------------------------------------------------------------
      1          1           0        0.000000    0.000000    0.000000
      2          1           0       -2.000000    0.000000    0.000000
      3          9           0        2.750000    0.000000    0.000000
 ---------------------------------------------------------------------

 SCF Done:  E(UB3LYP) =  -100.778336252     a.u. after   21 cycles

 Alpha  occ. eigenvalues --  -24.73283  -1.19392  -0.52399  -0.43995  -0.43995
 Alpha  occ. eigenvalues --   -0.34203
 Alpha virt. eigenvalues --   -0.12218   0.25189   0.31888   0.90287   0.92758
 Alpha virt. eigenvalues --    0.92758   1.05367   1.17748   1.23747   1.23747
 Alpha virt. eigenvalues --    1.36050   1.36050   1.49578   2.11903   2.36087

  Beta  occ. eigenvalues --  -24.70319  -1.10916  -0.41032  -0.41032  -0.34419
  Beta virt. eigenvalues --   -0.24404  -0.11362   0.26260   0.32171   0.94194
  Beta virt. eigenvalues --    0.94194   0.98486   1.08915   1.18450   1.23483
  Beta virt. eigenvalues --    1.23483   1.37411   1.37411   1.50519   2.13004

 Mulliken charges and spin densities:
               1          2
     1  H    0.032605  -0.802656
     2  H    0.021425   0.864313
     3  F   -0.054030   0.938343
 Sum of Mulliken charges =  -0.00000   1.00000

 Dipole moment (field-independent basis, Debye):
    X=             -0.9653    Y=              0.0000    Z=             -0.0000  Tot=              0.9653
 Quadrupole moment (field-independent basis, Debye-Ang):
   XX=             -7.7577   YY=             -7.6910   ZZ=             -7.6910
   XY=             -0.0000   XZ=              0.0000   YZ=              0.0000

  Exact polarizability:      60.511      -0.000       2.004       0.000       0.000       2.004
 Approx polarizability:      60.214      -0.000       1.929       0.000      -0.000       1.929

 ******    2 imaginary frequencies (negative Signs) ******

                      1                      2                      3
                      A                      A                      A
 Frequencies --  -1377.2137              -310.2505               554.9449
 Red. masses --      1.0083                 1.1079                 1.0145
 Frc consts  --      1.1268                 0.0628                 0.1841
 IR Inten    --     57.4375                41.0475                 0.4925

                      4
                      A
 Frequencies --    554.9449
 Red. masses --      1.0145
 Frc consts  --      0.1841
 IR Inten    --      0.4925

 - Thermochemistry -
 -------------------
 Temperature   298.150 Kelvin.  Pressure   1.00000 Atm.
 Atom     1 has atomic number  1 and mass   1.00783

 Molecular mass:    21.01405 amu.
 Principal axes and moments of inertia in atomic units:
                           1         2         3
     Eigenvalues --     0.00000  98.71099  98.71099
           X            1.00000  -0.00000   0.00000
           Y            0.00000   1.00000   0.00000
           Z            0.00000   0.00000   1.00000
 This molecule is a prolate symmetric top.
 Rotational symmetry number  1.
 Rotational temperature (Kelvin)      0.87745
 Rotational constant (GHZ):          18.283082
    2 imaginary frequencies ignored.
 Zero-point vibrational energy       6638.6 (Joules/Mol)
                                    1.58667 (Kcal/Mol)
 Warning -- explicit consideration of   2 degrees of freedom as
           vibrations may cause significant error
 Vibrational temperatures:    798.44   798.44
          (Kelvin)

 Zero-point correction=                           0.002529 (Hartree/Particle)
 Thermal correction to Energy=                    0.005262
 Thermal correction to Enthalpy=                  0.006206
 Thermal correction to Gibbs Free Energy=        -0.018065
 Sum of electronic and zero-point Energies=           -100.775808
 Sum of electronic and thermal Energies=              -100.773074
 Sum of electronic and thermal Enthalpies=            -100.772130
 Sum of electronic and thermal Free Energies=         -100.796401

                     E (Thermal)             CV                S
                      KCal/Mol        Cal/Mol-Kelvin    Cal/Mol-Kelvin
 Total                    3.302              7.226             51.083
 Electronic               0.000              0.000              1.377
 Translational            0.889              2.981             35.068
 Rotational               0.592              1.987             13.569
 Vibrational              1.821              2.258              1.068
 Vibration     1          0.910              1.129              0.534
 Vibration     2          0.910              1.129              0.534

 Normal termination of Gaussian 16 at Fri Aug 22 18:33:36 2025.
