 Gaussian 16, Revision C.01,
 Gaussian 16:  ES64L-G16RevC.01  3-Jul-2019

 -----------------------------------------
 # sp b3lyp/6-311g** Force nosymm scf=(qc)
 -----------------------------------------

 -------------------
 Title Card Required
 -------------------
 Symbolic Z-matrix:
 Charge =  0 Multiplicity = 2

                          Input orientation:
 ---------------------------------------------------------------------
 Center     Atomic      Atomic             Coordinates (Angstroms)
 Number     Number       Type             X           Y           Z
 ---------------------------------------------------------------------
      1          1           0        0.000000    0.000000    0.000000
      2          1           0       -1.050000    0.000000    0.000000
      3          9           0        1.350000    0.000000    0.000000
 ---------------------------------------------------------------------

 SCF Done:  E(UB3LYP) =  -100.929868617     a.u. after    8 cycles

 Alpha  occ. eigenvalues --  -24.66892  -1.14662  -0.53234  -0.39426  -0.39426
 Alpha  occ. eigenvalues --   -0.39236
 Alpha virt. eigenvalues --    0.04340   0.19574   0.34075   0.90095   0.90095
 Alpha virt. eigenvalues --    0.99289   1.08074   1.08074   1.23314   1.60288
 Alpha virt. eigenvalues --    1.60288   1.62106   2.20460   2.31250   2.45372

  Beta  occ. eigenvalues --  -24.65057  -1.09787  -0.45531  -0.37683  -0.37683
  Beta virt. eigenvalues --   -0.22381   0.07073   0.21571   0.36918   0.91032
  Beta virt. eigenvalues --    0.91032   1.03561   1.12369   1.12369   1.27695
  Beta virt. eigenvalues --    1.62861   1.62861   1.65806   2.25900   2.34234

 Mulliken charges and spin densities:
               1          2
     1  H    0.220354  -0.097448
     2  H    0.050455   0.550213
     3  F   -0.270809   0.547235
 Sum of Mulliken charges =   0.00000   1.00000

 Dipole moment (field-independent basis, Debye):
    X=             -2.1075    Y=             -0.0000    Z=             -0.0000  Tot=              2.1075
 Quadrupole moment (field-independent basis, Debye-Ang):
   XX=             -7.6039   YY=             -6.9531   ZZ=             -6.9531
   XY=             -0.0000   XZ=             -0.0000   YZ=              0.0000

  Exact polarizability:      25.829      -0.000       2.446       0.000       0.000       2.446
 Approx polarizability:      37.114      -0.000       2.434       0.000       0.000       2.434

 ******    1 imaginary frequencies (negative Signs) ******

                      1                      2                      3
                      A                      A                      A
 Frequencies --  -2346.9579               928.1662              1156.9777
 Red. masses --      1.0316                 1.0811                 1.0152
 Frc consts  --      3.3479                 0.5488                 0.8007
 IR Inten    --    676.0679                77.2002                14.3067

                      4
                      A
 Frequencies --   1156.9777
 Red. masses --      1.0152
 Frc consts  --      0.8007
 IR Inten    --     14.3067

 - Thermochemistry -
 -------------------
 Temperature   298.150 Kelvin.  Pressure   1.00000 Atm.
 Atom     1 has atomic number  1 and mass   1.00783

 Molecular mass:    21.01405 amu.
 Principal axes and moments of inertia in atomic units:
                           1         2         3
     Eigenvalues --     0.00000  24.86220  24.86220
           X            1.00000  -0.00000   0.00000
           Y            0.00000   1.00000   0.00000
           Z            0.00000   0.00000   1.00000
 This molecule is a prolate symmetric top.
 Rotational symmetry number  1.
 Rotational temperature (Kelvin)      3.48376
 Rotational constant (GHZ):          72.589770
    1 imaginary frequencies ignored.
 Zero-point vibrational energy      19392.2 (Joules/Mol)
                                    4.63485 (Kcal/Mol)
 Vibrational temperatures:   1335.42  1664.63  1664.63
          (Kelvin)

 Zero-point correction=                           0.007386 (Hartree/Particle)
 Thermal correction to Energy=                    0.009835
 Thermal correction to Enthalpy=                  0.010779
 Thermal correction to Gibbs Free Energy=        -0.011789
 Sum of electronic and zero-point Energies=           -100.922483
 Sum of electronic and thermal Energies=              -100.920034
 Sum of electronic and thermal Enthalpies=            -100.919090
 Sum of electronic and thermal Free Energies=         -100.941657

                     E (Thermal)             CV                S
                      KCal/Mol        Cal/Mol-Kelvin    Cal/Mol-Kelvin
 Total                    6.171              5.900             47.498
 Electronic               0.000              0.000              1.377
 Translational            0.889              2.981             35.068
 Rotational               0.592              1.987             10.829
 Vibrational              4.690              0.932              0.224

 Normal termination of Gaussian 16 at Fri Aug 22 16:16:50 2025.
