 Gaussian 16, Revision C.01,
 Gaussian 16:  ES64L-G16RevC.01  3-Jul-2019

 -----------------------------------------
 # sp b3lyp/6-311g** Force nosymm scf=(qc)
 -----------------------------------------

 -------------------
 Title Card Required
 -------------------
 Symbolic Z-matrix:
 Charge =  0 Multiplicity = 2

                          Input orientation:
 ---------------------------------------------------------------------
 Center     Atomic      Atomic             Coordinates (Angstroms)
 Number     Number       Type             X           Y           Z
 ---------------------------------------------------------------------
      1          1           0        0.000000    0.000000    0.000000
      2          1           0       -0.600000    0.000000    0.000000
      3          9           0        1.250000    0.000000    0.000000
 ---------------------------------------------------------------------

 SCF Done:  E(UB3LYP) =  -100.906264810     a.u. after    7 cycles

 Alpha  occ. eigenvalues --  -24.69584  -1.18472  -0.61800  -0.42193  -0.42193
 Alpha  occ. eigenvalues --   -0.40259
 Alpha virt. eigenvalues --    0.12341   0.19039   0.54866   0.87454   0.87454
 Alpha virt. eigenvalues --    0.95692   1.11851   1.11851   1.49207   1.61098
 Alpha virt. eigenvalues --    1.87349   1.88759   1.88759   2.44077   3.78645

  Beta  occ. eigenvalues --  -24.67155  -1.12094  -0.53511  -0.39900  -0.39900
  Beta virt. eigenvalues --   -0.20683   0.13636   0.19795   0.58434   0.88858
  Beta virt. eigenvalues --    0.88858   1.00917   1.14789   1.14789   1.52572
  Beta virt. eigenvalues --    1.65456   1.88471   1.90958   1.90958   2.48817

 Mulliken charges and spin densities:
               1          2
     1  H    0.220528  -0.019514
     2  H   -0.028680   0.328480
     3  F   -0.191848   0.691033
 Sum of Mulliken charges =   0.00000   1.00000

 Dipole moment (field-independent basis, Debye):
    X=             -1.2278    Y=              0.0000    Z=              0.0000  Tot=              1.2278
 Quadrupole moment (field-independent basis, Debye-Ang):
   XX=             -7.0354   YY=             -6.5183   ZZ=             -6.5183
   XY=              0.0000   XZ=              0.0000   YZ=              0.0000

  Exact polarizability:      14.592      -0.000       2.380      -0.000      -0.000       2.380
 Approx polarizability:      17.975      -0.000       2.435      -0.000      -0.000       2.435

 ******    2 imaginary frequencies (negative Signs) ******

                      1                      2                      3
                      A                      A                      A
 Frequencies --  -3089.8508             -3089.8508               983.7579
 Red. masses --      1.0115                 1.0115                 1.1084
 Frc consts  --      5.6896                 5.6896                 0.6320
 IR Inten    --      3.3214                 3.3214                37.7021

                      4
                      A
 Frequencies --   6686.1340
 Red. masses --      1.0079
 Frc consts  --     26.5484
 IR Inten    --    464.3085

 - Thermochemistry -
 -------------------
 Temperature   298.150 Kelvin.  Pressure   1.00000 Atm.
 Atom     1 has atomic number  1 and mass   1.00783

 Molecular mass:    21.01405 amu.
 Principal axes and moments of inertia in atomic units:
                           1         2         3
     Eigenvalues --     0.00000  16.28231  16.28231
           X            1.00000  -0.00000   0.00000
           Y            0.00000   1.00000   0.00000
           Z            0.00000   0.00000   1.00000
 This molecule is a prolate symmetric top.
 Rotational symmetry number  1.
 Rotational temperature (Kelvin)      5.31951
 Rotational constant (GHZ):         110.840645
    2 imaginary frequencies ignored.
 Zero-point vibrational energy      45876.1 (Joules/Mol)
                                   10.96466 (Kcal/Mol)
 Vibrational temperatures:   1415.41  9619.86
          (Kelvin)

 Zero-point correction=                           0.017473 (Hartree/Particle)
 Thermal correction to Energy=                    0.019873
 Thermal correction to Enthalpy=                  0.020817
 Thermal correction to Gibbs Free Energy=        -0.001292
 Sum of electronic and zero-point Energies=           -100.888792
 Sum of electronic and thermal Energies=              -100.886392
 Sum of electronic and thermal Enthalpies=            -100.885448
 Sum of electronic and thermal Free Energies=         -100.907557

                     E (Thermal)             CV                S
                      KCal/Mol        Cal/Mol-Kelvin    Cal/Mol-Kelvin
 Total                   12.470              5.363             46.533
 Electronic               0.000              0.000              1.377
 Translational            0.889              2.981             35.068
 Rotational               0.592              1.987              9.988
 Vibrational             10.989              0.395              0.100

 Normal termination of Gaussian 16 at Fri Aug 22 16:11:34 2025.
