 Gaussian 16, Revision C.01,
 Gaussian 16:  ES64L-G16RevC.01  3-Jul-2019

 -----------------------------------------
 # sp b3lyp/6-311g** Force nosymm scf=(qc)
 -----------------------------------------

 -------------------
 Title Card Required
 -------------------
 Symbolic Z-matrix:
 Charge =  0 Multiplicity = 2

                          Input orientation:
 ---------------------------------------------------------------------
 Center     Atomic      Atomic             Coordinates (Angstroms)
 Number     Number       Type             X           Y           Z
 ---------------------------------------------------------------------
      1          1           0        0.000000    0.000000    0.000000
      2          1           0       -2.500000    0.000000    0.000000
      3          9           0        1.100000    0.000000    0.000000
 ---------------------------------------------------------------------

 SCF Done:  E(UB3LYP) =  -100.948985419     a.u. after    5 cycles

 Alpha  occ. eigenvalues --  -24.64123  -1.13735  -0.49556  -0.37955  -0.37955
 Alpha  occ. eigenvalues --   -0.35165
 Alpha virt. eigenvalues --   -0.01452   0.24872   0.30634   0.93710   0.93710
 Alpha virt. eigenvalues --    0.99651   1.20248   1.22378   1.22378   1.35378
 Alpha virt. eigenvalues --    1.35378   1.35834   1.80565   2.13432   2.32637

  Beta  occ. eigenvalues --  -24.64091  -1.13655  -0.49419  -0.37927  -0.37927
  Beta virt. eigenvalues --   -0.10655   0.00623   0.30645   0.36770   0.93712
  Beta virt. eigenvalues --    0.93712   0.99734   1.28729   1.35316   1.35316
  Beta virt. eigenvalues --    1.43776   1.43776   1.47959   1.80742   2.32072

 Mulliken charges and spin densities:
               1          2
     1  H    0.334289   0.001647
     2  H    0.008602   0.988628
     3  F   -0.342892   0.009725
 Sum of Mulliken charges =   0.00000   1.00000

 Dipole moment (field-independent basis, Debye):
    X=             -2.2699    Y=              0.0000    Z=             -0.0000  Tot=              2.2699
 Quadrupole moment (field-independent basis, Debye-Ang):
   XX=             -8.2572   YY=             -7.0418   ZZ=             -7.0418
   XY=              0.0000   XZ=             -0.0000   YZ=              0.0000

  Exact polarizability:      10.613       0.000       2.390      -0.000      -0.000       2.390
 Approx polarizability:      12.783       0.000       2.358      -0.000      -0.000       2.358

 ******    1 imaginary frequencies (negative Signs) ******

                      1                      2                      3
                      A                      A                      A
 Frequencies --   -134.8663              1161.7840              1161.7840
 Red. masses --      1.0518                 1.0301                 1.0301
 Frc consts  --      0.0113                 0.8192                 0.8192
 IR Inten    --      1.9765               142.1583               142.1583

                      4
                      A
 Frequencies --   1913.0598
 Red. masses --      1.0597
 Frc consts  --      2.2851
 IR Inten    --    123.1490

 - Thermochemistry -
 -------------------
 Temperature   298.150 Kelvin.  Pressure   1.00000 Atm.
 Atom     1 has atomic number  1 and mass   1.00783

 Molecular mass:    21.01405 amu.
 Principal axes and moments of inertia in atomic units:
                           1         2         3
     Eigenvalues --     0.00000  47.18506  47.18506
           X            1.00000  -0.00000   0.00000
           Y            0.00000   1.00000   0.00000
           Z            0.00000   0.00000   1.00000
 This molecule is a prolate symmetric top.
 Rotational symmetry number  1.
 Rotational temperature (Kelvin)      1.83562
 Rotational constant (GHZ):          38.248146
    1 imaginary frequencies ignored.
 Zero-point vibrational energy      25340.7 (Joules/Mol)
                                    6.05656 (Kcal/Mol)
 Vibrational temperatures:   1671.55  1671.55  2752.47
          (Kelvin)

 Zero-point correction=                           0.009652 (Hartree/Particle)
 Thermal correction to Energy=                    0.012052
 Thermal correction to Enthalpy=                  0.012996
 Thermal correction to Gibbs Free Energy=        -0.010117
 Sum of electronic and zero-point Energies=           -100.939334
 Sum of electronic and thermal Energies=              -100.936933
 Sum of electronic and thermal Enthalpies=            -100.935989
 Sum of electronic and thermal Free Energies=         -100.959103

                     E (Thermal)             CV                S
                      KCal/Mol        Cal/Mol-Kelvin    Cal/Mol-Kelvin
 Total                    7.563              5.447             48.647
 Electronic               0.000              0.000              1.377
 Translational            0.889              2.981             35.068
 Rotational               0.592              1.987             12.102
 Vibrational              6.082              0.479              0.099

 Normal termination of Gaussian 16 at Fri Aug 22 16:05:40 2025.
