 Gaussian 16, Revision C.01,
 Gaussian 16:  ES64L-G16RevC.01  3-Jul-2019

 -----------------------------------------
 # sp b3lyp/6-311g** Force nosymm scf=(qc)
 -----------------------------------------

 -------------------
 Title Card Required
 -------------------
 Symbolic Z-matrix:
 Charge =  0 Multiplicity = 2

                          Input orientation:
 ---------------------------------------------------------------------
 Center     Atomic      Atomic             Coordinates (Angstroms)
 Number     Number       Type             X           Y           Z
 ---------------------------------------------------------------------
      1          1           0        0.000000    0.000000    0.000000
      2          1           0       -1.750000    0.000000    0.000000
      3          9           0        2.000000    0.000000    0.000000
 ---------------------------------------------------------------------

 SCF Done:  E(UB3LYP) =  -100.812703939     a.u. after   12 cycles

 Alpha  occ. eigenvalues --  -24.68596  -1.14947  -0.47838  -0.40068  -0.40068
 Alpha  occ. eigenvalues --   -0.37214
 Alpha virt. eigenvalues --   -0.12589   0.23235   0.30733   0.85782   0.94656
 Alpha virt. eigenvalues --    0.94656   1.03356   1.20048   1.20048   1.27837
 Alpha virt. eigenvalues --    1.34571   1.34571   1.67938   2.13815   2.36434

  Beta  occ. eigenvalues --  -24.66145  -1.08080  -0.37649  -0.37649  -0.37311
  Beta virt. eigenvalues --   -0.22298  -0.11104   0.25834   0.30445   0.88941
  Beta virt. eigenvalues --    0.95489   0.95489   1.07458   1.22337   1.22337
  Beta virt. eigenvalues --    1.34005   1.35410   1.35410   1.68215   2.14602

 Mulliken charges and spin densities:
               1          2
     1  H    0.117759  -0.537228
     2  H    0.057402   0.767232
     3  F   -0.175161   0.769996
 Sum of Mulliken charges =  -0.00000   1.00000

 Dipole moment (field-independent basis, Debye):
    X=             -2.2237    Y=             -0.0000    Z=             -0.0000  Tot=              2.2237
 Quadrupole moment (field-independent basis, Debye-Ang):
   XX=             -8.2689   YY=             -7.5524   ZZ=             -7.5524
   XY=              0.0000   XZ=             -0.0000   YZ=              0.0000

  Exact polarizability:      53.241       0.000       2.078      -0.000      -0.000       2.078
 Approx polarizability:      71.150      -0.000       2.003       0.000       0.000       2.003

 ******    2 imaginary frequencies (negative Signs) ******

                      1                      2                      3
                      A                      A                      A
 Frequencies --  -1929.9551              -570.8652               822.0137
 Red. masses --      1.0134                 1.1018                 1.0164
 Frc consts  --      2.2240                 0.2116                 0.4046
 IR Inten    --    286.1202                30.8548                 6.3745

                      4
                      A
 Frequencies --    822.0137
 Red. masses --      1.0164
 Frc consts  --      0.4046
 IR Inten    --      6.3745

 - Thermochemistry -
 -------------------
 Temperature   298.150 Kelvin.  Pressure   1.00000 Atm.
 Atom     1 has atomic number  1 and mass   1.00783

 Molecular mass:    21.01405 amu.
 Principal axes and moments of inertia in atomic units:
                           1         2         3
     Eigenvalues --     0.00000  59.30028  59.30028
           X            1.00000  -0.00000   0.00000
           Y            0.00000   1.00000   0.00000
           Z            0.00000   0.00000   1.00000
 This molecule is a prolate symmetric top.
 Rotational symmetry number  1.
 Rotational temperature (Kelvin)      1.46060
 Rotational constant (GHZ):          30.433943
    2 imaginary frequencies ignored.
 Zero-point vibrational energy       9833.5 (Joules/Mol)
                                    2.35026 (Kcal/Mol)
 Vibrational temperatures:   1182.69  1182.69
          (Kelvin)

 Zero-point correction=                           0.003745 (Hartree/Particle)
 Thermal correction to Energy=                    0.006250
 Thermal correction to Enthalpy=                  0.007195
 Thermal correction to Gibbs Free Energy=        -0.016269
 Sum of electronic and zero-point Energies=           -100.808959
 Sum of electronic and thermal Energies=              -100.806454
 Sum of electronic and thermal Enthalpies=            -100.805509
 Sum of electronic and thermal Free Energies=         -100.828972

                     E (Thermal)             CV                S
                      KCal/Mol        Cal/Mol-Kelvin    Cal/Mol-Kelvin
 Total                    3.922              6.198             49.382
 Electronic               0.000              0.000              1.377
 Translational            0.889              2.981             35.068
 Rotational               0.592              1.987             12.557
 Vibrational              2.441              1.230              0.380

 Normal termination of Gaussian 16 at Fri Aug 22 16:56:16 2025.
