 Gaussian 16, Revision C.01,
 Gaussian 16:  ES64L-G16RevC.01  3-Jul-2019

 -----------------------------------------
 # sp b3lyp/6-311g** Force nosymm scf=(qc)
 -----------------------------------------

 -------------------
 Title Card Required
 -------------------
 Symbolic Z-matrix:
 Charge =  0 Multiplicity = 2

                          Input orientation:
 ---------------------------------------------------------------------
 Center     Atomic      Atomic             Coordinates (Angstroms)
 Number     Number       Type             X           Y           Z
 ---------------------------------------------------------------------
      1          1           0        0.000000    0.000000    0.000000
      2          1           0       -3.800000    0.000000    0.000000
      3          9           0        3.800000    0.000000    0.000000
 ---------------------------------------------------------------------

 SCF Done:  E(UB3LYP) =  -100.758560535     a.u. after   35 cycles

 Alpha  occ. eigenvalues --  -24.75750  -1.21686  -0.54874  -0.46073  -0.46073
 Alpha  occ. eigenvalues --   -0.32253
 Alpha virt. eigenvalues --   -0.06270   0.24195   0.37675   0.86854   0.91254
 Alpha virt. eigenvalues --    0.91254   1.01266   1.25243   1.25243   1.25292
 Alpha virt. eigenvalues --    1.46149   1.46173   1.46173   2.14727   2.42024

  Beta  occ. eigenvalues --  -24.72612  -1.12666  -0.42928  -0.42928  -0.32537
  Beta virt. eigenvalues --   -0.25667  -0.06018   0.23996   0.38185   0.92750
  Beta virt. eigenvalues --    0.92750   0.96156   1.05360   1.24930   1.24930
  Beta virt. eigenvalues --    1.24962   1.46450   1.46601   1.46601   2.14752

 Mulliken charges and spin densities:
               1          2
     1  H    0.004722  -0.993709
     2  H    0.000044   0.998976
     3  F   -0.004766   0.994732
 Sum of Mulliken charges =  -0.00000   1.00000

 Dipole moment (field-independent basis, Debye):
    X=             -0.0943    Y=              0.0000    Z=              0.0000  Tot=              0.0943
 Quadrupole moment (field-independent basis, Debye-Ang):
   XX=             -7.0640   YY=             -7.6200   ZZ=             -7.6200
   XY=             -0.0000   XZ=             -0.0000   YZ=             -0.0000

  Exact polarizability:      14.864      -0.000       2.033      -0.000      -0.000       2.033
 Approx polarizability:      10.970      -0.000       1.936      -0.000       0.000       1.936

 ******    2 imaginary frequencies (negative Signs) ******

                      1                      2                      3
                      A                      A                      A
 Frequencies --   -169.4861               -71.9380                53.0845
 Red. masses --      1.0260                 1.0873                 1.0179
 Frc consts  --      0.0174                 0.0033                 0.0017
 IR Inten    --      2.9800                 0.4065                 0.0218

                      4
                      A
 Frequencies --     53.0845
 Red. masses --      1.0179
 Frc consts  --      0.0017
 IR Inten    --      0.0218

 - Thermochemistry -
 -------------------
 Temperature   298.150 Kelvin.  Pressure   1.00000 Atm.
 Atom     1 has atomic number  1 and mass   1.00783

 Molecular mass:    21.01405 amu.
 Principal axes and moments of inertia in atomic units:
                           1         2         3
     Eigenvalues --     0.00000 237.41642 237.41642
           X            1.00000  -0.00000   0.00000
           Y            0.00000   1.00000   0.00000
           Z            0.00000   0.00000   1.00000
 This molecule is a prolate symmetric top.
 Rotational symmetry number  1.
 Rotational temperature (Kelvin)      0.36482
 Rotational constant (GHZ):           7.601585
    2 imaginary frequencies ignored.
 Zero-point vibrational energy        635.0 (Joules/Mol)
                                    0.15178 (Kcal/Mol)
 Warning -- explicit consideration of   2 degrees of freedom as
           vibrations may cause significant error
 Vibrational temperatures:     76.38    76.38
          (Kelvin)

 Zero-point correction=                           0.000242 (Hartree/Particle)
 Thermal correction to Energy=                    0.004259
 Thermal correction to Enthalpy=                  0.005203
 Thermal correction to Gibbs Free Energy=        -0.023854
 Sum of electronic and zero-point Energies=           -100.758319
 Sum of electronic and thermal Energies=              -100.754301
 Sum of electronic and thermal Enthalpies=            -100.753357
 Sum of electronic and thermal Free Energies=         -100.782415

                     E (Thermal)             CV                S
                      KCal/Mol        Cal/Mol-Kelvin    Cal/Mol-Kelvin
 Total                    2.673              8.921             61.157
 Electronic               0.000              0.000              1.377
 Translational            0.889              2.981             35.068
 Rotational               0.592              1.987             15.313
 Vibrational              1.191              3.953              9.398
 Vibration     1          0.596              1.976              4.699
 Vibration     2          0.596              1.976              4.699

 Normal termination of Gaussian 16 at Sat Aug 23 00:52:47 2025.
