 Gaussian 16, Revision C.01,
 Gaussian 16:  ES64L-G16RevC.01  3-Jul-2019

 -----------------------------------------
 # sp b3lyp/6-311g** Force nosymm scf=(qc)
 -----------------------------------------

 -------------------
 Title Card Required
 -------------------
 Symbolic Z-matrix:
 Charge =  0 Multiplicity = 2

                          Input orientation:
 ---------------------------------------------------------------------
 Center     Atomic      Atomic             Coordinates (Angstroms)
 Number     Number       Type             X           Y           Z
 ---------------------------------------------------------------------
      1          1           0        0.000000    0.000000    0.000000
      2          1           0       -2.900000    0.000000    0.000000
      3          9           0        3.000000    0.000000    0.000000
 ---------------------------------------------------------------------

 SCF Done:  E(UB3LYP) =  -100.762248716     a.u. after   21 cycles

 Alpha  occ. eigenvalues --  -24.74112  -1.20169  -0.53230  -0.44696  -0.44696
 Alpha  occ. eigenvalues --   -0.32769
 Alpha virt. eigenvalues --   -0.09290   0.24826   0.34788   0.89466   0.92260
 Alpha virt. eigenvalues --    0.92260   1.03941   1.24783   1.24783   1.25814
 Alpha virt. eigenvalues --    1.42068   1.42068   1.42613   2.15585   2.38567

  Beta  occ. eigenvalues --  -24.71084  -1.11490  -0.41665  -0.41665  -0.33768
  Beta virt. eigenvalues --   -0.24796  -0.07914   0.24854   0.36351   0.93722
  Beta virt. eigenvalues --    0.93722   0.98197   1.07757   1.23618   1.23618
  Beta virt. eigenvalues --    1.24739   1.44227   1.44227   1.44355   2.16123

 Mulliken charges and spin densities:
               1          2
     1  H    0.034493  -0.949969
     2  H    0.002083   0.990371
     3  F   -0.036577   0.959598
 Sum of Mulliken charges =  -0.00000   1.00000

 Dipole moment (field-independent basis, Debye):
    X=             -0.5923    Y=              0.0000    Z=              0.0000  Tot=              0.5923
 Quadrupole moment (field-independent basis, Debye-Ang):
   XX=             -8.1600   YY=             -7.6262   ZZ=             -7.6262
   XY=             -0.0000   XZ=             -0.0000   YZ=             -0.0000

  Exact polarizability:      36.206      -0.000       2.021      -0.000      -0.000       2.021
 Approx polarizability:      34.901      -0.000       1.924      -0.000       0.000       1.924

 ******    2 imaginary frequencies (negative Signs) ******

                      1                      2                      3
                      A                      A                      A
 Frequencies --   -474.2038              -200.2386               175.6173
 Red. masses --      1.0210                 1.0930                 1.0175
 Frc consts  --      0.1353                 0.0258                 0.0185
 IR Inten    --     32.1953                 8.0946                 1.0409

                      4
                      A
 Frequencies --    175.6173
 Red. masses --      1.0175
 Frc consts  --      0.0185
 IR Inten    --      1.0409

 - Thermochemistry -
 -------------------
 Temperature   298.150 Kelvin.  Pressure   1.00000 Atm.
 Atom     1 has atomic number  1 and mass   1.00783

 Molecular mass:    21.01405 amu.
 Principal axes and moments of inertia in atomic units:
                           1         2         3
     Eigenvalues --     0.00000 144.00037 144.00037
           X            1.00000  -0.00000   0.00000
           Y            0.00000   1.00000   0.00000
           Z            0.00000   0.00000   1.00000
 This molecule is a prolate symmetric top.
 Rotational symmetry number  1.
 Rotational temperature (Kelvin)      0.60148
 Rotational constant (GHZ):          12.532893
    2 imaginary frequencies ignored.
 Zero-point vibrational energy       2100.8 (Joules/Mol)
                                    0.50212 (Kcal/Mol)
 Warning -- explicit consideration of   2 degrees of freedom as
           vibrations may cause significant error
 Vibrational temperatures:    252.67   252.67
          (Kelvin)

 Zero-point correction=                           0.000800 (Hartree/Particle)
 Thermal correction to Energy=                    0.004361
 Thermal correction to Enthalpy=                  0.005305
 Thermal correction to Gibbs Free Energy=        -0.021072
 Sum of electronic and zero-point Energies=           -100.761449
 Sum of electronic and thermal Energies=              -100.757888
 Sum of electronic and thermal Enthalpies=            -100.756944
 Sum of electronic and thermal Free Energies=         -100.783321

                     E (Thermal)             CV                S
                      KCal/Mol        Cal/Mol-Kelvin    Cal/Mol-Kelvin
 Total                    2.736              8.713             55.514
 Electronic               0.000              0.000              1.377
 Translational            0.889              2.981             35.068
 Rotational               0.592              1.987             14.320
 Vibrational              1.255              3.745              4.749
 Vibration     1          0.628              1.872              2.374
 Vibration     2          0.628              1.872              2.374

 Normal termination of Gaussian 16 at Fri Aug 22 19:32:31 2025.
