 Gaussian 16, Revision C.01,
 Gaussian 16:  ES64L-G16RevC.01  3-Jul-2019

 -----------------------------------------
 # sp b3lyp/6-311g** Force nosymm scf=(qc)
 -----------------------------------------

 -------------------
 Title Card Required
 -------------------
 Symbolic Z-matrix:
 Charge =  0 Multiplicity = 2

                          Input orientation:
 ---------------------------------------------------------------------
 Center     Atomic      Atomic             Coordinates (Angstroms)
 Number     Number       Type             X           Y           Z
 ---------------------------------------------------------------------
      1          1           0        0.000000    0.000000    0.000000
      2          1           0       -1.150000    0.000000    0.000000
      3          9           0        3.150000    0.000000    0.000000
 ---------------------------------------------------------------------

 SCF Done:  E(UB3LYP) =  -100.881168503     a.u. after   74 cycles

 Alpha  occ. eigenvalues --  -24.76576  -1.22411  -0.55604  -0.46832  -0.46756
 Alpha  occ. eigenvalues --   -0.36797
 Alpha virt. eigenvalues --   -0.02834   0.22584   0.35343   0.85835   0.90709
 Alpha virt. eigenvalues --    0.93178   1.02962   1.11884   1.11889   1.25976
 Alpha virt. eigenvalues --    1.57185   1.57190   2.12947   2.33522   2.55530

  Beta  occ. eigenvalues --  -24.73416  -1.13328  -0.43671  -0.43588  -0.36787
  Beta virt. eigenvalues --   -0.26235  -0.02820   0.22602   0.35409   0.92208
  Beta virt. eigenvalues --    0.94796   0.95295   1.06903   1.11883   1.11888
  Beta virt. eigenvalues --    1.25985   1.57184   1.57189   2.12957   2.33526

 Mulliken charges and spin densities:
               1          2
     1  H   -0.001308  -0.000362
     2  H   -0.004991  -0.000436
     3  F    0.006299   1.000798
 Sum of Mulliken charges =   0.00000   1.00000

 Dipole moment (field-independent basis, Debye):
    X=              0.0838    Y=              0.0000    Z=              0.0000  Tot=              0.0838
 Quadrupole moment (field-independent basis, Debye-Ang):
   XX=             -6.1765   YY=             -7.0174   ZZ=             -7.0149
   XY=             -0.0000   XZ=             -0.0000   YZ=              0.4319

  Exact polarizability:      15.342      -0.000       2.310      -0.000       0.231       2.311
 Approx polarizability:      22.054      -0.000       2.403      -0.000       0.290       2.404

                      1                      2                      3
                      A                      A                      A
 Frequencies --     43.6250               585.3116              1502.7831
 Red. masses --      1.1085                 1.0078                 1.0102
 Frc consts  --      0.0012                 0.2034                 1.3441
 IR Inten    --      0.3513                 0.5404                 0.0006

                      4
                      A
 Frequencies --   1502.8661
 Red. masses --      1.0102
 Frc consts  --      1.3443
 IR Inten    --      0.0008

 - Thermochemistry -
 -------------------
 Temperature   298.150 Kelvin.  Pressure   1.00000 Atm.
 Atom     1 has atomic number  1 and mass   1.00783

 Molecular mass:    21.01405 amu.
 Principal axes and moments of inertia in atomic units:
                           1         2         3
     Eigenvalues --     0.00000  92.67671  92.67671
           X            1.00000  -0.00000   0.00000
           Y            0.00000   1.00000   0.00000
           Z            0.00000   0.00000   1.00000
 This molecule is a prolate symmetric top.
 Rotational symmetry number  1.
 Rotational temperature (Kelvin)      0.93458
 Rotational constant (GHZ):          19.473513
 Zero-point vibrational energy      21739.7 (Joules/Mol)
                                    5.19590 (Kcal/Mol)
 Warning -- explicit consideration of   2 degrees of freedom as
           vibrations may cause significant error
 Vibrational temperatures:     62.77   842.13  2162.17  2162.29
          (Kelvin)

 Zero-point correction=                           0.008280 (Hartree/Particle)
 Thermal correction to Energy=                    0.011667
 Thermal correction to Enthalpy=                  0.012611
 Thermal correction to Gibbs Free Energy=        -0.013747
 Sum of electronic and zero-point Energies=           -100.872888
 Sum of electronic and thermal Energies=              -100.869502
 Sum of electronic and thermal Enthalpies=            -100.868557
 Sum of electronic and thermal Free Energies=         -100.894916

                     E (Thermal)             CV                S
                      KCal/Mol        Cal/Mol-Kelvin    Cal/Mol-Kelvin
 Total                    7.321              8.159             55.476
 Electronic               0.000              0.000              1.377
 Translational            0.889              2.981             35.068
 Rotational               0.592              1.987             13.444
 Vibrational              5.840              3.191              5.586
 Vibration     1          0.595              1.980              5.087
 Vibration     2          0.942              1.063              0.476

 Normal termination of Gaussian 16 at Fri Aug 22 20:04:28 2025.
