 Gaussian 16, Revision C.01,
 Gaussian 16:  ES64L-G16RevC.01  3-Jul-2019

 -----------------------------------------
 # sp b3lyp/6-311g** Force nosymm scf=(qc)
 -----------------------------------------

 -------------------
 Title Card Required
 -------------------
 Symbolic Z-matrix:
 Charge =  0 Multiplicity = 2

                          Input orientation:
 ---------------------------------------------------------------------
 Center     Atomic      Atomic             Coordinates (Angstroms)
 Number     Number       Type             X           Y           Z
 ---------------------------------------------------------------------
      1          1           0        0.000000    0.000000    0.000000
      2          1           0       -0.550000    0.000000    0.000000
      3          9           0        1.150000    0.000000    0.000000
 ---------------------------------------------------------------------

 SCF Done:  E(UB3LYP) =  -100.873120655     a.u. after    7 cycles

 Alpha  occ. eigenvalues --  -24.68920  -1.19305  -0.64656  -0.42183  -0.42183
 Alpha  occ. eigenvalues --   -0.38245
 Alpha virt. eigenvalues --    0.13070   0.18759   0.60922   0.87041   0.87041
 Alpha virt. eigenvalues --    0.94700   1.13235   1.13235   1.51664   1.64270
 Alpha virt. eigenvalues --    1.85436   1.90066   1.90066   2.51663   3.78691

  Beta  occ. eigenvalues --  -24.66609  -1.13372  -0.56240  -0.40034  -0.40034
  Beta virt. eigenvalues --   -0.18917   0.14552   0.19413   0.64837   0.88605
  Beta virt. eigenvalues --    0.88605   0.99547   1.16425   1.16425   1.54451
  Beta virt. eigenvalues --    1.69705   1.86754   1.92826   1.92826   2.56946

 Mulliken charges and spin densities:
               1          2
     1  H    0.247128  -0.013042
     2  H   -0.047643   0.383372
     3  F   -0.199485   0.629670
 Sum of Mulliken charges =   0.00000   1.00000

 Dipole moment (field-independent basis, Debye):
    X=             -1.2285    Y=             -0.0000    Z=             -0.0000  Tot=              1.2285
 Quadrupole moment (field-independent basis, Debye-Ang):
   XX=             -7.1041   YY=             -6.4271   ZZ=             -6.4271
   XY=             -0.0000   XZ=             -0.0000   YZ=             -0.0000

  Exact polarizability:      12.862      -0.000       2.408      -0.000      -0.000       2.408
 Approx polarizability:      15.506      -0.000       2.472      -0.000      -0.000       2.472

 ******    2 imaginary frequencies (negative Signs) ******

                      1                      2                      3
                      A                      A                      A
 Frequencies --  -4038.7178             -4038.7178              1463.1483
 Red. masses --      1.0115                 1.0115                 1.1084
 Frc consts  --      9.7204                 9.7204                 1.3981
 IR Inten    --      5.6647                 5.6647                10.7887

                      4
                      A
 Frequencies --   7996.8230
 Red. masses --      1.0079
 Frc consts  --     37.9746
 IR Inten    --    312.5096

 - Thermochemistry -
 -------------------
 Temperature   298.150 Kelvin.  Pressure   1.00000 Atm.
 Atom     1 has atomic number  1 and mass   1.00783

 Molecular mass:    21.01405 amu.
 Principal axes and moments of inertia in atomic units:
                           1         2         3
     Eigenvalues --     0.00000  13.75882  13.75882
           X            1.00000  -0.00000   0.00000
           Y            0.00000   1.00000   0.00000
           Z            0.00000   0.00000   1.00000
 This molecule is a prolate symmetric top.
 Rotational symmetry number  1.
 Rotational temperature (Kelvin)      6.29515
 Rotational constant (GHZ):         131.169730
    2 imaginary frequencies ignored.
 Zero-point vibrational energy      56583.2 (Joules/Mol)
                                   13.52371 (Kcal/Mol)
 Vibrational temperatures:   2105.14 11505.64
          (Kelvin)

 Zero-point correction=                           0.021551 (Hartree/Particle)
 Thermal correction to Energy=                    0.023918
 Thermal correction to Enthalpy=                  0.024862
 Thermal correction to Gibbs Free Energy=         0.002952
 Sum of electronic and zero-point Energies=           -100.851569
 Sum of electronic and thermal Energies=              -100.849203
 Sum of electronic and thermal Enthalpies=            -100.848259
 Sum of electronic and thermal Free Energies=         -100.870168

                     E (Thermal)             CV                S
                      KCal/Mol        Cal/Mol-Kelvin    Cal/Mol-Kelvin
 Total                   15.009              5.053             46.113
 Electronic               0.000              0.000              1.377
 Translational            0.889              2.981             35.068
 Rotational               0.592              1.987              9.653
 Vibrational             13.527              0.085              0.014

 Normal termination of Gaussian 16 at Fri Aug 22 16:06:42 2025.
