 Gaussian 16, Revision C.01,
 Gaussian 16:  ES64L-G16RevC.01  3-Jul-2019

 -----------------------------------------
 # sp b3lyp/6-311g** Force nosymm scf=(qc)
 -----------------------------------------

 -------------------
 Title Card Required
 -------------------
 Symbolic Z-matrix:
 Charge =  0 Multiplicity = 2

                          Input orientation:
 ---------------------------------------------------------------------
 Center     Atomic      Atomic             Coordinates (Angstroms)
 Number     Number       Type             X           Y           Z
 ---------------------------------------------------------------------
      1          1           0        0.000000    0.000000    0.000000
      2          1           0       -1.050000    0.000000    0.000000
      3          9           0        1.400000    0.000000    0.000000
 ---------------------------------------------------------------------

 SCF Done:  E(UB3LYP) =  -100.925656947     a.u. after    8 cycles

 Alpha  occ. eigenvalues --  -24.67425  -1.14917  -0.52849  -0.39747  -0.39747
 Alpha  occ. eigenvalues --   -0.39641
 Alpha virt. eigenvalues --    0.03508   0.19722   0.33873   0.90137   0.90137
 Alpha virt. eigenvalues --    0.99260   1.08047   1.08047   1.20802   1.60394
 Alpha virt. eigenvalues --    1.60394   1.62467   2.19869   2.30770   2.45669

  Beta  occ. eigenvalues --  -24.65452  -1.09627  -0.44888  -0.37860  -0.37860
  Beta virt. eigenvalues --   -0.22718   0.06218   0.21622   0.36366   0.91043
  Beta virt. eigenvalues --    0.91043   1.03943   1.12028   1.12028   1.24911
  Beta virt. eigenvalues --    1.62711   1.62711   1.66173   2.24310   2.34615

 Mulliken charges and spin densities:
               1          2
     1  H    0.202462  -0.104861
     2  H    0.052244   0.511473
     3  F   -0.254707   0.593388
 Sum of Mulliken charges =  -0.00000   1.00000

 Dipole moment (field-independent basis, Debye):
    X=             -2.0431    Y=             -0.0000    Z=             -0.0000  Tot=              2.0431
 Quadrupole moment (field-independent basis, Debye-Ang):
   XX=             -7.5542   YY=             -6.9867   ZZ=             -6.9867
   XY=             -0.0000   XZ=             -0.0000   YZ=             -0.0000

  Exact polarizability:      27.166      -0.000       2.421      -0.000      -0.000       2.421
 Approx polarizability:      39.528      -0.000       2.408      -0.000      -0.000       2.408

 ******    1 imaginary frequencies (negative Signs) ******

                      1                      2                      3
                      A                      A                      A
 Frequencies --  -2266.2982               884.3873              1195.2384
 Red. masses --      1.0327                 1.0799                 1.0148
 Frc consts  --      3.1252                 0.4976                 0.8542
 IR Inten    --    807.2786                82.4596                10.7600

                      4
                      A
 Frequencies --   1195.2384
 Red. masses --      1.0148
 Frc consts  --      0.8542
 IR Inten    --     10.7600

 - Thermochemistry -
 -------------------
 Temperature   298.150 Kelvin.  Pressure   1.00000 Atm.
 Atom     1 has atomic number  1 and mass   1.00783

 Molecular mass:    21.01405 amu.
 Principal axes and moments of inertia in atomic units:
                           1         2         3
     Eigenvalues --     0.00000  26.09864  26.09864
           X            1.00000  -0.00000   0.00000
           Y            0.00000   1.00000   0.00000
           Z            0.00000   0.00000   1.00000
 This molecule is a prolate symmetric top.
 Rotational symmetry number  1.
 Rotational temperature (Kelvin)      3.31871
 Rotational constant (GHZ):          69.150777
    1 imaginary frequencies ignored.
 Zero-point vibrational energy      19588.0 (Joules/Mol)
                                    4.68165 (Kcal/Mol)
 Vibrational temperatures:   1272.44  1719.68  1719.68
          (Kelvin)

 Zero-point correction=                           0.007461 (Hartree/Particle)
 Thermal correction to Energy=                    0.009913
 Thermal correction to Enthalpy=                  0.010857
 Thermal correction to Gibbs Free Energy=        -0.011761
 Sum of electronic and zero-point Energies=           -100.918196
 Sum of electronic and thermal Energies=              -100.915744
 Sum of electronic and thermal Enthalpies=            -100.914800
 Sum of electronic and thermal Free Energies=         -100.937418

                     E (Thermal)             CV                S
                      KCal/Mol        Cal/Mol-Kelvin    Cal/Mol-Kelvin
 Total                    6.220              5.906             47.604
 Electronic               0.000              0.000              1.377
 Translational            0.889              2.981             35.068
 Rotational               0.592              1.987             10.926
 Vibrational              4.739              0.938              0.233

 Normal termination of Gaussian 16 at Fri Aug 22 16:19:23 2025.
