 Gaussian 16, Revision C.01,
 Gaussian 16:  ES64L-G16RevC.01  3-Jul-2019

 -----------------------------------------
 # sp b3lyp/6-311g** Force nosymm scf=(qc)
 -----------------------------------------

 -------------------
 Title Card Required
 -------------------
 Symbolic Z-matrix:
 Charge =  0 Multiplicity = 2

                          Input orientation:
 ---------------------------------------------------------------------
 Center     Atomic      Atomic             Coordinates (Angstroms)
 Number     Number       Type             X           Y           Z
 ---------------------------------------------------------------------
      1          1           0        0.000000    0.000000    0.000000
      2          1           0       -0.650000    0.000000    0.000000
      3          9           0        0.650000    0.000000    0.000000
 ---------------------------------------------------------------------

 SCF Done:  E(UB3LYP) =  -100.638489950     a.u. after    7 cycles

 Alpha  occ. eigenvalues --  -24.68498  -1.41150  -0.71595  -0.47675  -0.47675
 Alpha  occ. eigenvalues --   -0.28267
 Alpha virt. eigenvalues --    0.16903   0.18550   0.82777   0.84736   0.84736
 Alpha virt. eigenvalues --    0.93263   1.10669   1.10669   1.41652   1.61300
 Alpha virt. eigenvalues --    1.93436   1.93436   2.08561   3.14952   3.73288

  Beta  occ. eigenvalues --  -24.67627  -1.38381  -0.67898  -0.46941  -0.46941
  Beta virt. eigenvalues --   -0.09740   0.17467   0.24035   0.85306   0.86439
  Beta virt. eigenvalues --    0.86439   0.97323   1.16123   1.16123   1.44171
  Beta virt. eigenvalues --    1.66343   1.99020   1.99020   2.15639   3.22029

 Mulliken charges and spin densities:
               1          2
     1  H    0.276113  -0.069626
     2  H   -0.133742   0.954789
     3  F   -0.142370   0.114837
 Sum of Mulliken charges =   0.00000   1.00000

 Dipole moment (field-independent basis, Debye):
    X=             -0.4764    Y=              0.0000    Z=              0.0000  Tot=              0.4764
 Quadrupole moment (field-independent basis, Debye-Ang):
   XX=             -7.5487   YY=             -6.4411   ZZ=             -6.4411
   XY=              0.0000   XZ=              0.0000   YZ=              0.0000

  Exact polarizability:       8.226       0.000       2.461      -0.000      -0.000       2.461
 Approx polarizability:       8.118      -0.000       2.561      -0.000      -0.000       2.561

 ******    2 imaginary frequencies (negative Signs) ******

                      1                      2                      3
                      A                      A                      A
 Frequencies --  -5361.4204             -5361.4204              4495.1916
 Red. masses --      1.0179                 1.0179                 1.0679
 Frc consts  --     17.2399                17.2399                12.7136
 IR Inten    --    135.3155               135.3155               332.5324

                      4
                      A
 Frequencies --  11364.9165
 Red. masses --      1.0439
 Frc consts  --     79.4432
 IR Inten    --     30.2609

 - Thermochemistry -
 -------------------
 Temperature   298.150 Kelvin.  Pressure   1.00000 Atm.
 Atom     1 has atomic number  1 and mass   1.00783

 Molecular mass:    21.01405 amu.
 Principal axes and moments of inertia in atomic units:
                           1         2         3
     Eigenvalues --     0.00000   6.94657   6.94657
           X            1.00000  -0.00000   0.00000
           Y            0.00000   1.00000   0.00000
           Z            0.00000   0.00000   1.00000
 This molecule is a prolate symmetric top.
 Rotational symmetry number  1.
 Rotational temperature (Kelvin)     12.46859
 Rotational constant (GHZ):         259.803297
    2 imaginary frequencies ignored.
 Zero-point vibrational energy      94864.5 (Joules/Mol)
                                   22.67316 (Kcal/Mol)
 Vibrational temperatures:   6467.58 16351.58
          (Kelvin)

 Zero-point correction=                           0.036132 (Hartree/Particle)
 Thermal correction to Energy=                    0.038492
 Thermal correction to Enthalpy=                  0.039437
 Thermal correction to Gibbs Free Energy=         0.018179
 Sum of electronic and zero-point Energies=           -100.602358
 Sum of electronic and thermal Energies=              -100.599998
 Sum of electronic and thermal Enthalpies=            -100.599053
 Sum of electronic and thermal Free Energies=         -100.620311

                     E (Thermal)             CV                S
                      KCal/Mol        Cal/Mol-Kelvin    Cal/Mol-Kelvin
 Total                   24.154              4.968             44.741
 Electronic               0.000              0.000              1.377
 Translational            0.889              2.981             35.068
 Rotational               0.592              1.987              8.295
 Vibrational             22.673              0.000              0.000

 Normal termination of Gaussian 16 at Fri Aug 22 15:43:07 2025.
