 Gaussian 16, Revision C.01,
 Gaussian 16:  ES64L-G16RevC.01  3-Jul-2019

 -----------------------------------------
 # sp b3lyp/6-311g** Force nosymm scf=(qc)
 -----------------------------------------

 -------------------
 Title Card Required
 -------------------
 Symbolic Z-matrix:
 Charge =  0 Multiplicity = 2

                          Input orientation:
 ---------------------------------------------------------------------
 Center     Atomic      Atomic             Coordinates (Angstroms)
 Number     Number       Type             X           Y           Z
 ---------------------------------------------------------------------
      1          1           0        0.000000    0.000000    0.000000
      2          1           0       -1.650000    0.000000    0.000000
      3          9           0        2.650000    0.000000    0.000000
 ---------------------------------------------------------------------

 SCF Done:  E(UB3LYP) =  -100.803757134     a.u. after   21 cycles

 Alpha  occ. eigenvalues --  -24.73475  -1.19576  -0.52615  -0.44169  -0.44169
 Alpha  occ. eigenvalues --   -0.35083
 Alpha virt. eigenvalues --   -0.11742   0.24408   0.30711   0.89875   0.92598
 Alpha virt. eigenvalues --    0.92598   1.03577   1.10520   1.21212   1.21212
 Alpha virt. eigenvalues --    1.36915   1.36915   1.69218   2.16143   2.42485

  Beta  occ. eigenvalues --  -24.70510  -1.11100  -0.41206  -0.41206  -0.34779
  Beta virt. eigenvalues --   -0.24732  -0.11211   0.25692   0.30541   0.94025
  Beta virt. eigenvalues --    0.94025   0.97150   1.05763   1.13850   1.21633
  Beta virt. eigenvalues --    1.21633   1.37404   1.37404   1.69815   2.17169

 Mulliken charges and spin densities:
               1          2
     1  H    0.020243  -0.528035
     2  H    0.032406   0.589962
     3  F   -0.052649   0.938074
 Sum of Mulliken charges =  -0.00000   1.00000

 Dipole moment (field-independent basis, Debye):
    X=             -0.9661    Y=             -0.0000    Z=              0.0000  Tot=              0.9661
 Quadrupole moment (field-independent basis, Debye-Ang):
   XX=             -7.1161   YY=             -7.7091   ZZ=             -7.7091
   XY=              0.0000   XZ=             -0.0000   YZ=              0.0000

  Exact polarizability:      62.490       0.000       2.024      -0.000       0.000       2.024
 Approx polarizability:      77.939       0.000       1.983      -0.000      -0.000       1.983

 ******    2 imaginary frequencies (negative Signs) ******

                      1                      2                      3
                      A                      A                      A
 Frequencies --  -1991.3686              -305.0490               946.5740
 Red. masses --      1.0081                 1.1082                 1.0132
 Frc consts  --      2.3554                 0.0608                 0.5349
 IR Inten    --    261.7166                39.9219                 0.0327

                      4
                      A
 Frequencies --    946.5740
 Red. masses --      1.0132
 Frc consts  --      0.5349
 IR Inten    --      0.0327

 - Thermochemistry -
 -------------------
 Temperature   298.150 Kelvin.  Pressure   1.00000 Atm.
 Atom     1 has atomic number  1 and mass   1.00783

 Molecular mass:    21.01405 amu.
 Principal axes and moments of inertia in atomic units:
                           1         2         3
     Eigenvalues --     0.00000  83.48236  83.48236
           X            1.00000  -0.00000   0.00000
           Y            0.00000   1.00000   0.00000
           Z            0.00000   0.00000   1.00000
 This molecule is a prolate symmetric top.
 Rotational symmetry number  1.
 Rotational temperature (Kelvin)      1.03751
 Rotational constant (GHZ):          21.618234
    2 imaginary frequencies ignored.
 Zero-point vibrational energy      11323.5 (Joules/Mol)
                                    2.70639 (Kcal/Mol)
 Vibrational temperatures:   1361.91  1361.91
          (Kelvin)

 Zero-point correction=                           0.004313 (Hartree/Particle)
 Thermal correction to Energy=                    0.006764
 Thermal correction to Enthalpy=                  0.007708
 Thermal correction to Gibbs Free Energy=        -0.016008
 Sum of electronic and zero-point Energies=           -100.799444
 Sum of electronic and thermal Energies=              -100.796993
 Sum of electronic and thermal Enthalpies=            -100.796049
 Sum of electronic and thermal Free Energies=         -100.819765

                     E (Thermal)             CV                S
                      KCal/Mol        Cal/Mol-Kelvin    Cal/Mol-Kelvin
 Total                    4.244              5.847             49.914
 Electronic               0.000              0.000              1.377
 Translational            0.889              2.981             35.068
 Rotational               0.592              1.987             13.236
 Vibrational              2.763              0.879              0.232

 Normal termination of Gaussian 16 at Fri Aug 22 18:13:55 2025.
