 Gaussian 16, Revision C.01,
 Gaussian 16:  ES64L-G16RevC.01  3-Jul-2019

 -----------------------------------------
 # sp b3lyp/6-311g** Force nosymm scf=(qc)
 -----------------------------------------

 -------------------
 Title Card Required
 -------------------
 Symbolic Z-matrix:
 Charge =  0 Multiplicity = 2

                          Input orientation:
 ---------------------------------------------------------------------
 Center     Atomic      Atomic             Coordinates (Angstroms)
 Number     Number       Type             X           Y           Z
 ---------------------------------------------------------------------
      1          1           0        0.000000    0.000000    0.000000
      2          1           0       -2.300000    0.000000    0.000000
      3          9           0        2.050000    0.000000    0.000000
 ---------------------------------------------------------------------

 SCF Done:  E(UB3LYP) =  -100.790044608     a.u. after   16 cycles

 Alpha  occ. eigenvalues --  -24.68491  -1.14813  -0.47517  -0.39962  -0.39962
 Alpha  occ. eigenvalues --   -0.35286
 Alpha virt. eigenvalues --   -0.13720   0.24216   0.31150   0.89188   0.94926
 Alpha virt. eigenvalues --    0.94926   1.06109   1.22461   1.22461   1.26998
 Alpha virt. eigenvalues --    1.34789   1.34789   1.57180   2.12507   2.29184

  Beta  occ. eigenvalues --  -24.66044  -1.07952  -0.37545  -0.37545  -0.37313
  Beta virt. eigenvalues --   -0.21232  -0.10696   0.25568   0.33624   0.91948
  Beta virt. eigenvalues --    0.95733   0.95733   1.08822   1.22378   1.22378
  Beta virt. eigenvalues --    1.39402   1.39402   1.42447   1.50653   2.12595

 Mulliken charges and spin densities:
               1          2
     1  H    0.152062  -0.718572
     2  H    0.026058   0.948784
     3  F   -0.178120   0.769788
 Sum of Mulliken charges =   0.00000   1.00000

 Dipole moment (field-independent basis, Debye):
    X=             -2.1013    Y=              0.0000    Z=             -0.0000  Tot=              2.1013
 Quadrupole moment (field-independent basis, Debye-Ang):
   XX=             -9.1323   YY=             -7.5464   ZZ=             -7.5464
   XY=             -0.0000   XZ=              0.0000   YZ=              0.0000

  Exact polarizability:      43.227      -0.000       2.050       0.000       0.000       2.050
 Approx polarizability:      50.306       0.000       1.947      -0.000      -0.000       1.947

 ******    2 imaginary frequencies (negative Signs) ******

                      1                      2                      3
                      A                      A                      A
 Frequencies --  -1241.3186              -474.0359               517.9364
 Red. masses --      1.0314                 1.0813                 1.0194
 Frc consts  --      0.9363                 0.1432                 0.1611
 IR Inten    --     82.0635                27.7910                17.6324

                      4
                      A
 Frequencies --    517.9364
 Red. masses --      1.0194
 Frc consts  --      0.1611
 IR Inten    --     17.6324

 - Thermochemistry -
 -------------------
 Temperature   298.150 Kelvin.  Pressure   1.00000 Atm.
 Atom     1 has atomic number  1 and mass   1.00783

 Molecular mass:    21.01405 amu.
 Principal axes and moments of inertia in atomic units:
                           1         2         3
     Eigenvalues --     0.00000  76.15709  76.15709
           X            1.00000  -0.00000   0.00000
           Y            0.00000   1.00000   0.00000
           Z            0.00000   0.00000   1.00000
 This molecule is a prolate symmetric top.
 Rotational symmetry number  1.
 Rotational temperature (Kelvin)      1.13731
 Rotational constant (GHZ):          23.697611
    2 imaginary frequencies ignored.
 Zero-point vibrational energy       6195.9 (Joules/Mol)
                                    1.48085 (Kcal/Mol)
 Warning -- explicit consideration of   2 degrees of freedom as
           vibrations may cause significant error
 Vibrational temperatures:    745.19   745.19
          (Kelvin)

 Zero-point correction=                           0.002360 (Hartree/Particle)
 Thermal correction to Energy=                    0.005143
 Thermal correction to Enthalpy=                  0.006087
 Thermal correction to Gibbs Free Energy=        -0.018016
 Sum of electronic and zero-point Energies=           -100.787685
 Sum of electronic and thermal Energies=              -100.784902
 Sum of electronic and thermal Enthalpies=            -100.783958
 Sum of electronic and thermal Free Energies=         -100.808061

                     E (Thermal)             CV                S
                      KCal/Mol        Cal/Mol-Kelvin    Cal/Mol-Kelvin
 Total                    3.227              7.389             50.729
 Electronic               0.000              0.000              1.377
 Translational            0.889              2.981             35.068
 Rotational               0.592              1.987             13.054
 Vibrational              1.746              2.421              1.230
 Vibration     1          0.873              1.210              0.615
 Vibration     2          0.873              1.210              0.615

 Normal termination of Gaussian 16 at Fri Aug 22 17:00:23 2025.
