 Gaussian 16, Revision C.01,
 Gaussian 16:  ES64L-G16RevC.01  3-Jul-2019

 -----------------------------------------
 # sp b3lyp/6-311g** Force nosymm scf=(qc)
 -----------------------------------------

 -------------------
 Title Card Required
 -------------------
 Symbolic Z-matrix:
 Charge =  0 Multiplicity = 2

                          Input orientation:
 ---------------------------------------------------------------------
 Center     Atomic      Atomic             Coordinates (Angstroms)
 Number     Number       Type             X           Y           Z
 ---------------------------------------------------------------------
      1          1           0        0.000000    0.000000    0.000000
      2          1           0       -1.950000    0.000000    0.000000
      3          9           0        2.950000    0.000000    0.000000
 ---------------------------------------------------------------------

 SCF Done:  E(UB3LYP) =  -100.778876362     a.u. after   23 cycles

 Alpha  occ. eigenvalues --  -24.74206  -1.20252  -0.53325  -0.44774  -0.44774
 Alpha  occ. eigenvalues --   -0.33871
 Alpha virt. eigenvalues --   -0.11861   0.25398   0.31596   0.89803   0.92198
 Alpha virt. eigenvalues --    0.92198   1.04250   1.15003   1.24077   1.24077
 Alpha virt. eigenvalues --    1.36474   1.36474   1.52342   2.12435   2.37177

  Beta  occ. eigenvalues --  -24.71177  -1.11571  -0.41742  -0.41742  -0.33966
  Beta virt. eigenvalues --   -0.24929  -0.11281   0.25996   0.32001   0.93658
  Beta virt. eigenvalues --    0.93658   0.98449   1.08095   1.15187   1.23931
  Beta virt. eigenvalues --    1.23931   1.37343   1.37343   1.53021   2.13598

 Mulliken charges and spin densities:
               1          2
     1  H    0.018174  -0.797160
     2  H    0.017145   0.837487
     3  F   -0.035319   0.959673
 Sum of Mulliken charges =  -0.00000   1.00000

 Dipole moment (field-independent basis, Debye):
    X=             -0.6934    Y=              0.0000    Z=              0.0000  Tot=              0.6934
 Quadrupole moment (field-independent basis, Debye-Ang):
   XX=             -7.3251   YY=             -7.7139   ZZ=             -7.7139
   XY=             -0.0000   XZ=             -0.0000   YZ=             -0.0000

  Exact polarizability:      60.179      -0.000       2.005      -0.000       0.000       2.005
 Approx polarizability:      57.616      -0.000       1.935      -0.000       0.000       1.935

 ******    2 imaginary frequencies (negative Signs) ******

                      1                      2                      3
                      A                      A                      A
 Frequencies --  -1459.3399              -251.1460               598.3314
 Red. masses --      1.0080                 1.1083                 1.0137
 Frc consts  --      1.2648                 0.0412                 0.2138
 IR Inten    --     50.5226                31.0314                 0.1074

                      4
                      A
 Frequencies --    598.3314
 Red. masses --      1.0137
 Frc consts  --      0.2138
 IR Inten    --      0.1074

 - Thermochemistry -
 -------------------
 Temperature   298.150 Kelvin.  Pressure   1.00000 Atm.
 Atom     1 has atomic number  1 and mass   1.00783

 Molecular mass:    21.01405 amu.
 Principal axes and moments of inertia in atomic units:
                           1         2         3
     Eigenvalues --     0.00000 107.09610 107.09610
           X            1.00000  -0.00000   0.00000
           Y            0.00000   1.00000   0.00000
           Z            0.00000   0.00000   1.00000
 This molecule is a prolate symmetric top.
 Rotational symmetry number  1.
 Rotational temperature (Kelvin)      0.80875
 Rotational constant (GHZ):          16.851606
    2 imaginary frequencies ignored.
 Zero-point vibrational energy       7157.6 (Joules/Mol)
                                    1.71072 (Kcal/Mol)
 Warning -- explicit consideration of   2 degrees of freedom as
           vibrations may cause significant error
 Vibrational temperatures:    860.87   860.87
          (Kelvin)

 Zero-point correction=                           0.002726 (Hartree/Particle)
 Thermal correction to Energy=                    0.005408
 Thermal correction to Enthalpy=                  0.006353
 Thermal correction to Gibbs Free Energy=        -0.017918
 Sum of electronic and zero-point Energies=           -100.776150
 Sum of electronic and thermal Energies=              -100.773468
 Sum of electronic and thermal Enthalpies=            -100.772524
 Sum of electronic and thermal Free Energies=         -100.796794

                     E (Thermal)             CV                S
                      KCal/Mol        Cal/Mol-Kelvin    Cal/Mol-Kelvin
 Total                    3.394              7.039             51.082
 Electronic               0.000              0.000              1.377
 Translational            0.889              2.981             35.068
 Rotational               0.592              1.987             13.731
 Vibrational              1.913              2.071              0.905
 Vibration     1          0.956              1.035              0.453
 Vibration     2          0.956              1.035              0.453

 Normal termination of Gaussian 16 at Fri Aug 22 19:17:15 2025.
