 Gaussian 16, Revision C.01,
 Gaussian 16:  ES64L-G16RevC.01  3-Jul-2019

 -----------------------------------------
 # sp b3lyp/6-311g** Force nosymm scf=(qc)
 -----------------------------------------

 -------------------
 Title Card Required
 -------------------
 Symbolic Z-matrix:
 Charge =  0 Multiplicity = 2

                          Input orientation:
 ---------------------------------------------------------------------
 Center     Atomic      Atomic             Coordinates (Angstroms)
 Number     Number       Type             X           Y           Z
 ---------------------------------------------------------------------
      1          1           0        0.000000    0.000000    0.000000
      2          1           0       -3.050000    0.000000    0.000000
      3          9           0        1.000000    0.000000    0.000000
 ---------------------------------------------------------------------

 SCF Done:  E(UB3LYP) =  -100.966249075     a.u. after    6 cycles

 Alpha  occ. eigenvalues --  -24.64158  -1.16035  -0.51639  -0.38780  -0.38780
 Alpha  occ. eigenvalues --   -0.34151
 Alpha virt. eigenvalues --    0.00813   0.24691   0.34293   0.94061   0.94061
 Alpha virt. eigenvalues --    0.98593   1.22917   1.23378   1.23378   1.31315
 Alpha virt. eigenvalues --    1.35953   1.35953   1.90523   2.14409   2.34139

  Beta  occ. eigenvalues --  -24.64152  -1.16021  -0.51620  -0.38775  -0.38775
  Beta virt. eigenvalues --   -0.07371   0.01983   0.34032   0.38520   0.94062
  Beta virt. eigenvalues --    0.94062   0.98594   1.30074   1.35947   1.35947
  Beta virt. eigenvalues --    1.48361   1.48361   1.49312   1.90644   2.34103

 Mulliken charges and spin densities:
               1          2
     1  H    0.318610   0.001200
     2  H    0.002469   0.996871
     3  F   -0.321079   0.001929
 Sum of Mulliken charges =   0.00000   1.00000

 Dipole moment (field-independent basis, Debye):
    X=             -2.0601    Y=              0.0000    Z=             -0.0000  Tot=              2.0601
 Quadrupole moment (field-independent basis, Debye-Ang):
   XX=             -8.1376   YY=             -6.9613   ZZ=             -6.9613
   XY=              0.0000   XZ=             -0.0000   YZ=             -0.0000

  Exact polarizability:       7.408       0.000       2.407      -0.000      -0.000       2.407
 Approx polarizability:       8.831      -0.000       2.381      -0.000       0.000       2.381

 ******    1 imaginary frequencies (negative Signs) ******

                      1                      2                      3
                      A                      A                      A
 Frequencies --    -72.0124               977.4215               977.4215
 Red. masses --      1.0531                 1.0348                 1.0348
 Frc consts  --      0.0032                 0.5825                 0.5825
 IR Inten    --      0.2202               164.5241               164.5241

                      4
                      A
 Frequencies --   3024.1509
 Red. masses --      1.0584
 Frc consts  --      5.7032
 IR Inten    --     98.4606

 - Thermochemistry -
 -------------------
 Temperature   298.150 Kelvin.  Pressure   1.00000 Atm.
 Atom     1 has atomic number  1 and mass   1.00783

 Molecular mass:    21.01405 amu.
 Principal axes and moments of inertia in atomic units:
                           1         2         3
     Eigenvalues --     0.00000  58.22984  58.22984
           X            1.00000  -0.00000   0.00000
           Y            0.00000   1.00000   0.00000
           Z            0.00000   0.00000   1.00000
 This molecule is a prolate symmetric top.
 Rotational symmetry number  1.
 Rotational temperature (Kelvin)      1.48745
 Rotational constant (GHZ):          30.993409
    1 imaginary frequencies ignored.
 Zero-point vibrational energy      29781.0 (Joules/Mol)
                                    7.11783 (Kcal/Mol)
 Vibrational temperatures:   1406.29  1406.29  4351.08
          (Kelvin)

 Zero-point correction=                           0.011343 (Hartree/Particle)
 Thermal correction to Energy=                    0.013784
 Thermal correction to Enthalpy=                  0.014728
 Thermal correction to Gibbs Free Energy=        -0.008635
 Sum of electronic and zero-point Energies=           -100.954906
 Sum of electronic and thermal Energies=              -100.952465
 Sum of electronic and thermal Enthalpies=            -100.951521
 Sum of electronic and thermal Free Energies=         -100.974884

                     E (Thermal)             CV                S
                      KCal/Mol        Cal/Mol-Kelvin    Cal/Mol-Kelvin
 Total                    8.649              5.773             49.171
 Electronic               0.000              0.000              1.377
 Translational            0.889              2.981             35.068
 Rotational               0.592              1.987             12.520
 Vibrational              7.168              0.805              0.205

 Normal termination of Gaussian 16 at Fri Aug 22 16:01:15 2025.
