 Gaussian 16, Revision C.01,
 Gaussian 16:  ES64L-G16RevC.01  3-Jul-2019

 -----------------------------------------
 # sp b3lyp/6-311g** Force nosymm scf=(qc)
 -----------------------------------------

 -------------------
 Title Card Required
 -------------------
 Symbolic Z-matrix:
 Charge =  0 Multiplicity = 2

                          Input orientation:
 ---------------------------------------------------------------------
 Center     Atomic      Atomic             Coordinates (Angstroms)
 Number     Number       Type             X           Y           Z
 ---------------------------------------------------------------------
      1          1           0        0.000000    0.000000    0.000000
      2          1           0       -1.550000    0.000000    0.000000
      3          9           0        0.850000    0.000000    0.000000
 ---------------------------------------------------------------------

 SCF Done:  E(UB3LYP) =  -100.963415372     a.u. after    5 cycles

 Alpha  occ. eigenvalues --  -24.63506  -1.20783  -0.55786  -0.39887  -0.39887
 Alpha  occ. eigenvalues --   -0.36541
 Alpha virt. eigenvalues --    0.11066   0.21646   0.41806   0.94334   0.94334
 Alpha virt. eigenvalues --    0.97584   1.17286   1.17286   1.23438   1.42403
 Alpha virt. eigenvalues --    1.42403   1.53923   2.05762   2.20458   2.65791

  Beta  occ. eigenvalues --  -24.63343  -1.20358  -0.54728  -0.39750  -0.39750
  Beta virt. eigenvalues --   -0.13793   0.12813   0.28906   0.45289   0.94464
  Beta virt. eigenvalues --    0.94464   0.97931   1.29466   1.29466   1.31706
  Beta virt. eigenvalues --    1.47598   1.47598   1.58921   2.14602   2.30255

 Mulliken charges and spin densities:
               1          2
     1  H    0.264323   0.009707
     2  H    0.021394   0.953455
     3  F   -0.285717   0.036838
 Sum of Mulliken charges =   0.00000   1.00000

 Dipole moment (field-independent basis, Debye):
    X=             -1.9713    Y=              0.0000    Z=              0.0000  Tot=              1.9713
 Quadrupole moment (field-independent basis, Debye-Ang):
   XX=             -7.3692   YY=             -6.7189   ZZ=             -6.7189
   XY=              0.0000   XZ=             -0.0000   YZ=              0.0000

  Exact polarizability:       9.465      -0.000       2.537      -0.000      -0.000       2.537
 Approx polarizability:       9.646      -0.000       2.540       0.000      -0.000       2.540

 ******    2 imaginary frequencies (negative Signs) ******

                      1                      2                      3
                      A                      A                      A
 Frequencies --  -1342.4387             -1342.4387               599.4687
 Red. masses --      1.0266                 1.0266                 1.0528
 Frc consts  --      1.0900                 1.0900                 0.2229
 IR Inten    --    127.7606               127.7606                 0.2722

                      4
                      A
 Frequencies --   5238.4352
 Red. masses --      1.0588
 Frc consts  --     17.1180
 IR Inten    --    192.5209

 - Thermochemistry -
 -------------------
 Temperature   298.150 Kelvin.  Pressure   1.00000 Atm.
 Atom     1 has atomic number  1 and mass   1.00783

 Molecular mass:    21.01405 amu.
 Principal axes and moments of inertia in atomic units:
                           1         2         3
     Eigenvalues --     0.00000  21.50741  21.50741
           X            1.00000  -0.00000   0.00000
           Y            0.00000   1.00000   0.00000
           Z            0.00000   0.00000   1.00000
 This molecule is a prolate symmetric top.
 Rotational symmetry number  1.
 Rotational temperature (Kelvin)      4.02717
 Rotational constant (GHZ):          83.912522
    2 imaginary frequencies ignored.
 Zero-point vibrational energy      34918.4 (Joules/Mol)
                                    8.34570 (Kcal/Mol)
 Warning -- explicit consideration of   1 degrees of freedom as
           vibrations may cause significant error
 Vibrational temperatures:    862.50  7536.94
          (Kelvin)

 Zero-point correction=                           0.013300 (Hartree/Particle)
 Thermal correction to Energy=                    0.015820
 Thermal correction to Enthalpy=                  0.016765
 Thermal correction to Gibbs Free Energy=        -0.005774
 Sum of electronic and zero-point Energies=           -100.950116
 Sum of electronic and thermal Energies=              -100.947595
 Sum of electronic and thermal Enthalpies=            -100.946651
 Sum of electronic and thermal Free Energies=         -100.969190

                     E (Thermal)             CV                S
                      KCal/Mol        Cal/Mol-Kelvin    Cal/Mol-Kelvin
 Total                    9.927              6.001             47.437
 Electronic               0.000              0.000              1.377
 Translational            0.889              2.981             35.068
 Rotational               0.592              1.987             10.541
 Vibrational              8.446              1.033              0.451
 Vibration     1          0.958              1.033              0.451

 Normal termination of Gaussian 16 at Fri Aug 22 15:53:09 2025.
