 Gaussian 16, Revision C.01,
 Gaussian 16:  ES64L-G16RevC.01  3-Jul-2019

 -----------------------------------------
 # sp b3lyp/6-311g** Force nosymm scf=(qc)
 -----------------------------------------

 -------------------
 Title Card Required
 -------------------
 Symbolic Z-matrix:
 Charge =  0 Multiplicity = 2

                          Input orientation:
 ---------------------------------------------------------------------
 Center     Atomic      Atomic             Coordinates (Angstroms)
 Number     Number       Type             X           Y           Z
 ---------------------------------------------------------------------
      1          1           0        0.000000    0.000000    0.000000
      2          1           0       -1.950000    0.000000    0.000000
      3          9           0        3.150000    0.000000    0.000000
 ---------------------------------------------------------------------

 SCF Done:  E(UB3LYP) =  -100.777838515     a.u. after   24 cycles

 Alpha  occ. eigenvalues --  -24.74878  -1.20877  -0.53999  -0.45341  -0.45341
 Alpha  occ. eigenvalues --   -0.33540
 Alpha virt. eigenvalues --   -0.11524   0.25602   0.31640   0.88998   0.91783
 Alpha virt. eigenvalues --    0.91783   1.03089   1.14900   1.24418   1.24418
 Alpha virt. eigenvalues --    1.36977   1.36977   1.52815   2.12813   2.37280

  Beta  occ. eigenvalues --  -24.71804  -1.12053  -0.42262  -0.42262  -0.33614
  Beta virt. eigenvalues --   -0.25286  -0.11102   0.25820   0.32149   0.93259
  Beta virt. eigenvalues --    0.93259   0.97901   1.07049   1.14919   1.24299
  Beta virt. eigenvalues --    1.24299   1.37584   1.37584   1.53293   2.13820

 Mulliken charges and spin densities:
               1          2
     1  H    0.009928  -0.809566
     2  H    0.012326   0.835100
     3  F   -0.022254   0.974467
 Sum of Mulliken charges =   0.00000   1.00000

 Dipole moment (field-independent basis, Debye):
    X=             -0.4736    Y=              0.0000    Z=             -0.0000  Tot=              0.4736
 Quadrupole moment (field-independent basis, Debye-Ang):
   XX=             -6.9936   YY=             -7.7246   ZZ=             -7.7246
   XY=             -0.0000   XZ=             -0.0000   YZ=             -0.0000

  Exact polarizability:      56.058      -0.000       2.008      -0.000      -0.000       2.008
 Approx polarizability:      51.224      -0.000       1.938      -0.000      -0.000       1.938

 ******    2 imaginary frequencies (negative Signs) ******

                      1                      2                      3
                      A                      A                      A
 Frequencies --  -1454.1243              -199.9265               598.4929
 Red. masses --      1.0079                 1.1084                 1.0132
 Frc consts  --      1.2556                 0.0261                 0.2138
 IR Inten    --     33.4345                20.5235                 0.0207

                      4
                      A
 Frequencies --    598.4929
 Red. masses --      1.0132
 Frc consts  --      0.2138
 IR Inten    --      0.0207

 - Thermochemistry -
 -------------------
 Temperature   298.150 Kelvin.  Pressure   1.00000 Atm.
 Atom     1 has atomic number  1 and mass   1.00783

 Molecular mass:    21.01405 amu.
 Principal axes and moments of inertia in atomic units:
                           1         2         3
     Eigenvalues --     0.00000 117.57332 117.57332
           X            1.00000  -0.00000   0.00000
           Y            0.00000   1.00000   0.00000
           Z            0.00000   0.00000   1.00000
 This molecule is a prolate symmetric top.
 Rotational symmetry number  1.
 Rotational temperature (Kelvin)      0.73668
 Rotational constant (GHZ):          15.349922
    2 imaginary frequencies ignored.
 Zero-point vibrational energy       7159.6 (Joules/Mol)
                                    1.71118 (Kcal/Mol)
 Warning -- explicit consideration of   2 degrees of freedom as
           vibrations may cause significant error
 Vibrational temperatures:    861.10   861.10
          (Kelvin)

 Zero-point correction=                           0.002727 (Hartree/Particle)
 Thermal correction to Energy=                    0.005409
 Thermal correction to Enthalpy=                  0.006353
 Thermal correction to Gibbs Free Energy=        -0.018005
 Sum of electronic and zero-point Energies=           -100.775112
 Sum of electronic and thermal Energies=              -100.772430
 Sum of electronic and thermal Enthalpies=            -100.771485
 Sum of electronic and thermal Free Energies=         -100.795844

                     E (Thermal)             CV                S
                      KCal/Mol        Cal/Mol-Kelvin    Cal/Mol-Kelvin
 Total                    3.394              7.038             51.267
 Electronic               0.000              0.000              1.377
 Translational            0.889              2.981             35.068
 Rotational               0.592              1.987             13.917
 Vibrational              1.913              2.070              0.905
 Vibration     1          0.956              1.035              0.452
 Vibration     2          0.956              1.035              0.452

 Normal termination of Gaussian 16 at Fri Aug 22 20:09:49 2025.
