 Gaussian 16, Revision C.01,
 Gaussian 16:  ES64L-G16RevC.01  3-Jul-2019

 -----------------------------------------
 # sp b3lyp/6-311g** Force nosymm scf=(qc)
 -----------------------------------------

 -------------------
 Title Card Required
 -------------------
 Symbolic Z-matrix:
 Charge =  0 Multiplicity = 2

                          Input orientation:
 ---------------------------------------------------------------------
 Center     Atomic      Atomic             Coordinates (Angstroms)
 Number     Number       Type             X           Y           Z
 ---------------------------------------------------------------------
      1          1           0        0.000000    0.000000    0.000000
      2          1           0       -0.750000    0.000000    0.000000
      3          9           0        2.850000    0.000000    0.000000
 ---------------------------------------------------------------------

 SCF Done:  E(UB3LYP) =  -100.934488918     a.u. after  150 cycles

 Alpha  occ. eigenvalues --  -24.76704  -1.22496  -0.55685  -0.47006  -0.46833
 Alpha  occ. eigenvalues --   -0.42896
 Alpha virt. eigenvalues --    0.06268   0.20098   0.47345   0.85794   0.90665
 Alpha virt. eigenvalues --    0.93851   1.07696   1.08698   1.08708   1.55488
 Alpha virt. eigenvalues --    1.82556   1.82567   1.98649   2.39137   3.28410

  Beta  occ. eigenvalues --  -24.73541  -1.13407  -0.44104  -0.43662  -0.42623
  Beta virt. eigenvalues --   -0.26302   0.06324   0.20135   0.47455   0.92163
  Beta virt. eigenvalues --    0.95248   0.95748   1.08699   1.08707   1.11274
  Beta virt. eigenvalues --    1.55498   1.82555   1.82565   1.98676   2.39145

 Mulliken charges and spin densities:
               1          2
     1  H   -0.006620  -0.001438
     2  H   -0.004660  -0.000127
     3  F    0.011280   1.001565
 Sum of Mulliken charges =   0.00000   1.00000

 Dipole moment (field-independent basis, Debye):
    X=              0.1104    Y=              0.0000    Z=             -0.0000  Tot=              0.1104
 Quadrupole moment (field-independent basis, Debye-Ang):
   XX=             -6.0506   YY=             -6.5300   ZZ=             -6.5294
   XY=             -0.0000   XZ=             -0.0000   YZ=              0.4317

  Exact polarizability:       8.761      -0.000       2.195      -0.000       0.228       2.196
 Approx polarizability:       9.950      -0.000       2.332      -0.000       0.287       2.332

                      1                      2                      3
                      A                      A                      A
 Frequencies --     86.5856               440.4972               441.2260
 Red. masses --      1.1085                 1.0092                 1.0092
 Frc consts  --      0.0049                 0.1154                 0.1158
 IR Inten    --      0.3104                 0.0119                 0.0132

                      4
                      A
 Frequencies --   4338.1652
 Red. masses --      1.0078
 Frc consts  --     11.1750
 IR Inten    --      0.7766

 - Thermochemistry -
 -------------------
 Temperature   298.150 Kelvin.  Pressure   1.00000 Atm.
 Atom     1 has atomic number  1 and mass   1.00783

 Molecular mass:    21.01405 amu.
 Principal axes and moments of inertia in atomic units:
                           1         2         3
     Eigenvalues --     0.00000  68.69522  68.69522
           X            1.00000  -0.00000   0.00000
           Y            0.00000   1.00000   0.00000
           Z            0.00000   0.00000   1.00000
 This molecule is a prolate symmetric top.
 Rotational symmetry number  1.
 Rotational temperature (Kelvin)      1.26084
 Rotational constant (GHZ):          26.271715
 Zero-point vibrational energy      31739.8 (Joules/Mol)
                                    7.58599 (Kcal/Mol)
 Warning -- explicit consideration of   3 degrees of freedom as
           vibrations may cause significant error
 Vibrational temperatures:    124.58   633.78   634.83  6241.65
          (Kelvin)

 Zero-point correction=                           0.012089 (Hartree/Particle)
 Thermal correction to Energy=                    0.015753
 Thermal correction to Enthalpy=                  0.016698
 Thermal correction to Gibbs Free Energy=        -0.009282
 Sum of electronic and zero-point Energies=           -100.922400
 Sum of electronic and thermal Energies=              -100.918735
 Sum of electronic and thermal Enthalpies=            -100.917791
 Sum of electronic and thermal Free Energies=         -100.943770

                     E (Thermal)             CV                S
                      KCal/Mol        Cal/Mol-Kelvin    Cal/Mol-Kelvin
 Total                    9.885              9.689             54.678
 Electronic               0.000              0.000              1.377
 Translational            0.889              2.981             35.068
 Rotational               0.592              1.987             12.849
 Vibrational              8.404              4.721              5.384
 Vibration     1          0.601              1.959              3.736
 Vibration     2          0.800              1.382              0.825
 Vibration     3          0.801              1.380              0.823

 Normal termination of Gaussian 16 at Fri Aug 22 18:47:05 2025.
