 Gaussian 16, Revision C.01,
 Gaussian 16:  ES64L-G16RevC.01  3-Jul-2019

 -----------------------------------------
 # sp b3lyp/6-311g** Force nosymm scf=(qc)
 -----------------------------------------

 -------------------
 Title Card Required
 -------------------
 Symbolic Z-matrix:
 Charge =  0 Multiplicity = 2

                          Input orientation:
 ---------------------------------------------------------------------
 Center     Atomic      Atomic             Coordinates (Angstroms)
 Number     Number       Type             X           Y           Z
 ---------------------------------------------------------------------
      1          1           0        0.000000    0.000000    0.000000
      2          1           0       -0.650000    0.000000    0.000000
      3          9           0        2.050000    0.000000    0.000000
 ---------------------------------------------------------------------

 SCF Done:  E(UB3LYP) =  -100.926786331     a.u. after    6 cycles

 Alpha  occ. eigenvalues --  -24.75335  -1.21370  -0.55272  -0.46276  -0.45775
 Alpha  occ. eigenvalues --   -0.45775
 Alpha virt. eigenvalues --    0.09078   0.19978   0.48267   0.90636   0.90636
 Alpha virt. eigenvalues --    0.91893   1.08537   1.08537   1.16000   1.63580
 Alpha virt. eigenvalues --    1.83726   1.88281   1.88281   2.41447   3.67253

  Beta  occ. eigenvalues --  -24.72260  -1.12585  -0.46734  -0.42705  -0.42705
  Beta virt. eigenvalues --   -0.25761   0.09720   0.20518   0.48726   0.92038
  Beta virt. eigenvalues --    0.92038   0.99805   1.09009   1.09009   1.19806
  Beta virt. eigenvalues --    1.64547   1.84136   1.88490   1.88490   2.42004

 Mulliken charges and spin densities:
               1          2
     1  H   -0.003660  -0.018695
     2  H    0.025137   0.052492
     3  F   -0.021477   0.966204
 Sum of Mulliken charges =   0.00000   1.00000

 Dipole moment (field-independent basis, Debye):
    X=             -0.2825    Y=             -0.0000    Z=              0.0000  Tot=              0.2825
 Quadrupole moment (field-independent basis, Debye-Ang):
   XX=             -5.8311   YY=             -6.7843   ZZ=             -6.7843
   XY=             -0.0000   XZ=              0.0000   YZ=              0.0000

  Exact polarizability:      13.499       0.000       2.025       0.000       0.000       2.025
 Approx polarizability:      14.343      -0.000       2.097      -0.000       0.000       2.097

 ******    3 imaginary frequencies (negative Signs) ******

                      1                      2                      3
                      A                      A                      A
 Frequencies --  -2018.1859             -2018.1859               -23.4463
 Red. masses --      1.0097                 1.0097                 1.1085
 Frc consts  --      2.4230                 2.4230                 0.0004
 IR Inten    --      0.3941                 0.3941                14.5627

                      4
                      A
 Frequencies --   5934.2231
 Red. masses --      1.0078
 Frc consts  --     20.9105
 IR Inten    --    134.0567

 - Thermochemistry -
 -------------------
 Temperature   298.150 Kelvin.  Pressure   1.00000 Atm.
 Atom     1 has atomic number  1 and mass   1.00783

 Molecular mass:    21.01405 amu.
 Principal axes and moments of inertia in atomic units:
                           1         2         3
     Eigenvalues --     0.00000  37.46716  37.46716
           X            1.00000  -0.00000   0.00000
           Y            0.00000   1.00000   0.00000
           Z            0.00000   0.00000   1.00000
 This molecule is a prolate symmetric top.
 Rotational symmetry number  1.
 Rotational temperature (Kelvin)      2.31173
 Rotational constant (GHZ):          48.168612
    3 imaginary frequencies ignored.
 Zero-point vibrational energy      35494.5 (Joules/Mol)
                                    8.48340 (Kcal/Mol)
 Vibrational temperatures:   8538.02
          (Kelvin)

 Zero-point correction=                           0.013519 (Hartree/Particle)
 Thermal correction to Energy=                    0.015880
 Thermal correction to Enthalpy=                  0.016824
 Thermal correction to Gibbs Free Energy=        -0.006025
 Sum of electronic and zero-point Energies=           -100.913267
 Sum of electronic and thermal Energies=              -100.910907
 Sum of electronic and thermal Enthalpies=            -100.909963
 Sum of electronic and thermal Free Energies=         -100.932811

                     E (Thermal)             CV                S
                      KCal/Mol        Cal/Mol-Kelvin    Cal/Mol-Kelvin
 Total                    9.965              4.968             48.090
 Electronic               0.000              0.000              1.377
 Translational            0.889              2.981             35.068
 Rotational               0.592              1.987             11.644
 Vibrational              8.483              0.000              0.000

 Normal termination of Gaussian 16 at Fri Aug 22 16:58:56 2025.
