 Gaussian 16, Revision C.01,
 Gaussian 16:  ES64L-G16RevC.01  3-Jul-2019

 -----------------------------------------
 # sp b3lyp/6-311g** Force nosymm scf=(qc)
 -----------------------------------------

 -------------------
 Title Card Required
 -------------------
 Symbolic Z-matrix:
 Charge =  0 Multiplicity = 2

                          Input orientation:
 ---------------------------------------------------------------------
 Center     Atomic      Atomic             Coordinates (Angstroms)
 Number     Number       Type             X           Y           Z
 ---------------------------------------------------------------------
      1          1           0        0.000000    0.000000    0.000000
      2          1           0       -1.450000    0.000000    0.000000
      3          9           0        0.500000    0.000000    0.000000
 ---------------------------------------------------------------------

 SCF Done:  E(UB3LYP) =  -100.258167588     a.u. after    6 cycles

 Alpha  occ. eigenvalues --  -24.63471  -1.43160  -0.64449  -0.44806  -0.44806
 Alpha  occ. eigenvalues --   -0.35310
 Alpha virt. eigenvalues --    0.14724   0.21896   0.66303   0.88628   0.89225
 Alpha virt. eigenvalues --    0.89225   1.18232   1.18232   1.45922   1.62895
 Alpha virt. eigenvalues --    1.62895   1.72221   1.99803   2.27581   3.76197

  Beta  occ. eigenvalues --  -24.63371  -1.42820  -0.64059  -0.44745  -0.44745
  Beta virt. eigenvalues --   -0.10838   0.15758   0.30948   0.71658   0.88762
  Beta virt. eigenvalues --    0.89474   0.89474   1.33527   1.33527   1.48066
  Beta virt. eigenvalues --    1.65905   1.65905   1.85004   2.00553   2.51854

 Mulliken charges and spin densities:
               1          2
     1  H    0.101079   0.014264
     2  H    0.006767   0.983810
     3  F   -0.107846   0.001927
 Sum of Mulliken charges =   0.00000   1.00000

 Dipole moment (field-independent basis, Debye):
    X=             -1.2353    Y=             -0.0000    Z=              0.0000  Tot=              1.2353
 Quadrupole moment (field-independent basis, Debye-Ang):
   XX=             -6.6544   YY=             -6.3631   ZZ=             -6.3631
   XY=             -0.0000   XZ=              0.0000   YZ=             -0.0000

  Exact polarizability:       5.553      -0.000       2.479       0.000       0.000       2.479
 Approx polarizability:       5.231      -0.000       2.499       0.000       0.000       2.499

 ******    2 imaginary frequencies (negative Signs) ******

                      1                      2                      3
                      A                      A                      A
 Frequencies --  -9386.1945             -9386.1945              1065.1028
 Red. masses --      1.0341                 1.0341                 1.0534
 Frc consts  --     53.6750                53.6750                 0.7041
 IR Inten    --    206.0584               206.0584                11.8972

                      4
                      A
 Frequencies --  19161.3014
 Red. masses --      1.0582
 Frc consts  --    228.9025
 IR Inten    --     69.5259

 - Thermochemistry -
 -------------------
 Temperature   298.150 Kelvin.  Pressure   1.00000 Atm.
 Atom     1 has atomic number  1 and mass   1.00783

 Molecular mass:    21.01405 amu.
 Principal axes and moments of inertia in atomic units:
                           1         2         3
     Eigenvalues --     0.00000  13.54891  13.54891
           X            1.00000  -0.00000   0.00000
           Y            0.00000   1.00000   0.00000
           Z            0.00000   0.00000   1.00000
 This molecule is a prolate symmetric top.
 Rotational symmetry number  1.
 Rotational temperature (Kelvin)      6.39269
 Rotational constant (GHZ):         133.201957
    2 imaginary frequencies ignored.
 Zero-point vibrational energy     120980.8 (Joules/Mol)
                                   28.91510 (Kcal/Mol)
 Vibrational temperatures:   1532.45 27568.84
          (Kelvin)

 Zero-point correction=                           0.046079 (Hartree/Particle)
 Thermal correction to Energy=                    0.048468
 Thermal correction to Enthalpy=                  0.049412
 Thermal correction to Gibbs Free Energy=         0.027490
 Sum of electronic and zero-point Energies=           -100.212088
 Sum of electronic and thermal Energies=              -100.209699
 Sum of electronic and thermal Enthalpies=            -100.208755
 Sum of electronic and thermal Free Energies=         -100.230678

                     E (Thermal)             CV                S
                      KCal/Mol        Cal/Mol-Kelvin    Cal/Mol-Kelvin
 Total                   30.414              5.279             46.140
 Electronic               0.000              0.000              1.377
 Translational            0.889              2.981             35.068
 Rotational               0.592              1.987              9.623
 Vibrational             28.933              0.311              0.072

 Normal termination of Gaussian 16 at Fri Aug 22 15:36:31 2025.
