 Gaussian 16, Revision C.01,
 Gaussian 16:  ES64L-G16RevC.01  3-Jul-2019

 -----------------------------------------
 # sp b3lyp/6-311g** Force nosymm scf=(qc)
 -----------------------------------------

 -------------------
 Title Card Required
 -------------------
 Symbolic Z-matrix:
 Charge =  0 Multiplicity = 2

                          Input orientation:
 ---------------------------------------------------------------------
 Center     Atomic      Atomic             Coordinates (Angstroms)
 Number     Number       Type             X           Y           Z
 ---------------------------------------------------------------------
      1          1           0        0.000000    0.000000    0.000000
      2          1           0       -1.100000    0.000000    0.000000
      3          9           0        1.400000    0.000000    0.000000
 ---------------------------------------------------------------------

 SCF Done:  E(UB3LYP) =  -100.921259949     a.u. after    9 cycles

 Alpha  occ. eigenvalues --  -24.66967  -1.14427  -0.52192  -0.39408  -0.39341
 Alpha  occ. eigenvalues --   -0.39341
 Alpha virt. eigenvalues --    0.02394   0.19753   0.32855   0.90560   0.90560
 Alpha virt. eigenvalues --    0.99643   1.08492   1.08492   1.18089   1.57468
 Alpha virt. eigenvalues --    1.57468   1.61087   2.15798   2.29151   2.46035

  Beta  occ. eigenvalues --  -24.65091  -1.09405  -0.44479  -0.37549  -0.37549
  Beta virt. eigenvalues --   -0.22647   0.05280   0.21842   0.35216   0.91370
  Beta virt. eigenvalues --    0.91370   1.04138   1.12766   1.12766   1.22295
  Beta virt. eigenvalues --    1.59847   1.59847   1.64788   2.20880   2.32929

 Mulliken charges and spin densities:
               1          2
     1  H    0.210223  -0.115316
     2  H    0.056855   0.549590
     3  F   -0.267078   0.565726
 Sum of Mulliken charges =  -0.00000   1.00000

 Dipole moment (field-independent basis, Debye):
    X=             -2.1648    Y=              0.0000    Z=             -0.0000  Tot=              2.1648
 Quadrupole moment (field-independent basis, Debye-Ang):
   XX=             -7.6351   YY=             -7.0154   ZZ=             -7.0154
   XY=              0.0000   XZ=              0.0000   YZ=             -0.0000

  Exact polarizability:      28.101      -0.000       2.420      -0.000       0.000       2.420
 Approx polarizability:      41.219      -0.000       2.400       0.000       0.000       2.400

 ******    1 imaginary frequencies (negative Signs) ******

                      1                      2                      3
                      A                      A                      A
 Frequencies --  -2454.1861               736.3384              1200.4300
 Red. masses --      1.0281                 1.0849                 1.0153
 Frc consts  --      3.6485                 0.3466                 0.8620
 IR Inten    --    777.2847                55.1514                13.0680

                      4
                      A
 Frequencies --   1200.4300
 Red. masses --      1.0153
 Frc consts  --      0.8620
 IR Inten    --     13.0680

 - Thermochemistry -
 -------------------
 Temperature   298.150 Kelvin.  Pressure   1.00000 Atm.
 Atom     1 has atomic number  1 and mass   1.00783

 Molecular mass:    21.01405 amu.
 Principal axes and moments of inertia in atomic units:
                           1         2         3
     Eigenvalues --     0.00000  26.92251  26.92251
           X            1.00000  -0.00000   0.00000
           Y            0.00000   1.00000   0.00000
           Z            0.00000   0.00000   1.00000
 This molecule is a prolate symmetric top.
 Rotational symmetry number  1.
 Rotational temperature (Kelvin)      3.21716
 Rotational constant (GHZ):          67.034659
    1 imaginary frequencies ignored.
 Zero-point vibrational energy      18764.6 (Joules/Mol)
                                    4.48485 (Kcal/Mol)
 Vibrational temperatures:   1059.43  1727.15  1727.15
          (Kelvin)

 Zero-point correction=                           0.007147 (Hartree/Particle)
 Thermal correction to Energy=                    0.009640
 Thermal correction to Enthalpy=                  0.010584
 Thermal correction to Gibbs Free Energy=        -0.012118
 Sum of electronic and zero-point Energies=           -100.914113
 Sum of electronic and thermal Energies=              -100.911620
 Sum of electronic and thermal Enthalpies=            -100.910676
 Sum of electronic and thermal Free Energies=         -100.933378

                     E (Thermal)             CV                S
                      KCal/Mol        Cal/Mol-Kelvin    Cal/Mol-Kelvin
 Total                    6.049              6.138             47.781
 Electronic               0.000              0.000              1.377
 Translational            0.889              2.981             35.068
 Rotational               0.592              1.987             10.987
 Vibrational              4.568              1.170              0.348

 Normal termination of Gaussian 16 at Fri Aug 22 16:19:25 2025.
