 Gaussian 16, Revision C.01,
 Gaussian 16:  ES64L-G16RevC.01  3-Jul-2019

 -----------------------------------------
 # sp b3lyp/6-311g** Force nosymm scf=(qc)
 -----------------------------------------

 -------------------
 Title Card Required
 -------------------
 Symbolic Z-matrix:
 Charge =  0 Multiplicity = 2

                          Input orientation:
 ---------------------------------------------------------------------
 Center     Atomic      Atomic             Coordinates (Angstroms)
 Number     Number       Type             X           Y           Z
 ---------------------------------------------------------------------
      1          1           0        0.000000    0.000000    0.000000
      2          1           0       -3.600000    0.000000    0.000000
      3          9           0        3.600000    0.000000    0.000000
 ---------------------------------------------------------------------

 SCF Done:  E(UB3LYP) =  -100.758890936     a.u. after   33 cycles

 Alpha  occ. eigenvalues --  -24.75535  -1.21487  -0.54658  -0.45891  -0.45891
 Alpha  occ. eigenvalues --   -0.32304
 Alpha virt. eigenvalues --   -0.06728   0.24243   0.37269   0.87307   0.91389
 Alpha virt. eigenvalues --    0.91389   1.01585   1.25197   1.25197   1.25302
 Alpha virt. eigenvalues --    1.45569   1.45617   1.45617   2.14912   2.41516

  Beta  occ. eigenvalues --  -24.72411  -1.12509  -0.42760  -0.42760  -0.32712
  Beta virt. eigenvalues --   -0.25558  -0.06308   0.24014   0.38045   0.92881
  Beta virt. eigenvalues --    0.92881   0.96509   1.05628   1.24735   1.24735
  Beta virt. eigenvalues --    1.24821   1.46092   1.46306   1.46306   2.15045

 Mulliken charges and spin densities:
               1          2
     1  H    0.008628  -0.988716
     2  H    0.000114   0.998341
     3  F   -0.008742   0.990374
 Sum of Mulliken charges =   0.00000   1.00000

 Dipole moment (field-independent basis, Debye):
    X=             -0.1640    Y=              0.0000    Z=             -0.0000  Tot=              0.1640
 Quadrupole moment (field-independent basis, Debye-Ang):
   XX=             -7.2684   YY=             -7.6212   ZZ=             -7.6212
   XY=             -0.0000   XZ=              0.0000   YZ=             -0.0000

  Exact polarizability:      20.699      -0.000       2.042       0.000      -0.000       2.042
 Approx polarizability:      15.833      -0.000       1.934       0.000       0.000       1.934

 ******    2 imaginary frequencies (negative Signs) ******

                      1                      2                      3
                      A                      A                      A
 Frequencies --   -218.7309               -92.0654                59.4524
 Red. masses --      1.0274                 1.0857                 1.0179
 Frc consts  --      0.0290                 0.0054                 0.0021
 IR Inten    --      7.2006                 0.8744                 0.0592

                      4
                      A
 Frequencies --     59.4532
 Red. masses --      1.0179
 Frc consts  --      0.0021
 IR Inten    --      0.0592

 - Thermochemistry -
 -------------------
 Temperature   298.150 Kelvin.  Pressure   1.00000 Atm.
 Atom     1 has atomic number  1 and mass   1.00783

 Molecular mass:    21.01405 amu.
 Principal axes and moments of inertia in atomic units:
                           1         2         3
     Eigenvalues --     0.00000 213.08288 213.08288
           X            1.00000  -0.00000   0.00000
           Y            0.00000   1.00000   0.00000
           Z            0.00000   0.00000   1.00000
 This molecule is a prolate symmetric top.
 Rotational symmetry number  1.
 Rotational temperature (Kelvin)      0.40648
 Rotational constant (GHZ):           8.469668
    2 imaginary frequencies ignored.
 Zero-point vibrational energy        711.2 (Joules/Mol)
                                    0.16998 (Kcal/Mol)
 Warning -- explicit consideration of   2 degrees of freedom as
           vibrations may cause significant error
 Vibrational temperatures:     85.54    85.54
          (Kelvin)

 Zero-point correction=                           0.000271 (Hartree/Particle)
 Thermal correction to Energy=                    0.004262
 Thermal correction to Enthalpy=                  0.005206
 Thermal correction to Gibbs Free Energy=        -0.023537
 Sum of electronic and zero-point Energies=           -100.758620
 Sum of electronic and thermal Energies=              -100.754629
 Sum of electronic and thermal Enthalpies=            -100.753685
 Sum of electronic and thermal Free Energies=         -100.782428

                     E (Thermal)             CV                S
                      KCal/Mol        Cal/Mol-Kelvin    Cal/Mol-Kelvin
 Total                    2.674              8.915             60.494
 Electronic               0.000              0.000              1.377
 Translational            0.889              2.981             35.068
 Rotational               0.592              1.987             15.098
 Vibrational              1.193              3.947              8.951
 Vibration     1          0.597              1.974              4.475
 Vibration     2          0.597              1.974              4.475

 Normal termination of Gaussian 16 at Fri Aug 22 23:08:07 2025.
