 Gaussian 16, Revision C.01,
 Gaussian 16:  ES64L-G16RevC.01  3-Jul-2019

 -----------------------------------------
 # sp b3lyp/6-311g** Force nosymm scf=(qc)
 -----------------------------------------

 -------------------
 Title Card Required
 -------------------
 Symbolic Z-matrix:
 Charge =  0 Multiplicity = 2

                          Input orientation:
 ---------------------------------------------------------------------
 Center     Atomic      Atomic             Coordinates (Angstroms)
 Number     Number       Type             X           Y           Z
 ---------------------------------------------------------------------
      1          1           0        0.000000    0.000000    0.000000
      2          1           0       -1.000000    0.000000    0.000000
      3          9           0        0.850000    0.000000    0.000000
 ---------------------------------------------------------------------

 SCF Done:  E(UB3LYP) =  -100.941150033     a.u. after    6 cycles

 Alpha  occ. eigenvalues --  -24.64793  -1.22728  -0.60560  -0.41128  -0.41128
 Alpha  occ. eigenvalues --   -0.35413
 Alpha virt. eigenvalues --    0.15020   0.18753   0.54794   0.90065   0.90065
 Alpha virt. eigenvalues --    0.95760   1.08439   1.08439   1.44723   1.62888
 Alpha virt. eigenvalues --    1.62888   1.73172   2.08945   2.34096   3.30960

  Beta  occ. eigenvalues --  -24.64142  -1.21019  -0.56502  -0.40563  -0.40563
  Beta virt. eigenvalues --   -0.16012   0.16365   0.22951   0.60466   0.91671
  Beta virt. eigenvalues --    0.91671   0.97066   1.14843   1.14843   1.46355
  Beta virt. eigenvalues --    1.68418   1.68418   1.83623   2.10037   2.47884

 Mulliken charges and spin densities:
               1          2
     1  H    0.265502  -0.007015
     2  H   -0.002481   0.862875
     3  F   -0.263021   0.144140
 Sum of Mulliken charges =   0.00000   1.00000

 Dipole moment (field-independent basis, Debye):
    X=             -1.6571    Y=             -0.0000    Z=              0.0000  Tot=              1.6571
 Quadrupole moment (field-independent basis, Debye-Ang):
   XX=             -7.5258   YY=             -6.5909   ZZ=             -6.5909
   XY=             -0.0000   XZ=              0.0000   YZ=             -0.0000

  Exact polarizability:      10.989       0.000       2.584      -0.000       0.000       2.584
 Approx polarizability:      11.718      -0.000       2.625      -0.000       0.000       2.625

 ******    2 imaginary frequencies (negative Signs) ******

                      1                      2                      3
                      A                      A                      A
 Frequencies --  -1751.1603             -1751.1603              1752.4337
 Red. masses --      1.0200                 1.0200                 1.0549
 Frc consts  --      1.8430                 1.8430                 1.9088
 IR Inten    --     87.4323                87.4323                65.0328

                      4
                      A
 Frequencies --   5021.5713
 Red. masses --      1.0566
 Frc consts  --     15.6982
 IR Inten    --     62.0711

 - Thermochemistry -
 -------------------
 Temperature   298.150 Kelvin.  Pressure   1.00000 Atm.
 Atom     1 has atomic number  1 and mass   1.00783

 Molecular mass:    21.01405 amu.
 Principal axes and moments of inertia in atomic units:
                           1         2         3
     Eigenvalues --     0.00000  13.65959  13.65959
           X            1.00000  -0.00000   0.00000
           Y            0.00000   1.00000   0.00000
           Z            0.00000   0.00000   1.00000
 This molecule is a prolate symmetric top.
 Rotational symmetry number  1.
 Rotational temperature (Kelvin)      6.34089
 Rotational constant (GHZ):         132.122687
    2 imaginary frequencies ignored.
 Zero-point vibrational energy      40517.5 (Joules/Mol)
                                    9.68393 (Kcal/Mol)
 Vibrational temperatures:   2521.36  7224.92
          (Kelvin)

 Zero-point correction=                           0.015432 (Hartree/Particle)
 Thermal correction to Energy=                    0.017794
 Thermal correction to Enthalpy=                  0.018739
 Thermal correction to Gibbs Free Energy=        -0.003159
 Sum of electronic and zero-point Energies=           -100.925718
 Sum of electronic and thermal Energies=              -100.923356
 Sum of electronic and thermal Enthalpies=            -100.922411
 Sum of electronic and thermal Free Energies=         -100.944310

                     E (Thermal)             CV                S
                      KCal/Mol        Cal/Mol-Kelvin    Cal/Mol-Kelvin
 Total                   11.166              4.998             46.089
 Electronic               0.000              0.000              1.377
 Translational            0.889              2.981             35.068
 Rotational               0.592              1.987              9.639
 Vibrational              9.685              0.030              0.004

 Normal termination of Gaussian 16 at Fri Aug 22 15:52:46 2025.
