 Gaussian 16, Revision C.01,
 Gaussian 16:  ES64L-G16RevC.01  3-Jul-2019

 -----------------------------------------
 # sp b3lyp/6-311g** Force nosymm scf=(qc)
 -----------------------------------------

 -------------------
 Title Card Required
 -------------------
 Symbolic Z-matrix:
 Charge =  0 Multiplicity = 2

                          Input orientation:
 ---------------------------------------------------------------------
 Center     Atomic      Atomic             Coordinates (Angstroms)
 Number     Number       Type             X           Y           Z
 ---------------------------------------------------------------------
      1          1           0        0.000000    0.000000    0.000000
      2          1           0       -0.800000    0.000000    0.000000
      3          9           0        0.800000    0.000000    0.000000
 ---------------------------------------------------------------------

 SCF Done:  E(UB3LYP) =  -100.885448686     a.u. after    6 cycles

 Alpha  occ. eigenvalues --  -24.66141  -1.27170  -0.65068  -0.43056  -0.43056
 Alpha  occ. eigenvalues --   -0.33183
 Alpha virt. eigenvalues --    0.16224   0.18067   0.68186   0.87441   0.87441
 Alpha virt. eigenvalues --    0.94138   1.09086   1.09086   1.44517   1.75674
 Alpha virt. eigenvalues --    1.75674   1.76185   2.14177   2.40321   3.77856

  Beta  occ. eigenvalues --  -24.65248  -1.24736  -0.60151  -0.42281  -0.42281
  Beta virt. eigenvalues --   -0.14465   0.17380   0.21961   0.73558   0.89441
  Beta virt. eigenvalues --    0.89441   0.96056   1.14437   1.14437   1.46208
  Beta virt. eigenvalues --    1.81052   1.81052   1.84046   2.18698   2.49215

 Mulliken charges and spin densities:
               1          2
     1  H    0.264702  -0.020037
     2  H   -0.045551   0.838784
     3  F   -0.219151   0.181253
 Sum of Mulliken charges =   0.00000   1.00000

 Dipole moment (field-independent basis, Debye):
    X=             -1.2497    Y=              0.0000    Z=              0.0000  Tot=              1.2497
 Quadrupole moment (field-independent basis, Debye-Ang):
   XX=             -7.5118   YY=             -6.4973   ZZ=             -6.4973
   XY=              0.0000   XZ=              0.0000   YZ=              0.0000

  Exact polarizability:      10.077       0.000       2.552      -0.000      -0.000       2.552
 Approx polarizability:      10.670      -0.000       2.620      -0.000      -0.000       2.620

 ******    2 imaginary frequencies (negative Signs) ******

                      1                      2                      3
                      A                      A                      A
 Frequencies --  -2774.9402             -2774.9402              2883.7456
 Red. masses --      1.0179                 1.0179                 1.0671
 Frc consts  --      4.6183                 4.6183                 5.2286
 IR Inten    --     85.8753                85.8753               138.7293

                      4
                      A
 Frequencies --   6307.8427
 Red. masses --      1.0446
 Frc consts  --     24.4896
 IR Inten    --     30.3749

 - Thermochemistry -
 -------------------
 Temperature   298.150 Kelvin.  Pressure   1.00000 Atm.
 Atom     1 has atomic number  1 and mass   1.00783

 Molecular mass:    21.01405 amu.
 Principal axes and moments of inertia in atomic units:
                           1         2         3
     Eigenvalues --     0.00000  10.52261  10.52261
           X            1.00000  -0.00000   0.00000
           Y            0.00000   1.00000   0.00000
           Z            0.00000   0.00000   1.00000
 This molecule is a prolate symmetric top.
 Rotational symmetry number  1.
 Rotational temperature (Kelvin)      8.23122
 Rotational constant (GHZ):         171.510770
    2 imaginary frequencies ignored.
 Zero-point vibrational energy      54977.9 (Joules/Mol)
                                   13.14004 (Kcal/Mol)
 Vibrational temperatures:   4149.07  9075.58
          (Kelvin)

 Zero-point correction=                           0.020940 (Hartree/Particle)
 Thermal correction to Energy=                    0.023300
 Thermal correction to Enthalpy=                  0.024245
 Thermal correction to Gibbs Free Energy=         0.002595
 Sum of electronic and zero-point Energies=           -100.864509
 Sum of electronic and thermal Energies=              -100.862148
 Sum of electronic and thermal Enthalpies=            -100.861204
 Sum of electronic and thermal Free Energies=         -100.882854

                     E (Thermal)             CV                S
                      KCal/Mol        Cal/Mol-Kelvin    Cal/Mol-Kelvin
 Total                   14.621              4.968             45.566
 Electronic               0.000              0.000              1.377
 Translational            0.889              2.981             35.068
 Rotational               0.592              1.987              9.121
 Vibrational             13.140              0.000              0.000

 Normal termination of Gaussian 16 at Fri Aug 22 15:50:16 2025.
