 Gaussian 16, Revision C.01,
 Gaussian 16:  ES64L-G16RevC.01  3-Jul-2019

 -----------------------------------------
 # sp b3lyp/6-311g** Force nosymm scf=(qc)
 -----------------------------------------

 -------------------
 Title Card Required
 -------------------
 Symbolic Z-matrix:
 Charge =  0 Multiplicity = 2

                          Input orientation:
 ---------------------------------------------------------------------
 Center     Atomic      Atomic             Coordinates (Angstroms)
 Number     Number       Type             X           Y           Z
 ---------------------------------------------------------------------
      1          1           0        0.000000    0.000000    0.000000
      2          1           0       -3.150000    0.000000    0.000000
      3          9           0        3.250000    0.000000    0.000000
 ---------------------------------------------------------------------

 SCF Done:  E(UB3LYP) =  -100.760291897     a.u. after   26 cycles

 Alpha  occ. eigenvalues --  -24.74867  -1.20868  -0.53988  -0.45330  -0.45330
 Alpha  occ. eigenvalues --   -0.32507
 Alpha virt. eigenvalues --   -0.08103   0.24601   0.35887   0.88498   0.91801
 Alpha virt. eigenvalues --    0.91801   1.02662   1.25016   1.25016   1.25509
 Alpha virt. eigenvalues --    1.43796   1.43796   1.43858   2.15430   2.39941

  Beta  occ. eigenvalues --  -24.71787  -1.12027  -0.42244  -0.42244  -0.33225
  Beta virt. eigenvalues --   -0.25211  -0.07198   0.24421   0.37184   0.93280
  Beta virt. eigenvalues --    0.93280   0.97460   1.06574   1.24179   1.24179
  Beta virt. eigenvalues --    1.24650   1.45049   1.45226   1.45226   2.15861

 Mulliken charges and spin densities:
               1          2
     1  H    0.020769  -0.971311
     2  H    0.000725   0.994955
     3  F   -0.021494   0.976357
 Sum of Mulliken charges =  -0.00000   1.00000

 Dipole moment (field-independent basis, Debye):
    X=             -0.3699    Y=              0.0000    Z=              0.0000  Tot=              0.3699
 Quadrupole moment (field-independent basis, Debye-Ang):
   XX=             -7.7574   YY=             -7.6252   ZZ=             -7.6252
   XY=              0.0000   XZ=              0.0000   YZ=             -0.0000

  Exact polarizability:      30.846       0.000       2.027       0.000      -0.000       2.027
 Approx polarizability:      26.949       0.000       1.929       0.000       0.000       1.929

 ******    2 imaginary frequencies (negative Signs) ******

                      1                      2                      3
                      A                      A                      A
 Frequencies --   -350.7233              -148.8269               122.6624
 Red. masses --      1.0226                 1.0912                 1.0176
 Frc consts  --      0.0741                 0.0142                 0.0090
 IR Inten    --     20.1657                 3.8908                 0.3816

                      4
                      A
 Frequencies --    122.6624
 Red. masses --      1.0176
 Frc consts  --      0.0090
 IR Inten    --      0.3816

 - Thermochemistry -
 -------------------
 Temperature   298.150 Kelvin.  Pressure   1.00000 Atm.
 Atom     1 has atomic number  1 and mass   1.00783

 Molecular mass:    21.01405 amu.
 Principal axes and moments of inertia in atomic units:
                           1         2         3
     Eigenvalues --     0.00000 169.35633 169.35633
           X            1.00000  -0.00000   0.00000
           Y            0.00000   1.00000   0.00000
           Z            0.00000   0.00000   1.00000
 This molecule is a prolate symmetric top.
 Rotational symmetry number  1.
 Rotational temperature (Kelvin)      0.51143
 Rotational constant (GHZ):          10.656473
    2 imaginary frequencies ignored.
 Zero-point vibrational energy       1467.4 (Joules/Mol)
                                    0.35071 (Kcal/Mol)
 Warning -- explicit consideration of   2 degrees of freedom as
           vibrations may cause significant error
 Vibrational temperatures:    176.48   176.48
          (Kelvin)

 Zero-point correction=                           0.000559 (Hartree/Particle)
 Thermal correction to Energy=                    0.004304
 Thermal correction to Enthalpy=                  0.005248
 Thermal correction to Gibbs Free Energy=        -0.021931
 Sum of electronic and zero-point Energies=           -100.759733
 Sum of electronic and thermal Energies=              -100.755988
 Sum of electronic and thermal Enthalpies=            -100.755044
 Sum of electronic and thermal Free Energies=         -100.782223

                     E (Thermal)             CV                S
                      KCal/Mol        Cal/Mol-Kelvin    Cal/Mol-Kelvin
 Total                    2.701              8.828             57.203
 Electronic               0.000              0.000              1.377
 Translational            0.889              2.981             35.068
 Rotational               0.592              1.987             14.642
 Vibrational              1.219              3.860              6.116
 Vibration     1          0.610              1.930              3.058
 Vibration     2          0.610              1.930              3.058

 Normal termination of Gaussian 16 at Fri Aug 22 20:35:49 2025.
