 Gaussian 16, Revision C.01,
 Gaussian 16:  ES64L-G16RevC.01  3-Jul-2019

 -----------------------------------------
 # sp b3lyp/6-311g** Force nosymm scf=(qc)
 -----------------------------------------

 -------------------
 Title Card Required
 -------------------
 Symbolic Z-matrix:
 Charge =  0 Multiplicity = 2

                          Input orientation:
 ---------------------------------------------------------------------
 Center     Atomic      Atomic             Coordinates (Angstroms)
 Number     Number       Type             X           Y           Z
 ---------------------------------------------------------------------
      1          1           0        0.000000    0.000000    0.000000
      2          1           0       -2.500000    0.000000    0.000000
      3          9           0        2.600000    0.000000    0.000000
 ---------------------------------------------------------------------

 SCF Done:  E(UB3LYP) =  -100.769242802     a.u. after   15 cycles

 Alpha  occ. eigenvalues --  -24.72327  -1.18501  -0.51432  -0.43195  -0.43195
 Alpha  occ. eigenvalues --   -0.33622
 Alpha virt. eigenvalues --   -0.11593   0.24941   0.33272   0.90256   0.93309
 Alpha virt. eigenvalues --    0.93309   1.06280   1.24031   1.24031   1.26684
 Alpha virt. eigenvalues --    1.38355   1.38355   1.41985   2.14847   2.34368

  Beta  occ. eigenvalues --  -24.69435  -1.10251  -0.40308  -0.40308  -0.34941
  Beta virt. eigenvalues --   -0.23748  -0.09518   0.25786   0.34708   0.94709
  Beta virt. eigenvalues --    0.94709   0.97857   1.09493   1.22608   1.22608
  Beta virt. eigenvalues --    1.27979   1.41656   1.41656   1.43387   2.14899

 Mulliken charges and spin densities:
               1          2
     1  H    0.065535  -0.885434
     2  H    0.009742   0.970707
     3  F   -0.075277   0.914726
 Sum of Mulliken charges =  -0.00000   1.00000

 Dipole moment (field-independent basis, Debye):
    X=             -1.1151    Y=              0.0000    Z=              0.0000  Tot=              1.1151
 Quadrupole moment (field-independent basis, Debye-Ang):
   XX=             -8.6618   YY=             -7.6226   ZZ=             -7.6226
   XY=              0.0000   XZ=              0.0000   YZ=             -0.0000

  Exact polarizability:      44.290       0.000       2.014       0.000      -0.000       2.014
 Approx polarizability:      46.339       0.000       1.918       0.000       0.000       1.918

 ******    2 imaginary frequencies (negative Signs) ******

                      1                      2                      3
                      A                      A                      A
 Frequencies --   -781.6791              -320.5107               305.1242
 Red. masses --      1.0172                 1.0974                 1.0175
 Frc consts  --      0.3662                 0.0664                 0.0558
 IR Inten    --     46.4560                25.0239                 3.4838

                      4
                      A
 Frequencies --    305.1242
 Red. masses --      1.0175
 Frc consts  --      0.0558
 IR Inten    --      3.4838

 - Thermochemistry -
 -------------------
 Temperature   298.150 Kelvin.  Pressure   1.00000 Atm.
 Atom     1 has atomic number  1 and mass   1.00783

 Molecular mass:    21.01405 amu.
 Principal axes and moments of inertia in atomic units:
                           1         2         3
     Eigenvalues --     0.00000 107.70565 107.70565
           X            1.00000  -0.00000   0.00000
           Y            0.00000   1.00000   0.00000
           Z            0.00000   0.00000   1.00000
 This molecule is a prolate symmetric top.
 Rotational symmetry number  1.
 Rotational temperature (Kelvin)      0.80417
 Rotational constant (GHZ):          16.756236
    2 imaginary frequencies ignored.
 Zero-point vibrational energy       3650.1 (Joules/Mol)
                                    0.87239 (Kcal/Mol)
 Warning -- explicit consideration of   2 degrees of freedom as
           vibrations may cause significant error
 Vibrational temperatures:    439.01   439.01
          (Kelvin)

 Zero-point correction=                           0.001390 (Hartree/Particle)
 Thermal correction to Energy=                    0.004578
 Thermal correction to Enthalpy=                  0.005522
 Thermal correction to Gibbs Free Energy=        -0.019643
 Sum of electronic and zero-point Energies=           -100.767853
 Sum of electronic and thermal Energies=              -100.764665
 Sum of electronic and thermal Enthalpies=            -100.763720
 Sum of electronic and thermal Free Energies=         -100.788886

                     E (Thermal)             CV                S
                      KCal/Mol        Cal/Mol-Kelvin    Cal/Mol-Kelvin
 Total                    2.873              8.296             52.965
 Electronic               0.000              0.000              1.377
 Translational            0.889              2.981             35.068
 Rotational               0.592              1.987             13.743
 Vibrational              1.392              3.328              2.777
 Vibration     1          0.696              1.664              1.389
 Vibration     2          0.696              1.664              1.389

 Normal termination of Gaussian 16 at Fri Aug 22 18:04:14 2025.
