 Gaussian 16, Revision C.01,
 Gaussian 16:  ES64L-G16RevC.01  3-Jul-2019

 -----------------------------------------
 # sp b3lyp/6-311g** Force nosymm scf=(qc)
 -----------------------------------------

 -------------------
 Title Card Required
 -------------------
 Symbolic Z-matrix:
 Charge =  0 Multiplicity = 2

                          Input orientation:
 ---------------------------------------------------------------------
 Center     Atomic      Atomic             Coordinates (Angstroms)
 Number     Number       Type             X           Y           Z
 ---------------------------------------------------------------------
      1          1           0        0.000000    0.000000    0.000000
      2          1           0       -3.150000    0.000000    0.000000
      3          9           0        2.100000    0.000000    0.000000
 ---------------------------------------------------------------------

 SCF Done:  E(UB3LYP) =  -100.780677817     a.u. after   21 cycles

 Alpha  occ. eigenvalues --  -24.66331  -1.08142  -0.37801  -0.37801  -0.37421
 Alpha  occ. eigenvalues --   -0.33389
 Alpha virt. eigenvalues --   -0.21274   0.20799   0.27801   0.90762   0.95718
 Alpha virt. eigenvalues --    0.95718   1.08358   1.21612   1.21612   1.23962
 Alpha virt. eigenvalues --    1.23962   1.24289   1.47644   2.12261   2.14574

  Beta  occ. eigenvalues --  -24.68832  -1.15166  -0.47852  -0.40273  -0.40273
  Beta virt. eigenvalues --   -0.13500  -0.04882   0.30713   0.39621   0.88741
  Beta virt. eigenvalues --    0.94836   0.94836   1.06187   1.36509   1.36509
  Beta virt. eigenvalues --    1.47295   1.47295   1.47586   1.56157   2.31440

 Mulliken charges and spin densities:
               1          2
     1  H    0.167613   0.789911
     2  H    0.003156   0.996928
     3  F   -0.170769  -0.786839
 Sum of Mulliken charges =   0.00000   1.00000

 Dipole moment (field-independent basis, Debye):
    X=             -1.8327    Y=             -0.0000    Z=             -0.0000  Tot=              1.8327
 Quadrupole moment (field-independent basis, Debye-Ang):
   XX=             -9.9644   YY=             -7.4968   ZZ=             -7.4968
   XY=             -0.0000   XZ=             -0.0000   YZ=              0.0000

  Exact polarizability:      30.141      -0.000       2.050      -0.000       0.000       2.050
 Approx polarizability:      42.054      -0.000       1.938      -0.000      -0.000       1.938

 ******    1 imaginary frequencies (negative Signs) ******

                      1                      2                      3
                      A                      A                      A
 Frequencies --   -968.0828               105.9058               407.6050
 Red. masses --      1.0603                 1.0513                 1.0235
 Frc consts  --      0.5855                 0.0069                 0.1002
 IR Inten    --     94.1535                 1.2032                25.8014

                      4
                      A
 Frequencies --    407.6050
 Red. masses --      1.0235
 Frc consts  --      0.1002
 IR Inten    --     25.8014

 - Thermochemistry -
 -------------------
 Temperature   298.150 Kelvin.  Pressure   1.00000 Atm.
 Atom     1 has atomic number  1 and mass   1.00783

 Molecular mass:    21.01405 amu.
 Principal axes and moments of inertia in atomic units:
                           1         2         3
     Eigenvalues --     0.00000 105.74464 105.74464
           X            1.00000  -0.00000   0.00000
           Y            0.00000   1.00000   0.00000
           Z            0.00000   0.00000   1.00000
 This molecule is a prolate symmetric top.
 Rotational symmetry number  1.
 Rotational temperature (Kelvin)      0.81909
 Rotational constant (GHZ):          17.066975
    1 imaginary frequencies ignored.
 Zero-point vibrational energy       5509.5 (Joules/Mol)
                                    1.31680 (Kcal/Mol)
 Warning -- explicit consideration of   3 degrees of freedom as
           vibrations may cause significant error
 Vibrational temperatures:    152.37   586.45   586.45
          (Kelvin)

 Zero-point correction=                           0.002098 (Hartree/Particle)
 Thermal correction to Energy=                    0.005786
 Thermal correction to Enthalpy=                  0.006731
 Thermal correction to Gibbs Free Energy=        -0.019575
 Sum of electronic and zero-point Energies=           -100.778579
 Sum of electronic and thermal Energies=              -100.774891
 Sum of electronic and thermal Enthalpies=            -100.773947
 Sum of electronic and thermal Free Energies=         -100.800253

                     E (Thermal)             CV                S
                      KCal/Mol        Cal/Mol-Kelvin    Cal/Mol-Kelvin
 Total                    3.631              9.820             55.364
 Electronic               0.000              0.000              1.377
 Translational            0.889              2.981             35.068
 Rotational               0.592              1.987             13.706
 Vibrational              2.150              4.852              5.213
 Vibration     1          0.605              1.945              3.343
 Vibration     2          0.772              1.454              0.935
 Vibration     3          0.772              1.454              0.935

 Normal termination of Gaussian 16 at Fri Aug 22 17:04:58 2025.
