 Gaussian 16, Revision C.01,
 Gaussian 16:  ES64L-G16RevC.01  3-Jul-2019

 -----------------------------------------
 # sp b3lyp/6-311g** Force nosymm scf=(qc)
 -----------------------------------------

 -------------------
 Title Card Required
 -------------------
 Symbolic Z-matrix:
 Charge =  0 Multiplicity = 2

                          Input orientation:
 ---------------------------------------------------------------------
 Center     Atomic      Atomic             Coordinates (Angstroms)
 Number     Number       Type             X           Y           Z
 ---------------------------------------------------------------------
      1          1           0        0.000000    0.000000    0.000000
      2          1           0       -3.200000    0.000000    0.000000
      3          9           0        3.500000    0.000000    0.000000
 ---------------------------------------------------------------------

 SCF Done:  E(UB3LYP) =  -100.759527663     a.u. after   27 cycles

 Alpha  occ. eigenvalues --  -24.75393  -1.21356  -0.54516  -0.45772  -0.45772
 Alpha  occ. eigenvalues --   -0.32394
 Alpha virt. eigenvalues --   -0.07586   0.24641   0.36468   0.87608   0.91476
 Alpha virt. eigenvalues --    0.91476   1.01815   1.25125   1.25125   1.25535
 Alpha virt. eigenvalues --    1.44387   1.44528   1.44528   2.15449   2.40226

  Beta  occ. eigenvalues --  -24.72279  -1.12408  -0.42651  -0.42651  -0.32851
  Beta virt. eigenvalues --   -0.25489  -0.07041   0.24418   0.37349   0.92965
  Beta virt. eigenvalues --    0.92965   0.96750   1.05829   1.24598   1.24598
  Beta virt. eigenvalues --    1.24979   1.45206   1.45403   1.45403   2.15710

 Mulliken charges and spin densities:
               1          2
     1  H    0.011031  -0.982903
     2  H    0.000396   0.995507
     3  F   -0.011427   0.987396
 Sum of Mulliken charges =  -0.00000   1.00000

 Dipole moment (field-independent basis, Debye):
    X=             -0.2118    Y=              0.0000    Z=              0.0000  Tot=              0.2118
 Quadrupole moment (field-independent basis, Debye-Ang):
   XX=             -7.3556   YY=             -7.6279   ZZ=             -7.6279
   XY=             -0.0000   XZ=             -0.0000   YZ=              0.0000

  Exact polarizability:      24.887      -0.000       2.033      -0.000      -0.000       2.033
 Approx polarizability:      19.527      -0.000       1.932      -0.000      -0.000       1.932

 ******    2 imaginary frequencies (negative Signs) ******

                      1                      2                      3
                      A                      A                      A
 Frequencies --   -298.3391              -122.2734                99.3127
 Red. masses --      1.0154                 1.0995                 1.0169
 Frc consts  --      0.0532                 0.0097                 0.0059
 IR Inten    --      8.6987                 2.9358                 0.1036

                      4
                      A
 Frequencies --     99.3128
 Red. masses --      1.0169
 Frc consts  --      0.0059
 IR Inten    --      0.1036

 - Thermochemistry -
 -------------------
 Temperature   298.150 Kelvin.  Pressure   1.00000 Atm.
 Atom     1 has atomic number  1 and mass   1.00783

 Molecular mass:    21.01405 amu.
 Principal axes and moments of inertia in atomic units:
                           1         2         3
     Eigenvalues --     0.00000 187.68932 187.68932
           X            1.00000  -0.00000   0.00000
           Y            0.00000   1.00000   0.00000
           Z            0.00000   0.00000   1.00000
 This molecule is a prolate symmetric top.
 Rotational symmetry number  1.
 Rotational temperature (Kelvin)      0.46147
 Rotational constant (GHZ):           9.615577
    2 imaginary frequencies ignored.
 Zero-point vibrational energy       1188.0 (Joules/Mol)
                                    0.28395 (Kcal/Mol)
 Warning -- explicit consideration of   2 degrees of freedom as
           vibrations may cause significant error
 Vibrational temperatures:    142.89   142.89
          (Kelvin)

 Zero-point correction=                           0.000453 (Hartree/Particle)
 Thermal correction to Energy=                    0.004285
 Thermal correction to Enthalpy=                  0.005229
 Thermal correction to Gibbs Free Energy=        -0.022437
 Sum of electronic and zero-point Energies=           -100.759075
 Sum of electronic and thermal Energies=              -100.755243
 Sum of electronic and thermal Enthalpies=            -100.754299
 Sum of electronic and thermal Free Energies=         -100.781964

                     E (Thermal)             CV                S
                      KCal/Mol        Cal/Mol-Kelvin    Cal/Mol-Kelvin
 Total                    2.689              8.867             58.227
 Electronic               0.000              0.000              1.377
 Translational            0.889              2.981             35.068
 Rotational               0.592              1.987             14.846
 Vibrational              1.208              3.899              6.936
 Vibration     1          0.604              1.950              3.468
 Vibration     2          0.604              1.950              3.468

 Normal termination of Gaussian 16 at Fri Aug 22 22:10:52 2025.
