 Gaussian 16, Revision C.01,
 Gaussian 16:  ES64L-G16RevC.01  3-Jul-2019

 -----------------------------------------
 # sp b3lyp/6-311g** Force nosymm scf=(qc)
 -----------------------------------------

 -------------------
 Title Card Required
 -------------------
 Symbolic Z-matrix:
 Charge =  0 Multiplicity = 2

                          Input orientation:
 ---------------------------------------------------------------------
 Center     Atomic      Atomic             Coordinates (Angstroms)
 Number     Number       Type             X           Y           Z
 ---------------------------------------------------------------------
      1          1           0        0.000000    0.000000    0.000000
      2          1           0       -1.450000    0.000000    0.000000
      3          9           0        3.850000    0.000000    0.000000
 ---------------------------------------------------------------------

 SCF Done:  E(UB3LYP) =  -100.828107377     a.u. after  234 cycles

 Alpha  occ. eigenvalues --  -24.76252  -1.22151  -0.55353  -0.46532  -0.46510
 Alpha  occ. eigenvalues --   -0.33963
 Alpha virt. eigenvalues --   -0.09048   0.24606   0.30835   0.86017   0.90895
 Alpha virt. eigenvalues --    0.91377   1.00893   1.08878   1.19154   1.19156
 Alpha virt. eigenvalues --    1.43166   1.43168   1.85729   2.23773   2.47863

  Beta  occ. eigenvalues --  -24.73097  -1.13077  -0.43368  -0.43346  -0.33962
  Beta virt. eigenvalues --   -0.26003  -0.09047   0.24610   0.30847   0.92395
  Beta virt. eigenvalues --    0.92870   0.95483   1.05036   1.08885   1.19154
  Beta virt. eigenvalues --    1.19156   1.43166   1.43168   1.85732   2.23773

 Mulliken charges and spin densities:
               1          2
     1  H    0.001030   0.000272
     2  H   -0.002114  -0.000395
     3  F    0.001084   1.000123
 Sum of Mulliken charges =   0.00000   1.00000

 Dipole moment (field-independent basis, Debye):
    X=              0.0266    Y=             -0.0000    Z=              0.0000  Tot=              0.0266
 Quadrupole moment (field-independent basis, Debye-Ang):
   XX=             -6.3085   YY=             -6.8586   ZZ=             -7.7232
   XY=             -0.0000   XZ=              0.0000   YZ=             -0.0021

  Exact polarizability:      21.401      -0.000       2.521       0.000      -0.001       2.049
 Approx polarizability:      39.619      -0.000       2.632      -0.000      -0.001       2.049

 ******    2 imaginary frequencies (negative Signs) ******

                      1                      2                      3
                      A                      A                      A
 Frequencies --  -1222.7120               -51.5386              1266.9214
 Red. masses --      1.0078                 1.1085                 1.0103
 Frc consts  --      0.8877                 0.0017                 0.9554
 IR Inten    --      0.0742                 0.0514                 0.0070

                      4
                      A
 Frequencies --   1270.4357
 Red. masses --      1.0103
 Frc consts  --      0.9607
 IR Inten    --      0.0018

 - Thermochemistry -
 -------------------
 Temperature   298.150 Kelvin.  Pressure   1.00000 Atm.
 Atom     1 has atomic number  1 and mass   1.00783

 Molecular mass:    21.01405 amu.
 Principal axes and moments of inertia in atomic units:
                           1         2         3
     Eigenvalues --     0.00000 139.99137 139.99137
           X            1.00000  -0.00000   0.00000
           Y            0.00000   1.00000   0.00000
           Z            0.00000   0.00000   1.00000
 This molecule is a prolate symmetric top.
 Rotational symmetry number  1.
 Rotational temperature (Kelvin)      0.61871
 Rotational constant (GHZ):          12.891803
    2 imaginary frequencies ignored.
 Zero-point vibrational energy      15176.8 (Joules/Mol)
                                    3.62733 (Kcal/Mol)
 Vibrational temperatures:   1822.82  1827.87
          (Kelvin)

 Zero-point correction=                           0.005781 (Hartree/Particle)
 Thermal correction to Energy=                    0.008166
 Thermal correction to Enthalpy=                  0.009111
 Thermal correction to Gibbs Free Energy=        -0.015012
 Sum of electronic and zero-point Energies=           -100.822327
 Sum of electronic and thermal Energies=              -100.819941
 Sum of electronic and thermal Enthalpies=            -100.818997
 Sum of electronic and thermal Free Energies=         -100.843120

                     E (Thermal)             CV                S
                      KCal/Mol        Cal/Mol-Kelvin    Cal/Mol-Kelvin
 Total                    5.124              5.296             50.771
 Electronic               0.000              0.000              1.377
 Translational            0.889              2.981             35.068
 Rotational               0.592              1.987             14.264
 Vibrational              3.643              0.328              0.062

 Normal termination of Gaussian 16 at Sat Aug 23 01:01:52 2025.
