 Gaussian 16, Revision C.01,
 Gaussian 16:  ES64L-G16RevC.01  3-Jul-2019

 -----------------------------------------
 # sp b3lyp/6-311g** Force nosymm scf=(qc)
 -----------------------------------------

 -------------------
 Title Card Required
 -------------------
 Symbolic Z-matrix:
 Charge =  0 Multiplicity = 2

                          Input orientation:
 ---------------------------------------------------------------------
 Center     Atomic      Atomic             Coordinates (Angstroms)
 Number     Number       Type             X           Y           Z
 ---------------------------------------------------------------------
      1          1           0        0.000000    0.000000    0.000000
      2          1           0       -3.450000    0.000000    0.000000
      3          9           0        0.600000    0.000000    0.000000
 ---------------------------------------------------------------------

 SCF Done:  E(UB3LYP) =  -100.687924170     a.u. after    6 cycles

 Alpha  occ. eigenvalues --  -24.62729  -1.34726  -0.61024  -0.42978  -0.42978
 Alpha  occ. eigenvalues --   -0.33366
 Alpha virt. eigenvalues --    0.07403   0.25085   0.58032   0.92124   0.92124
 Alpha virt. eigenvalues --    0.93149   1.23836   1.24145   1.24145   1.34389
 Alpha virt. eigenvalues --    1.50267   1.50267   1.95493   2.14830   3.36536

  Beta  occ. eigenvalues --  -24.62728  -1.34725  -0.61024  -0.42978  -0.42978
  Beta virt. eigenvalues --   -0.05332   0.07915   0.39401   0.58067   0.92123
  Beta virt. eigenvalues --    0.92123   0.93145   1.33565   1.50268   1.50268
  Beta virt. eigenvalues --    1.50405   1.50405   1.51008   1.95455   2.44940

 Mulliken charges and spin densities:
               1          2
     1  H    0.237832   0.000570
     2  H    0.000811   0.999017
     3  F   -0.238643   0.000412
 Sum of Mulliken charges =   0.00000   1.00000

 Dipole moment (field-independent basis, Debye):
    X=             -1.4419    Y=             -0.0000    Z=              0.0000  Tot=              1.4419
 Quadrupole moment (field-independent basis, Debye-Ang):
   XX=             -6.9612   YY=             -6.5520   ZZ=             -6.5520
   XY=             -0.0000   XZ=              0.0000   YZ=              0.0000

  Exact polarizability:       3.483      -0.000       2.439       0.000       0.000       2.439
 Approx polarizability:       3.707       0.000       2.418      -0.000      -0.000       2.418

 ******    3 imaginary frequencies (negative Signs) ******

                      1                      2                      3
                      A                      A                      A
 Frequencies --  -5883.3783             -5883.3783               -35.6465
 Red. masses --      1.0437                 1.0437                 1.0532
 Frc consts  --     21.2853                21.2853                 0.0008
 IR Inten    --    240.0570               240.0570                 0.0284

                      4
                      A
 Frequencies --  13070.6358
 Red. masses --      1.0583
 Frc consts  --    106.5264
 IR Inten    --     98.0081

 - Thermochemistry -
 -------------------
 Temperature   298.150 Kelvin.  Pressure   1.00000 Atm.
 Atom     1 has atomic number  1 and mass   1.00783

 Molecular mass:    21.01405 amu.
 Principal axes and moments of inertia in atomic units:
                           1         2         3
     Eigenvalues --     0.00000  56.59619  56.59619
           X            1.00000  -0.00000   0.00000
           Y            0.00000   1.00000   0.00000
           Z            0.00000   0.00000   1.00000
 This molecule is a prolate symmetric top.
 Rotational symmetry number  1.
 Rotational temperature (Kelvin)      1.53038
 Rotational constant (GHZ):          31.888035
    3 imaginary frequencies ignored.
 Zero-point vibrational energy      78179.8 (Joules/Mol)
                                   18.68541 (Kcal/Mol)
 Vibrational temperatures:  18805.73
          (Kelvin)

 Zero-point correction=                           0.029777 (Hartree/Particle)
 Thermal correction to Energy=                    0.032138
 Thermal correction to Enthalpy=                  0.033082
 Thermal correction to Gibbs Free Energy=         0.009843
 Sum of electronic and zero-point Energies=           -100.658147
 Sum of electronic and thermal Energies=              -100.655787
 Sum of electronic and thermal Enthalpies=            -100.654842
 Sum of electronic and thermal Free Energies=         -100.678081

                     E (Thermal)             CV                S
                      KCal/Mol        Cal/Mol-Kelvin    Cal/Mol-Kelvin
 Total                   20.167              4.968             48.909
 Electronic               0.000              0.000              1.377
 Translational            0.889              2.981             35.068
 Rotational               0.592              1.987             12.464
 Vibrational             18.685              0.000              0.000

 Normal termination of Gaussian 16 at Fri Aug 22 15:42:39 2025.
