 Gaussian 16, Revision C.01,
 Gaussian 16:  ES64L-G16RevC.01  3-Jul-2019

 -----------------------------------------
 # sp b3lyp/6-311g** Force nosymm scf=(qc)
 -----------------------------------------

 -------------------
 Title Card Required
 -------------------
 Symbolic Z-matrix:
 Charge =  0 Multiplicity = 2

                          Input orientation:
 ---------------------------------------------------------------------
 Center     Atomic      Atomic             Coordinates (Angstroms)
 Number     Number       Type             X           Y           Z
 ---------------------------------------------------------------------
      1          1           0        0.000000    0.000000    0.000000
      2          1           0       -0.850000    0.000000    0.000000
      3          9           0        3.100000    0.000000    0.000000
 ---------------------------------------------------------------------

 SCF Done:  E(UB3LYP) =  -100.928298145     a.u. after   49 cycles

 Alpha  occ. eigenvalues --  -24.76572  -1.22391  -0.55585  -0.46825  -0.46735
 Alpha  occ. eigenvalues --   -0.41135
 Alpha virt. eigenvalues --    0.03925   0.20549   0.43383   0.85867   0.90740
 Alpha virt. eigenvalues --    0.93659   1.04314   1.08340   1.08346   1.49265
 Alpha virt. eigenvalues --    1.75682   1.75689   2.13204   2.38446   2.87729

  Beta  occ. eigenvalues --  -24.73411  -1.13306  -0.43695  -0.43567  -0.41093
  Beta virt. eigenvalues --   -0.26211   0.03955   0.20572   0.43471   0.92239
  Beta virt. eigenvalues --    0.95325   0.95379   1.08113   1.08339   1.08345
  Beta virt. eigenvalues --    1.49276   1.75681   1.75688   2.13226   2.38452

 Mulliken charges and spin densities:
               1          2
     1  H   -0.003765  -0.000839
     2  H   -0.004048  -0.000159
     3  F    0.007814   1.000998
 Sum of Mulliken charges =   0.00000   1.00000

 Dipole moment (field-independent basis, Debye):
    X=              0.0849    Y=              0.0000    Z=             -0.0000  Tot=              0.0849
 Quadrupole moment (field-independent basis, Debye-Ang):
   XX=             -6.1236   YY=             -6.6609   ZZ=             -6.6611
   XY=              0.0000   XZ=             -0.0000   YZ=             -0.4318

  Exact polarizability:      10.031      -0.000       2.240      -0.000      -0.230       2.240
 Approx polarizability:      12.003      -0.000       2.368      -0.000      -0.290       2.367

                      1                      2                      3
                      A                      A                      A
 Frequencies --     50.2778              1329.2887              1329.3207
 Red. masses --      1.1085                 1.0093                 1.0093
 Frc consts  --      0.0017                 1.0507                 1.0508
 IR Inten    --      0.2705                 0.0023                 0.0021

                      4
                      A
 Frequencies --   3136.5810
 Red. masses --      1.0078
 Frc consts  --      5.8418
 IR Inten    --      0.3777

 - Thermochemistry -
 -------------------
 Temperature   298.150 Kelvin.  Pressure   1.00000 Atm.
 Atom     1 has atomic number  1 and mass   1.00783

 Molecular mass:    21.01405 amu.
 Principal axes and moments of inertia in atomic units:
                           1         2         3
     Eigenvalues --     0.00000  82.16101  82.16101
           X            1.00000  -0.00000   0.00000
           Y            0.00000   1.00000   0.00000
           Z            0.00000   0.00000   1.00000
 This molecule is a prolate symmetric top.
 Rotational symmetry number  1.
 Rotational temperature (Kelvin)      1.05420
 Rotational constant (GHZ):          21.965909
 Zero-point vibrational energy      34963.7 (Joules/Mol)
                                    8.35652 (Kcal/Mol)
 Warning -- explicit consideration of   1 degrees of freedom as
           vibrations may cause significant error
 Vibrational temperatures:     72.34  1912.55  1912.60  4512.84
          (Kelvin)

 Zero-point correction=                           0.013317 (Hartree/Particle)
 Thermal correction to Energy=                    0.016532
 Thermal correction to Enthalpy=                  0.017476
 Thermal correction to Gibbs Free Energy=        -0.008421
 Sum of electronic and zero-point Energies=           -100.914981
 Sum of electronic and thermal Energies=              -100.911767
 Sum of electronic and thermal Enthalpies=            -100.910822
 Sum of electronic and thermal Free Energies=         -100.936719

                     E (Thermal)             CV                S
                      KCal/Mol        Cal/Mol-Kelvin    Cal/Mol-Kelvin
 Total                   10.374              7.214             54.505
 Electronic               0.000              0.000              1.377
 Translational            0.889              2.981             35.068
 Rotational               0.592              1.987             13.205
 Vibrational              8.892              2.246              4.855
 Vibration     1          0.595              1.977              4.806

 Normal termination of Gaussian 16 at Fri Aug 22 19:47:37 2025.
