 Gaussian 16, Revision C.01,
 Gaussian 16:  ES64L-G16RevC.01  3-Jul-2019

 -----------------------------------------
 # sp b3lyp/6-311g** Force nosymm scf=(qc)
 -----------------------------------------

 -------------------
 Title Card Required
 -------------------
 Symbolic Z-matrix:
 Charge =  0 Multiplicity = 2

                          Input orientation:
 ---------------------------------------------------------------------
 Center     Atomic      Atomic             Coordinates (Angstroms)
 Number     Number       Type             X           Y           Z
 ---------------------------------------------------------------------
      1          1           0        0.000000    0.000000    0.000000
      2          1           0       -2.600000    0.000000    0.000000
      3          9           0        2.200000    0.000000    0.000000
 ---------------------------------------------------------------------

 SCF Done:  E(UB3LYP) =  -100.779290499     a.u. after   17 cycles

 Alpha  occ. eigenvalues --  -24.69723  -1.16024  -0.48778  -0.41011  -0.41011
 Alpha  occ. eigenvalues --   -0.34196
 Alpha virt. eigenvalues --   -0.12921   0.24204   0.32341   0.88964   0.94545
 Alpha virt. eigenvalues --    0.94545   1.06455   1.23422   1.23422   1.25908
 Alpha virt. eigenvalues --    1.36629   1.36629   1.51178   2.14448   2.30955

  Beta  occ. eigenvalues --  -24.67100  -1.08623  -0.38410  -0.38410  -0.36663
  Beta virt. eigenvalues --   -0.21996  -0.09412   0.25172   0.35100   0.92738
  Beta virt. eigenvalues --    0.95636   0.95636   1.08795   1.21762   1.21762
  Beta virt. eigenvalues --    1.41055   1.42108   1.42108   1.44563   2.13294

 Mulliken charges and spin densities:
               1          2
     1  H    0.131279  -0.803606
     2  H    0.011919   0.977315
     3  F   -0.143198   0.826291
 Sum of Mulliken charges =   0.00000   1.00000

 Dipole moment (field-independent basis, Debye):
    X=             -1.7274    Y=             -0.0000    Z=              0.0000  Tot=              1.7274
 Quadrupole moment (field-independent basis, Debye-Ang):
   XX=             -9.3331   YY=             -7.5587   ZZ=             -7.5587
   XY=             -0.0000   XZ=              0.0000   YZ=             -0.0000

  Exact polarizability:      38.090      -0.000       2.034       0.000       0.000       2.034
 Approx polarizability:      45.210      -0.000       1.928       0.000      -0.000       1.928

 ******    2 imaginary frequencies (negative Signs) ******

                      1                      2                      3
                      A                      A                      A
 Frequencies --   -956.9575              -347.6035               396.1807
 Red. masses --      1.0391                 1.0730                 1.0201
 Frc consts  --      0.5606                 0.0764                 0.0943
 IR Inten    --     85.1169                13.5584                14.6275

                      4
                      A
 Frequencies --    396.1807
 Red. masses --      1.0201
 Frc consts  --      0.0943
 IR Inten    --     14.6275

 - Thermochemistry -
 -------------------
 Temperature   298.150 Kelvin.  Pressure   1.00000 Atm.
 Atom     1 has atomic number  1 and mass   1.00783

 Molecular mass:    21.01405 amu.
 Principal axes and moments of inertia in atomic units:
                           1         2         3
     Eigenvalues --     0.00000  91.88262  91.88262
           X            1.00000  -0.00000   0.00000
           Y            0.00000   1.00000   0.00000
           Z            0.00000   0.00000   1.00000
 This molecule is a prolate symmetric top.
 Rotational symmetry number  1.
 Rotational temperature (Kelvin)      0.94266
 Rotational constant (GHZ):          19.641813
    2 imaginary frequencies ignored.
 Zero-point vibrational energy       4739.4 (Joules/Mol)
                                    1.13274 (Kcal/Mol)
 Warning -- explicit consideration of   2 degrees of freedom as
           vibrations may cause significant error
 Vibrational temperatures:    570.02   570.02
          (Kelvin)

 Zero-point correction=                           0.001805 (Hartree/Particle)
 Thermal correction to Energy=                    0.004792
 Thermal correction to Enthalpy=                  0.005736
 Thermal correction to Gibbs Free Energy=        -0.018888
 Sum of electronic and zero-point Energies=           -100.777485
 Sum of electronic and thermal Energies=              -100.774499
 Sum of electronic and thermal Enthalpies=            -100.773555
 Sum of electronic and thermal Free Energies=         -100.798179

                     E (Thermal)             CV                S
                      KCal/Mol        Cal/Mol-Kelvin    Cal/Mol-Kelvin
 Total                    3.007              7.925             51.826
 Electronic               0.000              0.000              1.377
 Translational            0.889              2.981             35.068
 Rotational               0.592              1.987             13.427
 Vibrational              1.526              2.957              1.954
 Vibration     1          0.763              1.478              0.977
 Vibration     2          0.763              1.478              0.977

 Normal termination of Gaussian 16 at Fri Aug 22 17:12:12 2025.
