 Gaussian 16, Revision C.01,
 Gaussian 16:  ES64L-G16RevC.01  3-Jul-2019

 -----------------------------------------
 # sp b3lyp/6-311g** Force nosymm scf=(qc)
 -----------------------------------------

 -------------------
 Title Card Required
 -------------------
 Symbolic Z-matrix:
 Charge =  0 Multiplicity = 2

                          Input orientation:
 ---------------------------------------------------------------------
 Center     Atomic      Atomic             Coordinates (Angstroms)
 Number     Number       Type             X           Y           Z
 ---------------------------------------------------------------------
      1          1           0        0.000000    0.000000    0.000000
      2          1           0       -2.250000    0.000000    0.000000
      3          9           0        2.000000    0.000000    0.000000
 ---------------------------------------------------------------------

 SCF Done:  E(UB3LYP) =  -100.793954759     a.u. after   13 cycles

 Alpha  occ. eigenvalues --  -24.68066  -1.14388  -0.47084  -0.39600  -0.39600
 Alpha  occ. eigenvalues --   -0.35582
 Alpha virt. eigenvalues --   -0.13831   0.24134   0.30819   0.89478   0.95005
 Alpha virt. eigenvalues --    0.95005   1.05970   1.22191   1.22191   1.27177
 Alpha virt. eigenvalues --    1.34457   1.34457   1.59534   2.12008   2.28929

  Beta  occ. eigenvalues --  -24.65693  -1.07753  -0.37566  -0.37261  -0.37261
  Beta virt. eigenvalues --   -0.20977  -0.10868   0.25550   0.33338   0.91939
  Beta virt. eigenvalues --    0.95690   0.95690   1.08782   1.22689   1.22689
  Beta virt. eigenvalues --    1.38859   1.38859   1.42209   1.53640   2.12449

 Mulliken charges and spin densities:
               1          2
     1  H    0.161678  -0.688113
     2  H    0.029669   0.941893
     3  F   -0.191347   0.746219
 Sum of Mulliken charges =  -0.00000   1.00000

 Dipole moment (field-independent basis, Debye):
    X=             -2.2154    Y=              0.0000    Z=             -0.0000  Tot=              2.2154
 Quadrupole moment (field-independent basis, Debye-Ang):
   XX=             -9.1006   YY=             -7.5364   ZZ=             -7.5364
   XY=              0.0000   XZ=             -0.0000   YZ=             -0.0000

  Exact polarizability:      43.470       0.000       2.058       0.000      -0.000       2.058
 Approx polarizability:      51.091      -0.000       1.956       0.000       0.000       1.956

 ******    2 imaginary frequencies (negative Signs) ******

                      1                      2                      3
                      A                      A                      A
 Frequencies --  -1329.7607              -497.9027               554.9652
 Red. masses --      1.0315                 1.0812                 1.0194
 Frc consts  --      1.0747                 0.1579                 0.1850
 IR Inten    --     85.7303                27.9288                19.4861

                      4
                      A
 Frequencies --    554.9652
 Red. masses --      1.0194
 Frc consts  --      0.1850
 IR Inten    --     19.4861

 - Thermochemistry -
 -------------------
 Temperature   298.150 Kelvin.  Pressure   1.00000 Atm.
 Atom     1 has atomic number  1 and mass   1.00783

 Molecular mass:    21.01405 amu.
 Principal axes and moments of inertia in atomic units:
                           1         2         3
     Eigenvalues --     0.00000  72.66067  72.66067
           X            1.00000  -0.00000   0.00000
           Y            0.00000   1.00000   0.00000
           Z            0.00000   0.00000   1.00000
 This molecule is a prolate symmetric top.
 Rotational symmetry number  1.
 Rotational temperature (Kelvin)      1.19203
 Rotational constant (GHZ):          24.837938
    2 imaginary frequencies ignored.
 Zero-point vibrational energy       6638.9 (Joules/Mol)
                                    1.58673 (Kcal/Mol)
 Warning -- explicit consideration of   2 degrees of freedom as
           vibrations may cause significant error
 Vibrational temperatures:    798.47   798.47
          (Kelvin)

 Zero-point correction=                           0.002529 (Hartree/Particle)
 Thermal correction to Energy=                    0.005262
 Thermal correction to Enthalpy=                  0.006206
 Thermal correction to Gibbs Free Energy=        -0.017775
 Sum of electronic and zero-point Energies=           -100.791426
 Sum of electronic and thermal Energies=              -100.788693
 Sum of electronic and thermal Enthalpies=            -100.787748
 Sum of electronic and thermal Free Energies=         -100.811730

                     E (Thermal)             CV                S
                      KCal/Mol        Cal/Mol-Kelvin    Cal/Mol-Kelvin
 Total                    3.302              7.226             50.474
 Electronic               0.000              0.000              1.377
 Translational            0.889              2.981             35.068
 Rotational               0.592              1.987             12.960
 Vibrational              1.821              2.258              1.068
 Vibration     1          0.910              1.129              0.534
 Vibration     2          0.910              1.129              0.534

 Normal termination of Gaussian 16 at Fri Aug 22 16:56:43 2025.
