 Gaussian 16, Revision C.01,
 Gaussian 16:  ES64L-G16RevC.01  3-Jul-2019

 -----------------------------------------
 # sp b3lyp/6-311g** Force nosymm scf=(qc)
 -----------------------------------------

 -------------------
 Title Card Required
 -------------------
 Symbolic Z-matrix:
 Charge =  0 Multiplicity = 2

                          Input orientation:
 ---------------------------------------------------------------------
 Center     Atomic      Atomic             Coordinates (Angstroms)
 Number     Number       Type             X           Y           Z
 ---------------------------------------------------------------------
      1          1           0        0.000000    0.000000    0.000000
      2          1           0       -2.200000    0.000000    0.000000
      3          9           0        1.500000    0.000000    0.000000
 ---------------------------------------------------------------------

 SCF Done:  E(UB3LYP) =  -100.858092312     a.u. after   11 cycles

 Alpha  occ. eigenvalues --  -24.63940  -1.09787  -0.43746  -0.36577  -0.36140
 Alpha  occ. eigenvalues --   -0.36140
 Alpha virt. eigenvalues --   -0.12428   0.23480   0.26952   0.94068   0.94068
 Alpha virt. eigenvalues --    1.03062   1.08292   1.20800   1.20800   1.28543
 Alpha virt. eigenvalues --    1.32869   1.32869   1.74156   2.10404   2.23155

  Beta  occ. eigenvalues --  -24.63425  -1.08426  -0.42140  -0.35652  -0.35652
  Beta virt. eigenvalues --   -0.17155  -0.07744   0.25712   0.33887   0.93912
  Beta virt. eigenvalues --    0.93912   1.04457   1.10114   1.30647   1.30647
  Beta virt. eigenvalues --    1.39606   1.39606   1.44077   1.73660   2.16659

 Mulliken charges and spin densities:
               1          2
     1  H    0.319375  -0.118427
     2  H    0.033180   0.957010
     3  F   -0.352554   0.161417
 Sum of Mulliken charges =   0.00000   1.00000

 Dipole moment (field-independent basis, Debye):
    X=             -2.9495    Y=              0.0000    Z=              0.0000  Tot=              2.9495
 Quadrupole moment (field-independent basis, Debye-Ang):
   XX=             -9.0587   YY=             -7.3147   ZZ=             -7.3147
   XY=              0.0000   XZ=              0.0000   YZ=              0.0000

  Exact polarizability:      25.757       0.000       2.215       0.000       0.000       2.215
 Approx polarizability:      37.912       0.000       2.145       0.000      -0.000       2.145

 ******    2 imaginary frequencies (negative Signs) ******

                      1                      2                      3
                      A                      A                      A
 Frequencies --  -1655.1344              -335.9138               984.3851
 Red. masses --      1.0418                 1.0701                 1.0232
 Frc consts  --      1.6815                 0.0711                 0.5842
 IR Inten    --     65.6480                 2.1959                82.4888

                      4
                      A
 Frequencies --    984.3851
 Red. masses --      1.0232
 Frc consts  --      0.5842
 IR Inten    --     82.4888

 - Thermochemistry -
 -------------------
 Temperature   298.150 Kelvin.  Pressure   1.00000 Atm.
 Atom     1 has atomic number  1 and mass   1.00783

 Molecular mass:    21.01405 amu.
 Principal axes and moments of inertia in atomic units:
                           1         2         3
     Eigenvalues --     0.00000  52.70091  52.70091
           X            1.00000  -0.00000   0.00000
           Y            0.00000   1.00000   0.00000
           Z            0.00000   0.00000   1.00000
 This molecule is a prolate symmetric top.
 Rotational symmetry number  1.
 Rotational temperature (Kelvin)      1.64350
 Rotational constant (GHZ):          34.244975
    2 imaginary frequencies ignored.
 Zero-point vibrational energy      11775.9 (Joules/Mol)
                                    2.81450 (Kcal/Mol)
 Vibrational temperatures:   1416.31  1416.31
          (Kelvin)

 Zero-point correction=                           0.004485 (Hartree/Particle)
 Thermal correction to Energy=                    0.006924
 Thermal correction to Enthalpy=                  0.007868
 Thermal correction to Gibbs Free Energy=        -0.015398
 Sum of electronic and zero-point Energies=           -100.853607
 Sum of electronic and thermal Energies=              -100.851168
 Sum of electronic and thermal Enthalpies=            -100.850224
 Sum of electronic and thermal Free Energies=         -100.873490

                     E (Thermal)             CV                S
                      KCal/Mol        Cal/Mol-Kelvin    Cal/Mol-Kelvin
 Total                    4.345              5.757             48.967
 Electronic               0.000              0.000              1.377
 Translational            0.889              2.981             35.068
 Rotational               0.592              1.987             12.322
 Vibrational              2.864              0.789              0.199

 Normal termination of Gaussian 16 at Fri Aug 22 16:25:41 2025.
