 Gaussian 16, Revision C.01,
 Gaussian 16:  ES64L-G16RevC.01  3-Jul-2019

 -----------------------------------------
 # sp b3lyp/6-311g** Force nosymm scf=(qc)
 -----------------------------------------

 -------------------
 Title Card Required
 -------------------
 Symbolic Z-matrix:
 Charge =  0 Multiplicity = 2

                          Input orientation:
 ---------------------------------------------------------------------
 Center     Atomic      Atomic             Coordinates (Angstroms)
 Number     Number       Type             X           Y           Z
 ---------------------------------------------------------------------
      1          1           0        0.000000    0.000000    0.000000
      2          1           0       -1.100000    0.000000    0.000000
      3          9           0        1.300000    0.000000    0.000000
 ---------------------------------------------------------------------

 SCF Done:  E(UB3LYP) =  -100.931463120     a.u. after    8 cycles

 Alpha  occ. eigenvalues --  -24.65967  -1.14035  -0.52988  -0.38776  -0.38776
 Alpha  occ. eigenvalues --   -0.38657
 Alpha virt. eigenvalues --    0.04311   0.19477   0.33332   0.90551   0.90551
 Alpha virt. eigenvalues --    0.99627   1.08500   1.08500   1.22989   1.57280
 Alpha virt. eigenvalues --    1.57280   1.60505   2.17233   2.30900   2.45562

  Beta  occ. eigenvalues --  -24.64387  -1.09884  -0.45859  -0.37287  -0.37287
  Beta virt. eigenvalues --   -0.21927   0.07199   0.21778   0.36405   0.91435
  Beta virt. eigenvalues --    0.91435   1.03265   1.13432   1.13432   1.27819
  Beta virt. eigenvalues --    1.60218   1.60218   1.64095   2.25141   2.32082

 Mulliken charges and spin densities:
               1          2
     1  H    0.243633  -0.093708
     2  H    0.052885   0.625474
     3  F   -0.296518   0.468234
 Sum of Mulliken charges =   0.00000   1.00000

 Dipole moment (field-independent basis, Debye):
    X=             -2.2661    Y=              0.0000    Z=             -0.0000  Tot=              2.2661
 Quadrupole moment (field-independent basis, Debye-Ang):
   XX=             -7.7105   YY=             -6.9439   ZZ=             -6.9439
   XY=              0.0000   XZ=             -0.0000   YZ=              0.0000

  Exact polarizability:      24.963       0.000       2.467       0.000       0.000       2.467
 Approx polarizability:      35.298      -0.000       2.453       0.000       0.000       2.453

 ******    1 imaginary frequencies (negative Signs) ******

                      1                      2                      3
                      A                      A                      A
 Frequencies --  -2505.9552               855.9213              1132.4868
 Red. masses --      1.0269                 1.0863                 1.0160
 Frc consts  --      3.7996                 0.4689                 0.7678
 IR Inten    --    465.9655                55.2448                21.8457

                      4
                      A
 Frequencies --   1132.4868
 Red. masses --      1.0160
 Frc consts  --      0.7678
 IR Inten    --     21.8457

 - Thermochemistry -
 -------------------
 Temperature   298.150 Kelvin.  Pressure   1.00000 Atm.
 Atom     1 has atomic number  1 and mass   1.00783

 Molecular mass:    21.01405 amu.
 Principal axes and moments of inertia in atomic units:
                           1         2         3
     Eigenvalues --     0.00000  24.44962  24.44962
           X            1.00000  -0.00000   0.00000
           Y            0.00000   1.00000   0.00000
           Z            0.00000   0.00000   1.00000
 This molecule is a prolate symmetric top.
 Rotational symmetry number  1.
 Rotational temperature (Kelvin)      3.54255
 Rotational constant (GHZ):          73.814678
    1 imaginary frequencies ignored.
 Zero-point vibrational energy      18667.1 (Joules/Mol)
                                    4.46154 (Kcal/Mol)
 Vibrational temperatures:   1231.48  1629.40  1629.40
          (Kelvin)

 Zero-point correction=                           0.007110 (Hartree/Particle)
 Thermal correction to Energy=                    0.009578
 Thermal correction to Enthalpy=                  0.010522
 Thermal correction to Gibbs Free Energy=        -0.012055
 Sum of electronic and zero-point Energies=           -100.924353
 Sum of electronic and thermal Energies=              -100.921885
 Sum of electronic and thermal Enthalpies=            -100.920941
 Sum of electronic and thermal Free Energies=         -100.943518

                     E (Thermal)             CV                S
                      KCal/Mol        Cal/Mol-Kelvin    Cal/Mol-Kelvin
 Total                    6.010              6.038             47.517
 Electronic               0.000              0.000              1.377
 Translational            0.889              2.981             35.068
 Rotational               0.592              1.987             10.796
 Vibrational              4.529              1.070              0.275

 Normal termination of Gaussian 16 at Fri Aug 22 16:14:24 2025.
