 Gaussian 16, Revision C.01,
 Gaussian 16:  ES64L-G16RevC.01  3-Jul-2019

 -----------------------------------------
 # sp b3lyp/6-311g** Force nosymm scf=(qc)
 -----------------------------------------

 -------------------
 Title Card Required
 -------------------
 Symbolic Z-matrix:
 Charge =  0 Multiplicity = 2

                          Input orientation:
 ---------------------------------------------------------------------
 Center     Atomic      Atomic             Coordinates (Angstroms)
 Number     Number       Type             X           Y           Z
 ---------------------------------------------------------------------
      1          1           0        0.000000    0.000000    0.000000
      2          1           0       -3.500000    0.000000    0.000000
      3          9           0        3.250000    0.000000    0.000000
 ---------------------------------------------------------------------

 SCF Done:  E(UB3LYP) =  -100.759807515     a.u. after   24 cycles

 Alpha  occ. eigenvalues --  -24.74853  -1.20856  -0.53974  -0.45318  -0.45318
 Alpha  occ. eigenvalues --   -0.32424
 Alpha virt. eigenvalues --   -0.07457   0.24183   0.36523   0.88474   0.91810
 Alpha virt. eigenvalues --    0.91810   1.02656   1.25081   1.25081   1.25236
 Alpha virt. eigenvalues --    1.44715   1.44715   1.44897   2.14935   2.40966

  Beta  occ. eigenvalues --  -24.71774  -1.12017  -0.42234  -0.42234  -0.33202
  Beta virt. eigenvalues --   -0.25201  -0.06516   0.23979   0.37895   0.93288
  Beta virt. eigenvalues --    0.93288   0.97424   1.06551   1.24181   1.24181
  Beta virt. eigenvalues --    1.24351   1.45858   1.46103   1.46103   2.15246

 Mulliken charges and spin densities:
               1          2
     1  H    0.021428  -0.974097
     2  H    0.000294   0.997913
     3  F   -0.021722   0.976184
 Sum of Mulliken charges =  -0.00000   1.00000

 Dipole moment (field-independent basis, Debye):
    X=             -0.3677    Y=             -0.0000    Z=              0.0000  Tot=              0.3677
 Quadrupole moment (field-independent basis, Debye-Ang):
   XX=             -7.8155   YY=             -7.6177   ZZ=             -7.6177
   XY=             -0.0000   XZ=              0.0000   YZ=              0.0000

  Exact polarizability:      29.143      -0.000       2.030       0.000       0.000       2.030
 Approx polarizability:      25.935      -0.000       1.930       0.000      -0.000       1.930

 ******    2 imaginary frequencies (negative Signs) ******

                      1                      2                      3
                      A                      A                      A
 Frequencies --   -301.4682              -112.8221               100.1610
 Red. masses --      1.0387                 1.0735                 1.0189
 Frc consts  --      0.0556                 0.0081                 0.0060
 IR Inten    --     22.8832                 1.0102                 0.4205

                      4
                      A
 Frequencies --    100.1610
 Red. masses --      1.0189
 Frc consts  --      0.0060
 IR Inten    --      0.4205

 - Thermochemistry -
 -------------------
 Temperature   298.150 Kelvin.  Pressure   1.00000 Atm.
 Atom     1 has atomic number  1 and mass   1.00783

 Molecular mass:    21.01405 amu.
 Principal axes and moments of inertia in atomic units:
                           1         2         3
     Eigenvalues --     0.00000 184.73366 184.73366
           X            1.00000  -0.00000   0.00000
           Y            0.00000   1.00000   0.00000
           Z            0.00000   0.00000   1.00000
 This molecule is a prolate symmetric top.
 Rotational symmetry number  1.
 Rotational temperature (Kelvin)      0.46886
 Rotational constant (GHZ):           9.769423
    2 imaginary frequencies ignored.
 Zero-point vibrational energy       1198.2 (Joules/Mol)
                                    0.28637 (Kcal/Mol)
 Warning -- explicit consideration of   2 degrees of freedom as
           vibrations may cause significant error
 Vibrational temperatures:    144.11   144.11
          (Kelvin)

 Zero-point correction=                           0.000456 (Hartree/Particle)
 Thermal correction to Energy=                    0.004285
 Thermal correction to Enthalpy=                  0.005230
 Thermal correction to Gibbs Free Energy=        -0.022405
 Sum of electronic and zero-point Energies=           -100.759351
 Sum of electronic and thermal Energies=              -100.755522
 Sum of electronic and thermal Enthalpies=            -100.754578
 Sum of electronic and thermal Free Energies=         -100.782213

                     E (Thermal)             CV                S
                      KCal/Mol        Cal/Mol-Kelvin    Cal/Mol-Kelvin
 Total                    2.689              8.866             58.163
 Electronic               0.000              0.000              1.377
 Translational            0.889              2.981             35.068
 Rotational               0.592              1.987             14.815
 Vibrational              1.208              3.898              6.902
 Vibration     1          0.604              1.949              3.451
 Vibration     2          0.604              1.949              3.451

 Normal termination of Gaussian 16 at Fri Aug 22 20:36:14 2025.
