 Gaussian 16, Revision C.01,
 Gaussian 16:  ES64L-G16RevC.01  3-Jul-2019

 -----------------------------------------
 # sp b3lyp/6-311g** Force nosymm scf=(qc)
 -----------------------------------------

 -------------------
 Title Card Required
 -------------------
 Symbolic Z-matrix:
 Charge =  0 Multiplicity = 2

                          Input orientation:
 ---------------------------------------------------------------------
 Center     Atomic      Atomic             Coordinates (Angstroms)
 Number     Number       Type             X           Y           Z
 ---------------------------------------------------------------------
      1          1           0        0.000000    0.000000    0.000000
      2          1           0       -0.800000    0.000000    0.000000
      3          9           0        1.650000    0.000000    0.000000
 ---------------------------------------------------------------------

 SCF Done:  E(UB3LYP) =  -100.936209952     a.u. after    7 cycles

 Alpha  occ. eigenvalues --  -24.72226  -1.18845  -0.54625  -0.43411  -0.43411
 Alpha  occ. eigenvalues --   -0.43327
 Alpha virt. eigenvalues --    0.07182   0.20183   0.41222   0.89565   0.89565
 Alpha virt. eigenvalues --    0.96513   1.07423   1.07423   1.20332   1.68845
 Alpha virt. eigenvalues --    1.77376   1.77376   2.03837   2.39923   2.97418

  Beta  occ. eigenvalues --  -24.69459  -1.11127  -0.45684  -0.40691  -0.40691
  Beta virt. eigenvalues --   -0.24287   0.08510   0.21072   0.42711   0.90740
  Beta virt. eigenvalues --    0.90740   1.03342   1.09187   1.09187   1.23694
  Beta virt. eigenvalues --    1.71460   1.78371   1.78371   2.04976   2.41805

 Mulliken charges and spin densities:
               1          2
     1  H    0.082131  -0.049564
     2  H    0.031059   0.198043
     3  F   -0.113190   0.851521
 Sum of Mulliken charges =   0.00000   1.00000

 Dipole moment (field-independent basis, Debye):
    X=             -1.0109    Y=              0.0000    Z=              0.0000  Tot=              1.0109
 Quadrupole moment (field-independent basis, Debye-Ang):
   XX=             -6.7124   YY=             -6.8934   ZZ=             -6.8934
   XY=              0.0000   XZ=              0.0000   YZ=             -0.0000

  Exact polarizability:      22.187       0.000       2.247      -0.000       0.000       2.247
 Approx polarizability:      28.154       0.000       2.284       0.000       0.000       2.284

 ******    1 imaginary frequencies (negative Signs) ******

                      1                      2                      3
                      A                      A                      A
 Frequencies --   -426.7683               704.7298               704.7298
 Red. masses --      1.1079                 1.0115                 1.0115
 Frc consts  --      0.1189                 0.2960                 0.2960
 IR Inten    --    101.9680                 0.1537                 0.1537

                      4
                      A
 Frequencies --   3413.9538
 Red. masses --      1.0083
 Frc consts  --      6.9239
 IR Inten    --    661.1642

 - Thermochemistry -
 -------------------
 Temperature   298.150 Kelvin.  Pressure   1.00000 Atm.
 Atom     1 has atomic number  1 and mass   1.00783

 Molecular mass:    21.01405 amu.
 Principal axes and moments of inertia in atomic units:
                           1         2         3
     Eigenvalues --     0.00000  28.49983  28.49983
           X            1.00000  -0.00000   0.00000
           Y            0.00000   1.00000   0.00000
           Z            0.00000   0.00000   1.00000
 This molecule is a prolate symmetric top.
 Rotational symmetry number  1.
 Rotational temperature (Kelvin)      3.03910
 Rotational constant (GHZ):          63.324637
    1 imaginary frequencies ignored.
 Zero-point vibrational energy      28850.4 (Joules/Mol)
                                    6.89542 (Kcal/Mol)
 Vibrational temperatures:   1013.95  1013.95  4911.92
          (Kelvin)

 Zero-point correction=                           0.010989 (Hartree/Particle)
 Thermal correction to Energy=                    0.013571
 Thermal correction to Enthalpy=                  0.014515
 Thermal correction to Gibbs Free Energy=        -0.008362
 Sum of electronic and zero-point Energies=           -100.925221
 Sum of electronic and thermal Energies=              -100.922639
 Sum of electronic and thermal Enthalpies=            -100.921695
 Sum of electronic and thermal Free Energies=         -100.944571

                     E (Thermal)             CV                S
                      KCal/Mol        Cal/Mol-Kelvin    Cal/Mol-Kelvin
 Total                    8.516              6.608             48.147
 Electronic               0.000              0.000              1.377
 Translational            0.889              2.981             35.068
 Rotational               0.592              1.987             11.101
 Vibrational              7.034              1.640              0.601

 Normal termination of Gaussian 16 at Fri Aug 22 16:33:12 2025.
