 Gaussian 16, Revision C.01,
 Gaussian 16:  ES64L-G16RevC.01  3-Jul-2019

 -----------------------------------------
 # sp b3lyp/6-311g** Force nosymm scf=(qc)
 -----------------------------------------

 -------------------
 Title Card Required
 -------------------
 Symbolic Z-matrix:
 Charge =  0 Multiplicity = 2

                          Input orientation:
 ---------------------------------------------------------------------
 Center     Atomic      Atomic             Coordinates (Angstroms)
 Number     Number       Type             X           Y           Z
 ---------------------------------------------------------------------
      1          1           0        0.000000    0.000000    0.000000
      2          1           0       -2.100000    0.000000    0.000000
      3          9           0        2.500000    0.000000    0.000000
 ---------------------------------------------------------------------

 SCF Done:  E(UB3LYP) =  -100.778527398     a.u. after   18 cycles

 Alpha  occ. eigenvalues --  -24.71819  -1.18018  -0.50922  -0.42761  -0.42761
 Alpha  occ. eigenvalues --   -0.34603
 Alpha virt. eigenvalues --   -0.12687   0.24904   0.32274   0.90053   0.93597
 Alpha virt. eigenvalues --    0.93597   1.06185   1.23297   1.23297   1.23472
 Alpha virt. eigenvalues --    1.35621   1.35621   1.46134   2.11693   2.33783

  Beta  occ. eigenvalues --  -24.68971  -1.09909  -0.39922  -0.39922  -0.35193
  Beta virt. eigenvalues --   -0.23516  -0.11279   0.26486   0.32622   0.94966
  Beta virt. eigenvalues --    0.94966   0.97028   1.09185   1.22778   1.22778
  Beta virt. eigenvalues --    1.26313   1.37929   1.37929   1.46734   2.12287

 Mulliken charges and spin densities:
               1          2
     1  H    0.061538  -0.803646
     2  H    0.024910   0.903696
     3  F   -0.086449   0.899949
 Sum of Mulliken charges =  -0.00000   1.00000

 Dipole moment (field-independent basis, Debye):
    X=             -1.3507    Y=             -0.0000    Z=             -0.0000  Tot=              1.3507
 Quadrupole moment (field-independent basis, Debye-Ang):
   XX=             -8.3242   YY=             -7.6494   ZZ=             -7.6494
   XY=             -0.0000   XZ=             -0.0000   YZ=             -0.0000

  Exact polarizability:      56.275       0.000       2.009       0.000      -0.000       2.009
 Approx polarizability:      58.793       0.000       1.924       0.000       0.000       1.924

 ******    2 imaginary frequencies (negative Signs) ******

                      1                      2                      3
                      A                      A                      A
 Frequencies --  -1236.7999              -390.0886               493.1084
 Red. masses --      1.0100                 1.1059                 1.0160
 Frc consts  --      0.9103                 0.0991                 0.1456
 IR Inten    --     57.0652                47.7786                 2.3221

                      4
                      A
 Frequencies --    493.1084
 Red. masses --      1.0160
 Frc consts  --      0.1456
 IR Inten    --      2.3221

 - Thermochemistry -
 -------------------
 Temperature   298.150 Kelvin.  Pressure   1.00000 Atm.
 Atom     1 has atomic number  1 and mass   1.00783

 Molecular mass:    21.01405 amu.
 Principal axes and moments of inertia in atomic units:
                           1         2         3
     Eigenvalues --     0.00000  89.94771  89.94771
           X            1.00000  -0.00000   0.00000
           Y            0.00000   1.00000   0.00000
           Z            0.00000   0.00000   1.00000
 This molecule is a prolate symmetric top.
 Rotational symmetry number  1.
 Rotational temperature (Kelvin)      0.96294
 Rotational constant (GHZ):          20.064338
    2 imaginary frequencies ignored.
 Zero-point vibrational energy       5898.9 (Joules/Mol)
                                    1.40987 (Kcal/Mol)
 Warning -- explicit consideration of   2 degrees of freedom as
           vibrations may cause significant error
 Vibrational temperatures:    709.47   709.47
          (Kelvin)

 Zero-point correction=                           0.002247 (Hartree/Particle)
 Thermal correction to Energy=                    0.005066
 Thermal correction to Enthalpy=                  0.006010
 Thermal correction to Gibbs Free Energy=        -0.018308
 Sum of electronic and zero-point Energies=           -100.776281
 Sum of electronic and thermal Energies=              -100.773462
 Sum of electronic and thermal Enthalpies=            -100.772517
 Sum of electronic and thermal Free Energies=         -100.796835

                     E (Thermal)             CV                S
                      KCal/Mol        Cal/Mol-Kelvin    Cal/Mol-Kelvin
 Total                    3.179              7.499             51.181
 Electronic               0.000              0.000              1.377
 Translational            0.889              2.981             35.068
 Rotational               0.592              1.987             13.385
 Vibrational              1.698              2.531              1.351
 Vibration     1          0.849              1.265              0.676
 Vibration     2          0.849              1.265              0.676

 Normal termination of Gaussian 16 at Fri Aug 22 17:44:53 2025.
