 Gaussian 16, Revision C.01,
 Gaussian 16:  ES64L-G16RevC.01  3-Jul-2019

 -----------------------------------------
 # sp b3lyp/6-311g** Force nosymm scf=(qc)
 -----------------------------------------

 -------------------
 Title Card Required
 -------------------
 Symbolic Z-matrix:
 Charge =  0 Multiplicity = 2

                          Input orientation:
 ---------------------------------------------------------------------
 Center     Atomic      Atomic             Coordinates (Angstroms)
 Number     Number       Type             X           Y           Z
 ---------------------------------------------------------------------
      1          1           0        0.000000    0.000000    0.000000
      2          1           0       -2.250000    0.000000    0.000000
      3          9           0        2.250000    0.000000    0.000000
 ---------------------------------------------------------------------

 SCF Done:  E(UB3LYP) =  -100.781704207     a.u. after   14 cycles

 Alpha  occ. eigenvalues --  -24.70064  -1.16350  -0.49135  -0.41287  -0.41287
 Alpha  occ. eigenvalues --   -0.34883
 Alpha virt. eigenvalues --   -0.13182   0.24564   0.32107   0.89120   0.94441
 Alpha virt. eigenvalues --    0.94441   1.06332   1.22906   1.22906   1.27264
 Alpha virt. eigenvalues --    1.35439   1.35439   1.48677   2.12450   2.30974

  Beta  occ. eigenvalues --  -24.67393  -1.08799  -0.38636  -0.38636  -0.36266
  Beta virt. eigenvalues --   -0.22343  -0.10852   0.26151   0.33384   0.93770
  Beta virt. eigenvalues --    0.95615   0.95615   1.08992   1.22155   1.22155
  Beta virt. eigenvalues --    1.38421   1.39106   1.39106   1.43942   2.12382

 Mulliken charges and spin densities:
               1          2
     1  H    0.106932  -0.781730
     2  H    0.024361   0.939988
     3  F   -0.131293   0.841743
 Sum of Mulliken charges =  -0.00000   1.00000

 Dipole moment (field-independent basis, Debye):
    X=             -1.7493    Y=              0.0000    Z=              0.0000  Tot=              1.7493
 Quadrupole moment (field-independent basis, Debye-Ang):
   XX=             -8.8740   YY=             -7.5936   ZZ=             -7.5936
   XY=              0.0000   XZ=              0.0000   YZ=             -0.0000

  Exact polarizability:      48.153       0.000       2.026       0.000       0.000       2.026
 Approx polarizability:      53.239       0.000       1.928       0.000       0.000       1.928

 ******    2 imaginary frequencies (negative Signs) ******

                      1                      2                      3
                      A                      A                      A
 Frequencies --  -1125.9480              -450.6797               460.7193
 Red. masses --      1.0191                 1.0952                 1.0179
 Frc consts  --      0.7612                 0.1311                 0.1273
 IR Inten    --     64.3515                39.0699                 8.3777

                      4
                      A
 Frequencies --    460.7193
 Red. masses --      1.0179
 Frc consts  --      0.1273
 IR Inten    --      8.3777

 - Thermochemistry -
 -------------------
 Temperature   298.150 Kelvin.  Pressure   1.00000 Atm.
 Atom     1 has atomic number  1 and mass   1.00783

 Molecular mass:    21.01405 amu.
 Principal axes and moments of inertia in atomic units:
                           1         2         3
     Eigenvalues --     0.00000  83.23550  83.23550
           X            1.00000  -0.00000   0.00000
           Y            0.00000   1.00000   0.00000
           Z            0.00000   0.00000   1.00000
 This molecule is a prolate symmetric top.
 Rotational symmetry number  1.
 Rotational temperature (Kelvin)      1.04059
 Rotational constant (GHZ):          21.682349
    2 imaginary frequencies ignored.
 Zero-point vibrational energy       5511.4 (Joules/Mol)
                                    1.31726 (Kcal/Mol)
 Warning -- explicit consideration of   2 degrees of freedom as
           vibrations may cause significant error
 Vibrational temperatures:    662.87   662.87
          (Kelvin)

 Zero-point correction=                           0.002099 (Hartree/Particle)
 Thermal correction to Energy=                    0.004969
 Thermal correction to Enthalpy=                  0.005913
 Thermal correction to Gibbs Free Energy=        -0.018415
 Sum of electronic and zero-point Energies=           -100.779605
 Sum of electronic and thermal Energies=              -100.776735
 Sum of electronic and thermal Enthalpies=            -100.775791
 Sum of electronic and thermal Free Energies=         -100.800119

                     E (Thermal)             CV                S
                      KCal/Mol        Cal/Mol-Kelvin    Cal/Mol-Kelvin
 Total                    3.118              7.642             51.204
 Electronic               0.000              0.000              1.377
 Translational            0.889              2.981             35.068
 Rotational               0.592              1.987             13.230
 Vibrational              1.637              2.674              1.528
 Vibration     1          0.819              1.337              0.764
 Vibration     2          0.819              1.337              0.764

 Normal termination of Gaussian 16 at Fri Aug 22 17:16:40 2025.
