 Gaussian 16, Revision C.01,
 Gaussian 16:  ES64L-G16RevC.01  3-Jul-2019

 -----------------------------------------
 # sp b3lyp/6-311g** Force nosymm scf=(qc)
 -----------------------------------------

 -------------------
 Title Card Required
 -------------------
 Symbolic Z-matrix:
 Charge =  0 Multiplicity = 2

                          Input orientation:
 ---------------------------------------------------------------------
 Center     Atomic      Atomic             Coordinates (Angstroms)
 Number     Number       Type             X           Y           Z
 ---------------------------------------------------------------------
      1          1           0        0.000000    0.000000    0.000000
      2          1           0       -0.800000    0.000000    0.000000
      3          9           0        1.700000    0.000000    0.000000
 ---------------------------------------------------------------------

 SCF Done:  E(UB3LYP) =  -100.935668362     a.u. after    7 cycles

 Alpha  occ. eigenvalues --  -24.72660  -1.19168  -0.54490  -0.43724  -0.43724
 Alpha  occ. eigenvalues --   -0.43522
 Alpha virt. eigenvalues --    0.06954   0.20267   0.41372   0.89785   0.89785
 Alpha virt. eigenvalues --    0.95928   1.07303   1.07303   1.18587   1.68239
 Alpha virt. eigenvalues --    1.77382   1.77382   2.03576   2.39642   3.00666

  Beta  occ. eigenvalues --  -24.69843  -1.11277  -0.45355  -0.40947  -0.40947
  Beta virt. eigenvalues --   -0.24525   0.08210   0.21107   0.42659   0.90981
  Beta virt. eigenvalues --    0.90981   1.02979   1.08877   1.08877   1.21867
  Beta virt. eigenvalues --    1.70689   1.78262   1.78262   2.04660   2.41306

 Mulliken charges and spin densities:
               1          2
     1  H    0.067359  -0.047250
     2  H    0.032102   0.176901
     3  F   -0.099460   0.870349
 Sum of Mulliken charges =   0.00000   1.00000

 Dipole moment (field-independent basis, Debye):
    X=             -0.9266    Y=              0.0000    Z=              0.0000  Tot=              0.9266
 Quadrupole moment (field-independent basis, Debye-Ang):
   XX=             -6.6238   YY=             -6.9091   ZZ=             -6.9091
   XY=              0.0000   XZ=              0.0000   YZ=             -0.0000

  Exact polarizability:      22.139       0.000       2.223      -0.000      -0.000       2.223
 Approx polarizability:      27.677      -0.000       2.263       0.000      -0.000       2.263

 ******    1 imaginary frequencies (negative Signs) ******

                      1                      2                      3
                      A                      A                      A
 Frequencies --   -378.7046               755.5725               755.5725
 Red. masses --      1.1081                 1.0114                 1.0114
 Frc consts  --      0.0936                 0.3402                 0.3402
 IR Inten    --     90.0159                 0.0430                 0.0430

                      4
                      A
 Frequencies --   3454.7454
 Red. masses --      1.0081
 Frc consts  --      7.0893
 IR Inten    --    618.2880

 - Thermochemistry -
 -------------------
 Temperature   298.150 Kelvin.  Pressure   1.00000 Atm.
 Atom     1 has atomic number  1 and mass   1.00783

 Molecular mass:    21.01405 amu.
 Principal axes and moments of inertia in atomic units:
                           1         2         3
     Eigenvalues --     0.00000  29.85015  29.85015
           X            1.00000  -0.00000   0.00000
           Y            0.00000   1.00000   0.00000
           Z            0.00000   0.00000   1.00000
 This molecule is a prolate symmetric top.
 Rotational symmetry number  1.
 Rotational temperature (Kelvin)      2.90162
 Rotational constant (GHZ):          60.460034
    1 imaginary frequencies ignored.
 Zero-point vibrational energy      29702.6 (Joules/Mol)
                                    7.09910 (Kcal/Mol)
 Vibrational temperatures:   1087.10  1087.10  4970.61
          (Kelvin)

 Zero-point correction=                           0.011313 (Hartree/Particle)
 Thermal correction to Energy=                    0.013858
 Thermal correction to Enthalpy=                  0.014802
 Thermal correction to Gibbs Free Energy=        -0.008067
 Sum of electronic and zero-point Energies=           -100.924355
 Sum of electronic and thermal Energies=              -100.921810
 Sum of electronic and thermal Enthalpies=            -100.920866
 Sum of electronic and thermal Free Energies=         -100.943735

                     E (Thermal)             CV                S
                      KCal/Mol        Cal/Mol-Kelvin    Cal/Mol-Kelvin
 Total                    8.696              6.421             48.131
 Electronic               0.000              0.000              1.377
 Translational            0.889              2.981             35.068
 Rotational               0.592              1.987             11.193
 Vibrational              7.215              1.453              0.493

 Normal termination of Gaussian 16 at Fri Aug 22 16:36:21 2025.
