 Gaussian 16, Revision C.01,
 Gaussian 16:  ES64L-G16RevC.01  3-Jul-2019

 -----------------------------------------
 # sp b3lyp/6-311g** Force nosymm scf=(qc)
 -----------------------------------------

 -------------------
 Title Card Required
 -------------------
 Symbolic Z-matrix:
 Charge =  0 Multiplicity = 2

                          Input orientation:
 ---------------------------------------------------------------------
 Center     Atomic      Atomic             Coordinates (Angstroms)
 Number     Number       Type             X           Y           Z
 ---------------------------------------------------------------------
      1          1           0        0.000000    0.000000    0.000000
      2          1           0       -1.950000    0.000000    0.000000
      3          9           0        0.700000    0.000000    0.000000
 ---------------------------------------------------------------------

 SCF Done:  E(UB3LYP) =  -100.874274364     a.u. after    6 cycles

 Alpha  occ. eigenvalues --  -24.63076  -1.28145  -0.58683  -0.41653  -0.41653
 Alpha  occ. eigenvalues --   -0.35413
 Alpha virt. eigenvalues --    0.10411   0.24089   0.49833   0.93568   0.93568
 Alpha virt. eigenvalues --    0.96155   1.18067   1.21898   1.21898   1.44341
 Alpha virt. eigenvalues --    1.44341   1.55456   1.98508   2.17522   2.88077

  Beta  occ. eigenvalues --  -24.63037  -1.28035  -0.58496  -0.41625  -0.41625
  Beta virt. eigenvalues --   -0.10664   0.11937   0.34718   0.50828   0.93571
  Beta virt. eigenvalues --    0.93571   0.96320   1.27483   1.40703   1.40703
  Beta virt. eigenvalues --    1.45500   1.45500   1.63779   2.01730   2.41161

 Mulliken charges and spin densities:
               1          2
     1  H    0.247210   0.009978
     2  H    0.010652   0.982808
     3  F   -0.257862   0.007214
 Sum of Mulliken charges =   0.00000   1.00000

 Dipole moment (field-independent basis, Debye):
    X=             -1.6780    Y=             -0.0000    Z=             -0.0000  Tot=              1.6780
 Quadrupole moment (field-independent basis, Debye-Ang):
   XX=             -7.0162   YY=             -6.6259   ZZ=             -6.6259
   XY=             -0.0000   XZ=             -0.0000   YZ=              0.0000

  Exact polarizability:       6.616       0.000       2.502       0.000      -0.000       2.502
 Approx polarizability:       6.537      -0.000       2.496       0.000      -0.000       2.496

 ******    2 imaginary frequencies (negative Signs) ******

                      1                      2                      3
                      A                      A                      A
 Frequencies --  -3498.1724             -3498.1724               369.8234
 Red. masses --      1.0334                 1.0334                 1.0533
 Frc consts  --      7.4509                 7.4509                 0.0849
 IR Inten    --    177.4802               177.4802                 0.0739

                      4
                      A
 Frequencies --   9068.3955
 Red. masses --      1.0583
 Frc consts  --     51.2753
 IR Inten    --    142.4829

 - Thermochemistry -
 -------------------
 Temperature   298.150 Kelvin.  Pressure   1.00000 Atm.
 Atom     1 has atomic number  1 and mass   1.00783

 Molecular mass:    21.01405 amu.
 Principal axes and moments of inertia in atomic units:
                           1         2         3
     Eigenvalues --     0.00000  25.10047  25.10047
           X            1.00000  -0.00000   0.00000
           Y            0.00000   1.00000   0.00000
           Z            0.00000   0.00000   1.00000
 This molecule is a prolate symmetric top.
 Rotational symmetry number  1.
 Rotational temperature (Kelvin)      3.45069
 Rotational constant (GHZ):          71.900692
    2 imaginary frequencies ignored.
 Zero-point vibrational energy      56453.1 (Joules/Mol)
                                   13.49261 (Kcal/Mol)
 Warning -- explicit consideration of   1 degrees of freedom as
           vibrations may cause significant error
 Vibrational temperatures:    532.09 13047.40
          (Kelvin)

 Zero-point correction=                           0.021502 (Hartree/Particle)
 Thermal correction to Energy=                    0.024202
 Thermal correction to Enthalpy=                  0.025146
 Thermal correction to Gibbs Free Energy=         0.002162
 Sum of electronic and zero-point Energies=           -100.852773
 Sum of electronic and thermal Energies=              -100.850072
 Sum of electronic and thermal Enthalpies=            -100.849128
 Sum of electronic and thermal Free Energies=         -100.872112

                     E (Thermal)             CV                S
                      KCal/Mol        Cal/Mol-Kelvin    Cal/Mol-Kelvin
 Total                   15.187              6.502             48.374
 Electronic               0.000              0.000              1.377
 Translational            0.889              2.981             35.068
 Rotational               0.592              1.987             10.848
 Vibrational             13.706              1.534              1.081
 Vibration     1          0.742              1.534              1.081

 Normal termination of Gaussian 16 at Fri Aug 22 15:46:23 2025.
