 Gaussian 16, Revision C.01,
 Gaussian 16:  ES64L-G16RevC.01  3-Jul-2019

 -----------------------------------------
 # sp b3lyp/6-311g** Force nosymm scf=(qc)
 -----------------------------------------

 -------------------
 Title Card Required
 -------------------
 Symbolic Z-matrix:
 Charge =  0 Multiplicity = 2

                          Input orientation:
 ---------------------------------------------------------------------
 Center     Atomic      Atomic             Coordinates (Angstroms)
 Number     Number       Type             X           Y           Z
 ---------------------------------------------------------------------
      1          1           0        0.000000    0.000000    0.000000
      2          1           0       -3.850000    0.000000    0.000000
      3          9           0        3.700000    0.000000    0.000000
 ---------------------------------------------------------------------

 SCF Done:  E(UB3LYP) =  -100.758630801     a.u. after   29 cycles

 Alpha  occ. eigenvalues --  -24.75653  -1.21597  -0.54777  -0.45991  -0.45991
 Alpha  occ. eigenvalues --   -0.32263
 Alpha virt. eigenvalues --   -0.06224   0.24171   0.37561   0.87056   0.91314
 Alpha virt. eigenvalues --    0.91314   1.01404   1.25232   1.25232   1.25272
 Alpha virt. eigenvalues --    1.46207   1.46207   1.46557   2.14667   2.42235

  Beta  occ. eigenvalues --  -24.72522  -1.12596  -0.42853  -0.42853  -0.32609
  Beta virt. eigenvalues --   -0.25618  -0.05963   0.23943   0.38191   0.92809
  Beta virt. eigenvalues --    0.92809   0.96310   1.05475   1.24846   1.24846
  Beta virt. eigenvalues --    1.24868   1.46523   1.46660   1.46660   2.14731

 Mulliken charges and spin densities:
               1          2
     1  H    0.006482  -0.991902
     2  H    0.000047   0.999097
     3  F   -0.006528   0.992805
 Sum of Mulliken charges =  -0.00000   1.00000

 Dipole moment (field-independent basis, Debye):
    X=             -0.1253    Y=              0.0000    Z=              0.0000  Tot=              0.1253
 Quadrupole moment (field-independent basis, Debye-Ang):
   XX=             -7.1662   YY=             -7.6192   ZZ=             -7.6192
   XY=             -0.0000   XZ=              0.0000   YZ=              0.0000

  Exact polarizability:      17.486       0.000       2.029      -0.000      -0.000       2.029
 Approx polarizability:      13.063      -0.000       1.936       0.000      -0.000       1.936

 ******    2 imaginary frequencies (negative Signs) ******

                      1                      2                      3
                      A                      A                      A
 Frequencies --   -180.6767               -72.6663                57.8667
 Red. masses --      1.0336                 1.0790                 1.0184
 Frc consts  --      0.0199                 0.0034                 0.0020
 IR Inten    --      4.9394                 0.3491                 0.0433

                      4
                      A
 Frequencies --     57.8668
 Red. masses --      1.0184
 Frc consts  --      0.0020
 IR Inten    --      0.0433

 - Thermochemistry -
 -------------------
 Temperature   298.150 Kelvin.  Pressure   1.00000 Atm.
 Atom     1 has atomic number  1 and mass   1.00783

 Molecular mass:    21.01405 amu.
 Principal axes and moments of inertia in atomic units:
                           1         2         3
     Eigenvalues --     0.00000 232.57735 232.57735
           X            1.00000  -0.00000   0.00000
           Y            0.00000   1.00000   0.00000
           Z            0.00000   0.00000   1.00000
 This molecule is a prolate symmetric top.
 Rotational symmetry number  1.
 Rotational temperature (Kelvin)      0.37241
 Rotational constant (GHZ):           7.759746
    2 imaginary frequencies ignored.
 Zero-point vibrational energy        692.2 (Joules/Mol)
                                    0.16545 (Kcal/Mol)
 Warning -- explicit consideration of   2 degrees of freedom as
           vibrations may cause significant error
 Vibrational temperatures:     83.26    83.26
          (Kelvin)

 Zero-point correction=                           0.000264 (Hartree/Particle)
 Thermal correction to Energy=                    0.004261
 Thermal correction to Enthalpy=                  0.005205
 Thermal correction to Gibbs Free Energy=        -0.023671
 Sum of electronic and zero-point Energies=           -100.758367
 Sum of electronic and thermal Energies=              -100.754370
 Sum of electronic and thermal Enthalpies=            -100.753426
 Sum of electronic and thermal Free Energies=         -100.782302

                     E (Thermal)             CV                S
                      KCal/Mol        Cal/Mol-Kelvin    Cal/Mol-Kelvin
 Total                    2.674              8.917             60.775
 Electronic               0.000              0.000              1.377
 Translational            0.889              2.981             35.068
 Rotational               0.592              1.987             15.272
 Vibrational              1.193              3.949              9.057
 Vibration     1          0.596              1.974              4.529
 Vibration     2          0.596              1.974              4.529

 Normal termination of Gaussian 16 at Sat Aug 23 00:05:25 2025.
