 Gaussian 16, Revision C.01,
 Gaussian 16:  ES64L-G16RevC.01  3-Jul-2019

 -----------------------------------------
 # sp b3lyp/6-311g** Force nosymm scf=(qc)
 -----------------------------------------

 -------------------
 Title Card Required
 -------------------
 Symbolic Z-matrix:
 Charge =  0 Multiplicity = 2

                          Input orientation:
 ---------------------------------------------------------------------
 Center     Atomic      Atomic             Coordinates (Angstroms)
 Number     Number       Type             X           Y           Z
 ---------------------------------------------------------------------
      1          1           0        0.000000    0.000000    0.000000
      2          1           0       -4.000000    0.000000    0.000000
      3          9           0        3.500000    0.000000    0.000000
 ---------------------------------------------------------------------

 SCF Done:  E(UB3LYP) =  -100.758867712     a.u. after   29 cycles

 Alpha  occ. eigenvalues --  -24.75377  -1.21341  -0.54500  -0.45758  -0.45758
 Alpha  occ. eigenvalues --   -0.32289
 Alpha virt. eigenvalues --   -0.05942   0.24142   0.37456   0.87583   0.91487
 Alpha virt. eigenvalues --    0.91487   1.01812   1.25205   1.25205   1.25225
 Alpha virt. eigenvalues --    1.47420   1.47420   1.47798   2.14521   2.42965

  Beta  occ. eigenvalues --  -24.72263  -1.12394  -0.42638  -0.42638  -0.32808
  Beta virt. eigenvalues --   -0.25477  -0.05810   0.23841   0.38191   0.92976
  Beta virt. eigenvalues --    0.92976   0.96717   1.05817   1.24615   1.24615
  Beta virt. eigenvalues --    1.24619   1.46729   1.46814   1.46814   2.14666

 Mulliken charges and spin densities:
               1          2
     1  H    0.011622  -0.986577
     2  H    0.000047   0.999380
     3  F   -0.011669   0.987197
 Sum of Mulliken charges =  -0.00000   1.00000

 Dipole moment (field-independent basis, Debye):
    X=             -0.2109    Y=             -0.0000    Z=             -0.0000  Tot=              0.2109
 Quadrupole moment (field-independent basis, Debye-Ang):
   XX=             -7.4320   YY=             -7.6168   ZZ=             -7.6168
   XY=             -0.0000   XZ=             -0.0000   YZ=             -0.0000

  Exact polarizability:      22.756      -0.000       2.036      -0.000      -0.000       2.036
 Approx polarizability:      18.106      -0.000       1.934      -0.000       0.000       1.934

 ******    2 imaginary frequencies (negative Signs) ******

                      1                      2                      3
                      A                      A                      A
 Frequencies --   -213.5342               -67.2423                58.4420
 Red. masses --      1.0463                 1.0654                 1.0196
 Frc consts  --      0.0281                 0.0028                 0.0021
 IR Inten    --     11.3910                 0.1709                 0.1235

                      4
                      A
 Frequencies --     58.4421
 Red. masses --      1.0196
 Frc consts  --      0.0021
 IR Inten    --      0.1235

 - Thermochemistry -
 -------------------
 Temperature   298.150 Kelvin.  Pressure   1.00000 Atm.
 Atom     1 has atomic number  1 and mass   1.00783

 Molecular mass:    21.01405 amu.
 Principal axes and moments of inertia in atomic units:
                           1         2         3
     Eigenvalues --     0.00000 225.64665 225.64665
           X            1.00000  -0.00000   0.00000
           Y            0.00000   1.00000   0.00000
           Z            0.00000   0.00000   1.00000
 This molecule is a prolate symmetric top.
 Rotational symmetry number  1.
 Rotational temperature (Kelvin)      0.38385
 Rotational constant (GHZ):           7.998086
    2 imaginary frequencies ignored.
 Zero-point vibrational energy        699.1 (Joules/Mol)
                                    0.16709 (Kcal/Mol)
 Warning -- explicit consideration of   2 degrees of freedom as
           vibrations may cause significant error
 Vibrational temperatures:     84.08    84.09
          (Kelvin)

 Zero-point correction=                           0.000266 (Hartree/Particle)
 Thermal correction to Energy=                    0.004261
 Thermal correction to Enthalpy=                  0.005206
 Thermal correction to Gibbs Free Energy=        -0.023624
 Sum of electronic and zero-point Energies=           -100.758601
 Sum of electronic and thermal Energies=              -100.754606
 Sum of electronic and thermal Enthalpies=            -100.753662
 Sum of electronic and thermal Free Energies=         -100.782491

                     E (Thermal)             CV                S
                      KCal/Mol        Cal/Mol-Kelvin    Cal/Mol-Kelvin
 Total                    2.674              8.916             60.676
 Electronic               0.000              0.000              1.377
 Translational            0.889              2.981             35.068
 Rotational               0.592              1.987             15.212
 Vibrational              1.193              3.948              9.018
 Vibration     1          0.596              1.974              4.509
 Vibration     2          0.596              1.974              4.509

 Normal termination of Gaussian 16 at Fri Aug 22 22:12:02 2025.
