 Gaussian 16, Revision C.01,
 Gaussian 16:  ES64L-G16RevC.01  3-Jul-2019

 -----------------------------------------
 # sp b3lyp/6-311g** Force nosymm scf=(qc)
 -----------------------------------------

 -------------------
 Title Card Required
 -------------------
 Symbolic Z-matrix:
 Charge =  0 Multiplicity = 2

                          Input orientation:
 ---------------------------------------------------------------------
 Center     Atomic      Atomic             Coordinates (Angstroms)
 Number     Number       Type             X           Y           Z
 ---------------------------------------------------------------------
      1          1           0        0.000000    0.000000    0.000000
      2          1           0       -3.050000    0.000000    0.000000
      3          9           0        2.250000    0.000000    0.000000
 ---------------------------------------------------------------------

 SCF Done:  E(UB3LYP) =  -100.773831051     a.u. after   21 cycles

 Alpha  occ. eigenvalues --  -24.67219  -1.08686  -0.38513  -0.38513  -0.36699
 Alpha  occ. eigenvalues --   -0.33161
 Alpha virt. eigenvalues --   -0.22082   0.21454   0.27819   0.92586   0.95675
 Alpha virt. eigenvalues --    0.95675   1.08532   1.21541   1.21541   1.24080
 Alpha virt. eigenvalues --    1.24080   1.24560   1.39711   2.12647   2.14756

  Beta  occ. eigenvalues --  -24.69873  -1.16186  -0.48938  -0.41147  -0.41147
  Beta virt. eigenvalues --   -0.12544  -0.04618   0.32417   0.39705   0.89052
  Beta virt. eigenvalues --    0.94527   0.94527   1.06609   1.38071   1.38071
  Beta virt. eigenvalues --    1.47653   1.47653   1.47768   1.50720   2.33941

 Mulliken charges and spin densities:
               1          2
     1  H    0.134445   0.840008
     2  H    0.003660   0.996414
     3  F   -0.138105  -0.836422
 Sum of Mulliken charges =   0.00000   1.00000

 Dipole moment (field-independent basis, Debye):
    X=             -1.6150    Y=             -0.0000    Z=             -0.0000  Tot=              1.6150
 Quadrupole moment (field-independent basis, Debye-Ang):
   XX=             -9.7886   YY=             -7.5210   ZZ=             -7.5210
   XY=             -0.0000   XZ=             -0.0000   YZ=              0.0000

  Exact polarizability:      33.482      -0.000       2.036      -0.000       0.000       2.036
 Approx polarizability:      45.030      -0.000       1.928       0.000      -0.000       1.928

 ******    1 imaginary frequencies (negative Signs) ******

                      1                      2                      3
                      A                      A                      A
 Frequencies --   -788.5727               136.7653               325.7153
 Red. masses --      1.0624                 1.0492                 1.0220
 Frc consts  --      0.3892                 0.0116                 0.0639
 IR Inten    --     78.0957                 1.5470                16.5091

                      4
                      A
 Frequencies --    325.7153
 Red. masses --      1.0220
 Frc consts  --      0.0639
 IR Inten    --     16.5091

 - Thermochemistry -
 -------------------
 Temperature   298.150 Kelvin.  Pressure   1.00000 Atm.
 Atom     1 has atomic number  1 and mass   1.00783

 Molecular mass:    21.01405 amu.
 Principal axes and moments of inertia in atomic units:
                           1         2         3
     Eigenvalues --     0.00000 109.47710 109.47710
           X            1.00000  -0.00000   0.00000
           Y            0.00000   1.00000   0.00000
           Z            0.00000   0.00000   1.00000
 This molecule is a prolate symmetric top.
 Rotational symmetry number  1.
 Rotational temperature (Kelvin)      0.79116
 Rotational constant (GHZ):          16.485102
    1 imaginary frequencies ignored.
 Zero-point vibrational energy       4714.5 (Joules/Mol)
                                    1.12678 (Kcal/Mol)
 Warning -- explicit consideration of   3 degrees of freedom as
           vibrations may cause significant error
 Vibrational temperatures:    196.77   468.63   468.63
          (Kelvin)

 Zero-point correction=                           0.001796 (Hartree/Particle)
 Thermal correction to Energy=                    0.005601
 Thermal correction to Enthalpy=                  0.006545
 Thermal correction to Gibbs Free Energy=        -0.019887
 Sum of electronic and zero-point Energies=           -100.772035
 Sum of electronic and thermal Energies=              -100.768230
 Sum of electronic and thermal Enthalpies=            -100.767286
 Sum of electronic and thermal Free Energies=         -100.793719

                     E (Thermal)             CV                S
                      KCal/Mol        Cal/Mol-Kelvin    Cal/Mol-Kelvin
 Total                    3.514             10.133             55.632
 Electronic               0.000              0.000              1.377
 Translational            0.889              2.981             35.068
 Rotational               0.592              1.987             13.775
 Vibrational              2.033              5.165              5.411
 Vibration     1          0.614              1.917              2.849
 Vibration     2          0.710              1.624              1.281
 Vibration     3          0.710              1.624              1.281

 Normal termination of Gaussian 16 at Fri Aug 22 17:17:23 2025.
