 Gaussian 16, Revision C.01,
 Gaussian 16:  ES64L-G16RevC.01  3-Jul-2019

 -----------------------------------------
 # sp b3lyp/6-311g** Force nosymm scf=(qc)
 -----------------------------------------

 -------------------
 Title Card Required
 -------------------
 Symbolic Z-matrix:
 Charge =  0 Multiplicity = 2

                          Input orientation:
 ---------------------------------------------------------------------
 Center     Atomic      Atomic             Coordinates (Angstroms)
 Number     Number       Type             X           Y           Z
 ---------------------------------------------------------------------
      1          1           0        0.000000    0.000000    0.000000
      2          1           0       -0.850000    0.000000    0.000000
      3          9           0        2.000000    0.000000    0.000000
 ---------------------------------------------------------------------

 SCF Done:  E(UB3LYP) =  -100.929755636     a.u. after    7 cycles

 Alpha  occ. eigenvalues --  -24.74411  -1.20538  -0.54304  -0.45026  -0.45026
 Alpha  occ. eigenvalues --   -0.42893
 Alpha virt. eigenvalues --    0.04720   0.20661   0.41829   0.90879   0.90879
 Alpha virt. eigenvalues --    0.91306   1.06831   1.06831   1.13019   1.57894
 Alpha virt. eigenvalues --    1.74013   1.74013   2.10435   2.37605   2.88392

  Beta  occ. eigenvalues --  -24.71421  -1.12028  -0.43092  -0.42047  -0.42047
  Beta virt. eigenvalues --   -0.25500   0.05676   0.21257   0.42344   0.92222
  Beta virt. eigenvalues --    0.92222   0.99139   1.07613   1.07613   1.16324
  Beta virt. eigenvalues --    1.59572   1.74473   1.74473   2.11192   2.38418

 Mulliken charges and spin densities:
               1          2
     1  H    0.012449  -0.033964
     2  H    0.032980   0.096265
     3  F   -0.045429   0.937698
 Sum of Mulliken charges =   0.00000   1.00000

 Dipole moment (field-independent basis, Debye):
    X=             -0.5670    Y=             -0.0000    Z=              0.0000  Tot=              0.5670
 Quadrupole moment (field-independent basis, Debye-Ang):
   XX=             -6.2089   YY=             -7.0348   ZZ=             -7.0348
   XY=             -0.0000   XZ=              0.0000   YZ=              0.0000

  Exact polarizability:      22.422       0.000       2.128      -0.000      -0.000       2.128
 Approx polarizability:      26.264      -0.000       2.176      -0.000      -0.000       2.176

 ******    1 imaginary frequencies (negative Signs) ******

                      1                      2                      3
                      A                      A                      A
 Frequencies --   -283.4653              1207.8007              1207.8007
 Red. masses --      1.1084                 1.0108                 1.0108
 Frc consts  --      0.0525                 0.8688                 0.8688
 IR Inten    --     46.0376                 0.1143                 0.1143

                      4
                      A
 Frequencies --   3011.0403
 Red. masses --      1.0079
 Frc consts  --      5.3841
 IR Inten    --    363.7102

 - Thermochemistry -
 -------------------
 Temperature   298.150 Kelvin.  Pressure   1.00000 Atm.
 Atom     1 has atomic number  1 and mass   1.00783

 Molecular mass:    21.01405 amu.
 Principal axes and moments of inertia in atomic units:
                           1         2         3
     Eigenvalues --     0.00000  39.56883  39.56883
           X            1.00000  -0.00000   0.00000
           Y            0.00000   1.00000   0.00000
           Z            0.00000   0.00000   1.00000
 This molecule is a prolate symmetric top.
 Rotational symmetry number  1.
 Rotational temperature (Kelvin)      2.18894
 Rotational constant (GHZ):          45.610168
    1 imaginary frequencies ignored.
 Zero-point vibrational energy      32458.5 (Joules/Mol)
                                    7.75777 (Kcal/Mol)
 Vibrational temperatures:   1737.76  1737.76  4332.22
          (Kelvin)

 Zero-point correction=                           0.012363 (Hartree/Particle)
 Thermal correction to Energy=                    0.014756
 Thermal correction to Enthalpy=                  0.015700
 Thermal correction to Gibbs Free Energy=        -0.007239
 Sum of electronic and zero-point Energies=           -100.917393
 Sum of electronic and thermal Energies=              -100.915000
 Sum of electronic and thermal Enthalpies=            -100.914056
 Sum of electronic and thermal Free Energies=         -100.936994

                     E (Thermal)             CV                S
                      KCal/Mol        Cal/Mol-Kelvin    Cal/Mol-Kelvin
 Total                    9.259              5.368             48.278
 Electronic               0.000              0.000              1.377
 Translational            0.889              2.981             35.068
 Rotational               0.592              1.987             11.753
 Vibrational              7.778              0.400              0.080

 Normal termination of Gaussian 16 at Fri Aug 22 16:55:26 2025.
