 Gaussian 16, Revision C.01,
 Gaussian 16:  ES64L-G16RevC.01  3-Jul-2019

 -----------------------------------------
 # sp b3lyp/6-311g** Force nosymm scf=(qc)
 -----------------------------------------

 -------------------
 Title Card Required
 -------------------
 Symbolic Z-matrix:
 Charge =  0 Multiplicity = 2

                          Input orientation:
 ---------------------------------------------------------------------
 Center     Atomic      Atomic             Coordinates (Angstroms)
 Number     Number       Type             X           Y           Z
 ---------------------------------------------------------------------
      1          1           0        0.000000    0.000000    0.000000
      2          1           0       -1.300000    0.000000    0.000000
      3          9           0        2.950000    0.000000    0.000000
 ---------------------------------------------------------------------

 SCF Done:  E(UB3LYP) =  -100.854371220     a.u. after   47 cycles

 Alpha  occ. eigenvalues --  -24.76743  -1.22561  -0.55748  -0.47009  -0.46897
 Alpha  occ. eigenvalues --   -0.35119
 Alpha virt. eigenvalues --   -0.05926   0.23752   0.33072   0.85715   0.90588
 Alpha virt. eigenvalues --    0.93278   1.04082   1.15508   1.15515   1.15873
 Alpha virt. eigenvalues --    1.49608   1.49615   1.99458   2.29326   2.53893

  Beta  occ. eigenvalues --  -24.73581  -1.13475  -0.43850  -0.43728  -0.35105
  Beta virt. eigenvalues --   -0.26371  -0.05909   0.23774   0.33150   0.92086
  Beta virt. eigenvalues --    0.94972   0.95172   1.07941   1.15507   1.15513
  Beta virt. eigenvalues --    1.15875   1.49606   1.49614   1.99467   2.29328

 Mulliken charges and spin densities:
               1          2
     1  H   -0.001039   0.000228
     2  H   -0.007249  -0.001351
     3  F    0.008288   1.001124
 Sum of Mulliken charges =   0.00000   1.00000

 Dipole moment (field-independent basis, Debye):
    X=              0.1176    Y=             -0.0000    Z=             -0.0000  Tot=              0.1176
 Quadrupole moment (field-independent basis, Debye-Ang):
   XX=             -6.1411   YY=             -6.9306   ZZ=             -7.4070
   XY=             -0.0000   XZ=             -0.0000   YZ=              0.3601

  Exact polarizability:      18.763       0.000       2.434       0.000       0.192       2.180
 Approx polarizability:      30.020      -0.000       2.543      -0.000       0.242       2.223

 ******    1 imaginary frequencies (negative Signs) ******

                      1                      2                      3
                      A                      A                      A
 Frequencies --   -970.4238                32.3113              1389.2738
 Red. masses --      1.0078                 1.1085                 1.0110
 Frc consts  --      0.5592                 0.0007                 1.1497
 IR Inten    --      1.4019                 0.7263                 0.0068

                      4
                      A
 Frequencies --   1392.1266
 Red. masses --      1.0110
 Frc consts  --      1.1544
 IR Inten    --      0.0049

 - Thermochemistry -
 -------------------
 Temperature   298.150 Kelvin.  Pressure   1.00000 Atm.
 Atom     1 has atomic number  1 and mass   1.00783

 Molecular mass:    21.01405 amu.
 Principal axes and moments of inertia in atomic units:
                           1         2         3
     Eigenvalues --     0.00000  87.37952  87.37952
           X            1.00000  -0.00000   0.00000
           Y            0.00000   1.00000   0.00000
           Z            0.00000   0.00000   1.00000
 This molecule is a prolate symmetric top.
 Rotational symmetry number  1.
 Rotational temperature (Kelvin)      0.99124
 Rotational constant (GHZ):          20.654052
    1 imaginary frequencies ignored.
 Zero-point vibrational energy      16829.7 (Joules/Mol)
                                    4.02240 (Kcal/Mol)
 Warning -- explicit consideration of   1 degrees of freedom as
           vibrations may cause significant error
 Vibrational temperatures:     46.49  1998.86  2002.96
          (Kelvin)

 Zero-point correction=                           0.006410 (Hartree/Particle)
 Thermal correction to Energy=                    0.009659
 Thermal correction to Enthalpy=                  0.010603
 Thermal correction to Gibbs Free Energy=        -0.015763
 Sum of electronic and zero-point Energies=           -100.847961
 Sum of electronic and thermal Energies=              -100.844713
 Sum of electronic and thermal Enthalpies=            -100.843769
 Sum of electronic and thermal Free Energies=         -100.870135

                     E (Thermal)             CV                S
                      KCal/Mol        Cal/Mol-Kelvin    Cal/Mol-Kelvin
 Total                    6.061              7.170             55.492
 Electronic               0.000              0.000              1.377
 Translational            0.889              2.981             35.068
 Rotational               0.592              1.987             13.327
 Vibrational              4.580              2.202              5.720
 Vibration     1          0.594              1.983              5.682

 Normal termination of Gaussian 16 at Fri Aug 22 19:13:27 2025.
