 Gaussian 16, Revision C.01,
 Gaussian 16:  ES64L-G16RevC.01  3-Jul-2019

 -----------------------------------------
 # sp b3lyp/6-311g** Force nosymm scf=(qc)
 -----------------------------------------

 -------------------
 Title Card Required
 -------------------
 Symbolic Z-matrix:
 Charge =  0 Multiplicity = 2

                          Input orientation:
 ---------------------------------------------------------------------
 Center     Atomic      Atomic             Coordinates (Angstroms)
 Number     Number       Type             X           Y           Z
 ---------------------------------------------------------------------
      1          1           0        0.000000    0.000000    0.000000
      2          1           0       -1.750000    0.000000    0.000000
      3          9           0        1.200000    0.000000    0.000000
 ---------------------------------------------------------------------

 SCF Done:  E(UB3LYP) =  -100.929530662     a.u. after    6 cycles

 Alpha  occ. eigenvalues --  -24.63492  -1.11794  -0.48366  -0.37250  -0.36864
 Alpha  occ. eigenvalues --   -0.36864
 Alpha virt. eigenvalues --   -0.01366   0.22366   0.28998   0.93783   0.93783
 Alpha virt. eigenvalues --    1.01110   1.07675   1.18765   1.18765   1.36857
 Alpha virt. eigenvalues --    1.36857   1.51058   1.75600   2.18368   2.34785

  Beta  occ. eigenvalues --  -24.63197  -1.11047  -0.46680  -0.36595  -0.36595
  Beta virt. eigenvalues --   -0.16498   0.02016   0.27398   0.32513   0.93809
  Beta virt. eigenvalues --    0.93809   1.01916   1.15884   1.31273   1.31273
  Beta virt. eigenvalues --    1.40909   1.40909   1.55945   1.80885   2.28686

 Mulliken charges and spin densities:
               1          2
     1  H    0.321316  -0.021132
     2  H    0.040006   0.933909
     3  F   -0.361323   0.087223
 Sum of Mulliken charges =   0.00000   1.00000

 Dipole moment (field-independent basis, Debye):
    X=             -2.6749    Y=             -0.0000    Z=              0.0000  Tot=              2.6749
 Quadrupole moment (field-independent basis, Debye-Ang):
   XX=             -8.0926   YY=             -7.0474   ZZ=             -7.0474
   XY=             -0.0000   XZ=              0.0000   YZ=             -0.0000

  Exact polarizability:      17.512      -0.000       2.405       0.000       0.000       2.405
 Approx polarizability:      21.485       0.000       2.373      -0.000       0.000       2.373

 ******    1 imaginary frequencies (negative Signs) ******

                      1                      2                      3
                      A                      A                      A
 Frequencies --   -843.8747               638.7091              1141.9320
 Red. masses --      1.0078                 1.1085                 1.0231
 Frc consts  --      0.4229                 0.2664                 0.7860
 IR Inten    --    137.2293                83.6779                91.0499

                      4
                      A
 Frequencies --   1141.9320
 Red. masses --      1.0231
 Frc consts  --      0.7860
 IR Inten    --     91.0499

 - Thermochemistry -
 -------------------
 Temperature   298.150 Kelvin.  Pressure   1.00000 Atm.
 Atom     1 has atomic number  1 and mass   1.00783

 Molecular mass:    21.01405 amu.
 Principal axes and moments of inertia in atomic units:
                           1         2         3
     Eigenvalues --     0.00000  33.53022  33.53022
           X            1.00000  -0.00000   0.00000
           Y            0.00000   1.00000   0.00000
           Z            0.00000   0.00000   1.00000
 This molecule is a prolate symmetric top.
 Rotational symmetry number  1.
 Rotational temperature (Kelvin)      2.58316
 Rotational constant (GHZ):          53.824315
    1 imaginary frequencies ignored.
 Zero-point vibrational energy      17480.9 (Joules/Mol)
                                    4.17803 (Kcal/Mol)
 Vibrational temperatures:    918.96  1642.99  1642.99
          (Kelvin)

 Zero-point correction=                           0.006658 (Hartree/Particle)
 Thermal correction to Energy=                    0.009201
 Thermal correction to Enthalpy=                  0.010145
 Thermal correction to Gibbs Free Energy=        -0.012833
 Sum of electronic and zero-point Energies=           -100.922873
 Sum of electronic and thermal Energies=              -100.920330
 Sum of electronic and thermal Enthalpies=            -100.919386
 Sum of electronic and thermal Free Energies=         -100.942364

                     E (Thermal)             CV                S
                      KCal/Mol        Cal/Mol-Kelvin    Cal/Mol-Kelvin
 Total                    5.774              6.411             48.362
 Electronic               0.000              0.000              1.377
 Translational            0.889              2.981             35.068
 Rotational               0.592              1.987             11.424
 Vibrational              4.292              1.443              0.493

 Normal termination of Gaussian 16 at Fri Aug 22 16:09:59 2025.
