 Gaussian 16, Revision C.01,
 Gaussian 16:  ES64L-G16RevC.01  3-Jul-2019

 -----------------------------------------
 # sp b3lyp/6-311g** Force nosymm scf=(qc)
 -----------------------------------------

 -------------------
 Title Card Required
 -------------------
 Symbolic Z-matrix:
 Charge =  0 Multiplicity = 2

                          Input orientation:
 ---------------------------------------------------------------------
 Center     Atomic      Atomic             Coordinates (Angstroms)
 Number     Number       Type             X           Y           Z
 ---------------------------------------------------------------------
      1          1           0        0.000000    0.000000    0.000000
      2          1           0       -3.250000    0.000000    0.000000
      3          9           0        3.750000    0.000000    0.000000
 ---------------------------------------------------------------------

 SCF Done:  E(UB3LYP) =  -100.759106666     a.u. after   31 cycles

 Alpha  occ. eigenvalues --  -24.75714  -1.21653  -0.54838  -0.46043  -0.46043
 Alpha  occ. eigenvalues --   -0.32324
 Alpha virt. eigenvalues --   -0.07235   0.24641   0.36992   0.86956   0.91276
 Alpha virt. eigenvalues --    0.91276   1.01327   1.25191   1.25191   1.25538
 Alpha virt. eigenvalues --    1.44836   1.45048   1.45048   2.15433   2.40412

  Beta  occ. eigenvalues --  -24.72579  -1.12641  -0.42900  -0.42900  -0.32609
  Beta virt. eigenvalues --   -0.25651  -0.06909   0.24449   0.37499   0.92771
  Beta virt. eigenvalues --    0.92771   0.96238   1.05414   1.24872   1.24872
  Beta virt. eigenvalues --    1.25198   1.45348   1.45557   1.45557   2.15524

 Mulliken charges and spin densities:
               1          2
     1  H    0.005269  -0.989925
     2  H    0.000210   0.996001
     3  F   -0.005479   0.993924
 Sum of Mulliken charges =   0.00000   1.00000

 Dipole moment (field-independent basis, Debye):
    X=             -0.1092    Y=             -0.0000    Z=             -0.0000  Tot=              0.1092
 Quadrupole moment (field-independent basis, Debye-Ang):
   XX=             -7.0613   YY=             -7.6282   ZZ=             -7.6282
   XY=             -0.0000   XZ=             -0.0000   YZ=             -0.0000

  Exact polarizability:      17.687      -0.000       2.029      -0.000       0.000       2.029
 Approx polarizability:      13.116      -0.000       1.935      -0.000       0.000       1.935

 ******    2 imaginary frequencies (negative Signs) ******

                      1                      2                      3
                      A                      A                      A
 Frequencies --   -261.6639               -95.3230                89.8017
 Red. masses --      1.0109                 1.1048                 1.0163
 Frc consts  --      0.0408                 0.0059                 0.0048
 IR Inten    --      2.7621                 1.4691                 0.0260

                      4
                      A
 Frequencies --     89.8017
 Red. masses --      1.0163
 Frc consts  --      0.0048
 IR Inten    --      0.0260

 - Thermochemistry -
 -------------------
 Temperature   298.150 Kelvin.  Pressure   1.00000 Atm.
 Atom     1 has atomic number  1 and mass   1.00783

 Molecular mass:    21.01405 amu.
 Principal axes and moments of inertia in atomic units:
                           1         2         3
     Eigenvalues --     0.00000 207.01559 207.01559
           X            1.00000  -0.00000   0.00000
           Y            0.00000   1.00000   0.00000
           Z            0.00000   0.00000   1.00000
 This molecule is a prolate symmetric top.
 Rotational symmetry number  1.
 Rotational temperature (Kelvin)      0.41839
 Rotational constant (GHZ):           8.717900
    2 imaginary frequencies ignored.
 Zero-point vibrational energy       1074.3 (Joules/Mol)
                                    0.25676 (Kcal/Mol)
 Warning -- explicit consideration of   2 degrees of freedom as
           vibrations may cause significant error
 Vibrational temperatures:    129.20   129.20
          (Kelvin)

 Zero-point correction=                           0.000409 (Hartree/Particle)
 Thermal correction to Energy=                    0.004278
 Thermal correction to Enthalpy=                  0.005222
 Thermal correction to Gibbs Free Energy=        -0.022723
 Sum of electronic and zero-point Energies=           -100.758697
 Sum of electronic and thermal Energies=              -100.754828
 Sum of electronic and thermal Enthalpies=            -100.753884
 Sum of electronic and thermal Free Energies=         -100.781829

                     E (Thermal)             CV                S
                      KCal/Mol        Cal/Mol-Kelvin    Cal/Mol-Kelvin
 Total                    2.685              8.881             58.815
 Electronic               0.000              0.000              1.377
 Translational            0.889              2.981             35.068
 Rotational               0.592              1.987             15.041
 Vibrational              1.203              3.913              7.329
 Vibration     1          0.602              1.956              3.664
 Vibration     2          0.602              1.956              3.664

 Normal termination of Gaussian 16 at Sat Aug 23 00:27:18 2025.
