 Gaussian 16, Revision C.01,
 Gaussian 16:  ES64L-G16RevC.01  3-Jul-2019

 -----------------------------------------
 # sp b3lyp/6-311g** Force nosymm scf=(qc)
 -----------------------------------------

 -------------------
 Title Card Required
 -------------------
 Symbolic Z-matrix:
 Charge =  0 Multiplicity = 2

                          Input orientation:
 ---------------------------------------------------------------------
 Center     Atomic      Atomic             Coordinates (Angstroms)
 Number     Number       Type             X           Y           Z
 ---------------------------------------------------------------------
      1          1           0        0.000000    0.000000    0.000000
      2          1           0       -0.500000    0.000000    0.000000
      3          9           0        1.800000    0.000000    0.000000
 ---------------------------------------------------------------------

 SCF Done:  E(UB3LYP) =  -100.860188803     a.u. after    6 cycles

 Alpha  occ. eigenvalues --  -24.74721  -1.20972  -0.57044  -0.48602  -0.45357
 Alpha  occ. eigenvalues --   -0.45357
 Alpha virt. eigenvalues --    0.12109   0.19725   0.52916   0.89724   0.89724
 Alpha virt. eigenvalues --    0.95098   1.11680   1.11680   1.23392   1.67272
 Alpha virt. eigenvalues --    1.84251   1.99049   1.99049   2.49661   3.68592

  Beta  occ. eigenvalues --  -24.71671  -1.12336  -0.51327  -0.42330  -0.42330
  Beta virt. eigenvalues --   -0.25010   0.12602   0.20364   0.54054   0.91053
  Beta virt. eigenvalues --    0.91053   1.02446   1.12432   1.12432   1.27090
  Beta virt. eigenvalues --    1.68683   1.84908   1.99317   1.99317   2.50650

 Mulliken charges and spin densities:
               1          2
     1  H    0.022559  -0.021952
     2  H    0.016755   0.073465
     3  F   -0.039314   0.948487
 Sum of Mulliken charges =   0.00000   1.00000

 Dipole moment (field-independent basis, Debye):
    X=             -0.3622    Y=              0.0000    Z=              0.0000  Tot=              0.3622
 Quadrupole moment (field-independent basis, Debye-Ang):
   XX=             -5.9464   YY=             -6.5427   ZZ=             -6.5427
   XY=              0.0000   XZ=              0.0000   YZ=              0.0000

  Exact polarizability:      11.102      -0.000       2.038      -0.000       0.000       2.038
 Approx polarizability:      11.722       0.000       2.111       0.000      -0.000       2.111

 ******    2 imaginary frequencies (negative Signs) ******

                      1                      2                      3
                      A                      A                      A
 Frequencies --  -4862.7457             -4862.7457               367.6027
 Red. masses --      1.0093                 1.0093                 1.1085
 Frc consts  --     14.0617                14.0617                 0.0883
 IR Inten    --      0.5792                 0.5792                21.5816

                      4
                      A
 Frequencies --   9920.5236
 Red. masses --      1.0078
 Frc consts  --     58.4393
 IR Inten    --    169.7306

 - Thermochemistry -
 -------------------
 Temperature   298.150 Kelvin.  Pressure   1.00000 Atm.
 Atom     1 has atomic number  1 and mass   1.00783

 Molecular mass:    21.01405 amu.
 Principal axes and moments of inertia in atomic units:
                           1         2         3
     Eigenvalues --     0.00000  27.79802  27.79802
           X            1.00000  -0.00000   0.00000
           Y            0.00000   1.00000   0.00000
           Z            0.00000   0.00000   1.00000
 This molecule is a prolate symmetric top.
 Rotational symmetry number  1.
 Rotational temperature (Kelvin)      3.11583
 Rotational constant (GHZ):          64.923371
    2 imaginary frequencies ignored.
 Zero-point vibrational energy      61536.7 (Joules/Mol)
                                   14.70761 (Kcal/Mol)
 Warning -- explicit consideration of   1 degrees of freedom as
           vibrations may cause significant error
 Vibrational temperatures:    528.90 14273.42
          (Kelvin)

 Zero-point correction=                           0.023438 (Hartree/Particle)
 Thermal correction to Energy=                    0.026141
 Thermal correction to Enthalpy=                  0.027085
 Thermal correction to Gibbs Free Energy=         0.004000
 Sum of electronic and zero-point Energies=           -100.836751
 Sum of electronic and thermal Energies=              -100.834048
 Sum of electronic and thermal Enthalpies=            -100.833104
 Sum of electronic and thermal Free Energies=         -100.856189

                     E (Thermal)             CV                S
                      KCal/Mol        Cal/Mol-Kelvin    Cal/Mol-Kelvin
 Total                   16.404              6.507             48.586
 Electronic               0.000              0.000              1.377
 Translational            0.889              2.981             35.068
 Rotational               0.592              1.987             11.051
 Vibrational             14.922              1.539              1.090
 Vibration     1          0.740              1.539              1.090

 Normal termination of Gaussian 16 at Fri Aug 22 16:42:12 2025.
