 Gaussian 16, Revision C.01,
 Gaussian 16:  ES64L-G16RevC.01  3-Jul-2019

 -----------------------------------------
 # sp b3lyp/6-311g** Force nosymm scf=(qc)
 -----------------------------------------

 -------------------
 Title Card Required
 -------------------
 Symbolic Z-matrix:
 Charge =  0 Multiplicity = 2

                          Input orientation:
 ---------------------------------------------------------------------
 Center     Atomic      Atomic             Coordinates (Angstroms)
 Number     Number       Type             X           Y           Z
 ---------------------------------------------------------------------
      1          1           0        0.000000    0.000000    0.000000
      2          1           0       -0.600000    0.000000    0.000000
      3          9           0        1.950000    0.000000    0.000000
 ---------------------------------------------------------------------

 SCF Done:  E(UB3LYP) =  -100.914526159     a.u. after    6 cycles

 Alpha  occ. eigenvalues --  -24.75107  -1.21207  -0.55600  -0.47236  -0.45612
 Alpha  occ. eigenvalues --   -0.45612
 Alpha virt. eigenvalues --    0.10249   0.19903   0.49215   0.90351   0.90351
 Alpha virt. eigenvalues --    0.93294   1.09377   1.09377   1.17920   1.66014
 Alpha virt. eigenvalues --    1.81246   1.91844   1.91844   2.43742   3.68174

  Beta  occ. eigenvalues --  -24.72044  -1.12481  -0.48190  -0.42560  -0.42560
  Beta virt. eigenvalues --   -0.25537   0.10861   0.20495   0.49900   0.91723
  Beta virt. eigenvalues --    0.91723   1.00982   1.09960   1.09960   1.21656
  Beta virt. eigenvalues --    1.67143   1.81757   1.92080   1.92080   2.44441

 Mulliken charges and spin densities:
               1          2
     1  H    0.003990  -0.020680
     2  H    0.024029   0.061349
     3  F   -0.028019   0.959331
 Sum of Mulliken charges =   0.00000   1.00000

 Dipole moment (field-independent basis, Debye):
    X=             -0.3195    Y=             -0.0000    Z=              0.0000  Tot=              0.3195
 Quadrupole moment (field-independent basis, Debye-Ang):
   XX=             -5.8843   YY=             -6.7041   ZZ=             -6.7041
   XY=             -0.0000   XZ=              0.0000   YZ=             -0.0000

  Exact polarizability:      12.811       0.000       2.032       0.000       0.000       2.032
 Approx polarizability:      13.595      -0.000       2.105      -0.000       0.000       2.105

 ******    2 imaginary frequencies (negative Signs) ******

                      1                      2                      3
                      A                      A                      A
 Frequencies --  -2812.3629             -2812.3629               171.7519
 Red. masses --      1.0096                 1.0096                 1.1085
 Frc consts  --      4.7048                 4.7048                 0.0193
 IR Inten    --      0.4526                 0.4526                17.7799

                      4
                      A
 Frequencies --   6998.7411
 Red. masses --      1.0078
 Frc consts  --     29.0854
 IR Inten    --    156.3446

 - Thermochemistry -
 -------------------
 Temperature   298.150 Kelvin.  Pressure   1.00000 Atm.
 Atom     1 has atomic number  1 and mass   1.00783

 Molecular mass:    21.01405 amu.
 Principal axes and moments of inertia in atomic units:
                           1         2         3
     Eigenvalues --     0.00000  33.59249  33.59249
           X            1.00000  -0.00000   0.00000
           Y            0.00000   1.00000   0.00000
           Z            0.00000   0.00000   1.00000
 This molecule is a prolate symmetric top.
 Rotational symmetry number  1.
 Rotational temperature (Kelvin)      2.57837
 Rotational constant (GHZ):          53.724539
    2 imaginary frequencies ignored.
 Zero-point vibrational energy      42889.1 (Joules/Mol)
                                   10.25073 (Kcal/Mol)
 Warning -- explicit consideration of   1 degrees of freedom as
           vibrations may cause significant error
 Vibrational temperatures:    247.11 10069.63
          (Kelvin)

 Zero-point correction=                           0.016336 (Hartree/Particle)
 Thermal correction to Energy=                    0.019302
 Thermal correction to Enthalpy=                  0.020247
 Thermal correction to Gibbs Free Energy=        -0.003647
 Sum of electronic and zero-point Energies=           -100.898191
 Sum of electronic and thermal Energies=              -100.895224
 Sum of electronic and thermal Enthalpies=            -100.894280
 Sum of electronic and thermal Free Energies=         -100.918173

                     E (Thermal)             CV                S
                      KCal/Mol        Cal/Mol-Kelvin    Cal/Mol-Kelvin
 Total                   12.112              6.845             50.289
 Electronic               0.000              0.000              1.377
 Translational            0.889              2.981             35.068
 Rotational               0.592              1.987             11.427
 Vibrational             10.631              1.877              2.416
 Vibration     1          0.626              1.877              2.416

 Normal termination of Gaussian 16 at Fri Aug 22 16:52:04 2025.
