 Gaussian 16, Revision C.01,
 Gaussian 16:  ES64L-G16RevC.01  3-Jul-2019

 -----------------------------------------
 # sp b3lyp/6-311g** Force nosymm scf=(qc)
 -----------------------------------------

 -------------------
 Title Card Required
 -------------------
 Symbolic Z-matrix:
 Charge =  0 Multiplicity = 2

                          Input orientation:
 ---------------------------------------------------------------------
 Center     Atomic      Atomic             Coordinates (Angstroms)
 Number     Number       Type             X           Y           Z
 ---------------------------------------------------------------------
      1          1           0        0.000000    0.000000    0.000000
      2          1           0       -1.350000    0.000000    0.000000
      3          9           0        2.350000    0.000000    0.000000
 ---------------------------------------------------------------------

 SCF Done:  E(UB3LYP) =  -100.848340000     a.u. after   16 cycles

 Alpha  occ. eigenvalues --  -24.73576  -1.19695  -0.52850  -0.44284  -0.44284
 Alpha  occ. eigenvalues --   -0.36979
 Alpha virt. eigenvalues --   -0.08159   0.22988   0.32556   0.88263   0.92330
 Alpha virt. eigenvalues --    0.92330   1.05553   1.14469   1.14469   1.20185
 Alpha virt. eigenvalues --    1.45190   1.45190   1.92338   2.24977   2.50927

  Beta  occ. eigenvalues --  -24.70631  -1.11288  -0.41344  -0.41344  -0.36522
  Beta virt. eigenvalues --   -0.25189  -0.07194   0.23721   0.32962   0.93720
  Beta virt. eigenvalues --    0.93720   0.95270   1.08293   1.15165   1.15165
  Beta virt. eigenvalues --    1.23332   1.45745   1.45745   1.93121   2.25895

 Mulliken charges and spin densities:
               1          2
     1  H    0.016767  -0.140568
     2  H    0.039508   0.210940
     3  F   -0.056275   0.929628
 Sum of Mulliken charges =  -0.00000   1.00000

 Dipole moment (field-independent basis, Debye):
    X=             -0.9163    Y=             -0.0000    Z=             -0.0000  Tot=              0.9163
 Quadrupole moment (field-independent basis, Debye-Ang):
   XX=             -6.6496   YY=             -7.5661   ZZ=             -7.5661
   XY=             -0.0000   XZ=             -0.0000   YZ=             -0.0000

  Exact polarizability:      49.908      -0.000       2.099      -0.000       0.000       2.099
 Approx polarizability:      70.186       0.000       2.088       0.000       0.000       2.088

 ******    2 imaginary frequencies (negative Signs) ******

                      1                      2                      3
                      A                      A                      A
 Frequencies --  -1586.9992              -278.5429              1296.9480
 Red. masses --      1.0100                 1.1059                 1.0126
 Frc consts  --      1.4987                 0.0506                 1.0036
 IR Inten    --    775.2396                15.1877                 0.0009

                      4
                      A
 Frequencies --   1296.9480
 Red. masses --      1.0126
 Frc consts  --      1.0036
 IR Inten    --      0.0009

 - Thermochemistry -
 -------------------
 Temperature   298.150 Kelvin.  Pressure   1.00000 Atm.
 Atom     1 has atomic number  1 and mass   1.00783

 Molecular mass:    21.01405 amu.
 Principal axes and moments of inertia in atomic units:
                           1         2         3
     Eigenvalues --     0.00000  62.82811  62.82811
           X            1.00000  -0.00000   0.00000
           Y            0.00000   1.00000   0.00000
           Z            0.00000   0.00000   1.00000
 This molecule is a prolate symmetric top.
 Rotational symmetry number  1.
 Rotational temperature (Kelvin)      1.37859
 Rotational constant (GHZ):          28.725061
    2 imaginary frequencies ignored.
 Zero-point vibrational energy      15514.9 (Joules/Mol)
                                    3.70816 (Kcal/Mol)
 Vibrational temperatures:   1866.02  1866.02
          (Kelvin)

 Zero-point correction=                           0.005909 (Hartree/Particle)
 Thermal correction to Energy=                    0.008292
 Thermal correction to Enthalpy=                  0.009237
 Thermal correction to Gibbs Free Energy=        -0.014127
 Sum of electronic and zero-point Energies=           -100.842431
 Sum of electronic and thermal Energies=              -100.840048
 Sum of electronic and thermal Enthalpies=            -100.839103
 Sum of electronic and thermal Free Energies=         -100.862467

                     E (Thermal)             CV                S
                      KCal/Mol        Cal/Mol-Kelvin    Cal/Mol-Kelvin
 Total                    5.204              5.267             49.172
 Electronic               0.000              0.000              1.377
 Translational            0.889              2.981             35.068
 Rotational               0.592              1.987             12.671
 Vibrational              3.722              0.299              0.055

 Normal termination of Gaussian 16 at Fri Aug 22 17:25:40 2025.
