 Gaussian 16, Revision C.01,
 Gaussian 16:  ES64L-G16RevC.01  3-Jul-2019

 -----------------------------------------
 # sp b3lyp/6-311g** Force nosymm scf=(qc)
 -----------------------------------------

 -------------------
 Title Card Required
 -------------------
 Symbolic Z-matrix:
 Charge =  0 Multiplicity = 2

                          Input orientation:
 ---------------------------------------------------------------------
 Center     Atomic      Atomic             Coordinates (Angstroms)
 Number     Number       Type             X           Y           Z
 ---------------------------------------------------------------------
      1          1           0        0.000000    0.000000    0.000000
      2          1           0       -2.550000    0.000000    0.000000
      3          9           0        0.700000    0.000000    0.000000
 ---------------------------------------------------------------------

 SCF Done:  E(UB3LYP) =  -100.874947556     a.u. after    6 cycles

 Alpha  occ. eigenvalues --  -24.63153  -1.28181  -0.58573  -0.41715  -0.41715
 Alpha  occ. eigenvalues --   -0.34399
 Alpha virt. eigenvalues --    0.07739   0.25533   0.52448   0.93529   0.93529
 Alpha virt. eigenvalues --    0.95728   1.18432   1.23149   1.23149   1.42306
 Alpha virt. eigenvalues --    1.44107   1.44107   1.97725   2.14495   2.86655

  Beta  occ. eigenvalues --  -24.63145  -1.28159  -0.58546  -0.41710  -0.41710
  Beta virt. eigenvalues --   -0.08156   0.09113   0.38138   0.52374   0.93526
  Beta virt. eigenvalues --    0.93526   0.95836   1.29309   1.44094   1.44094
  Beta virt. eigenvalues --    1.46237   1.46237   1.55726   1.97635   2.43124

 Mulliken charges and spin densities:
               1          2
     1  H    0.257922   0.003196
     2  H    0.004270   0.993842
     3  F   -0.262192   0.002962
 Sum of Mulliken charges =   0.00000   1.00000

 Dipole moment (field-independent basis, Debye):
    X=             -1.6357    Y=              0.0000    Z=             -0.0000  Tot=              1.6357
 Quadrupole moment (field-independent basis, Debye-Ang):
   XX=             -7.1260   YY=             -6.6572   ZZ=             -6.6572
   XY=              0.0000   XZ=             -0.0000   YZ=              0.0000

  Exact polarizability:       5.376       0.000       2.472      -0.000      -0.000       2.472
 Approx polarizability:       5.524       0.000       2.457       0.000      -0.000       2.457

 ******    2 imaginary frequencies (negative Signs) ******

                      1                      2                      3
                      A                      A                      A
 Frequencies --  -3531.1043             -3531.1043                92.4187
 Red. masses --      1.0376                 1.0376                 1.0532
 Frc consts  --      7.6223                 7.6223                 0.0053
 IR Inten    --    200.9459               200.9459                 0.2242

                      4
                      A
 Frequencies --   9072.4198
 Red. masses --      1.0583
 Frc consts  --     51.3230
 IR Inten    --    120.1885

 - Thermochemistry -
 -------------------
 Temperature   298.150 Kelvin.  Pressure   1.00000 Atm.
 Atom     1 has atomic number  1 and mass   1.00783

 Molecular mass:    21.01405 amu.
 Principal axes and moments of inertia in atomic units:
                           1         2         3
     Eigenvalues --     0.00000  37.08494  37.08494
           X            1.00000  -0.00000   0.00000
           Y            0.00000   1.00000   0.00000
           Z            0.00000   0.00000   1.00000
 This molecule is a prolate symmetric top.
 Rotational symmetry number  1.
 Rotational temperature (Kelvin)      2.33555
 Rotational constant (GHZ):          48.665067
    2 imaginary frequencies ignored.
 Zero-point vibrational energy      54817.9 (Joules/Mol)
                                   13.10179 (Kcal/Mol)
 Warning -- explicit consideration of   1 degrees of freedom as
           vibrations may cause significant error
 Vibrational temperatures:    132.97 13053.19
          (Kelvin)

 Zero-point correction=                           0.020879 (Hartree/Particle)
 Thermal correction to Energy=                    0.023989
 Thermal correction to Enthalpy=                  0.024933
 Thermal correction to Gibbs Free Energy=         0.000379
 Sum of electronic and zero-point Energies=           -100.854069
 Sum of electronic and thermal Energies=              -100.850959
 Sum of electronic and thermal Enthalpies=            -100.850015
 Sum of electronic and thermal Free Energies=         -100.874568

                     E (Thermal)             CV                S
                      KCal/Mol        Cal/Mol-Kelvin    Cal/Mol-Kelvin
 Total                   15.053              6.923             51.677
 Electronic               0.000              0.000              1.377
 Translational            0.889              2.981             35.068
 Rotational               0.592              1.987             11.624
 Vibrational             13.572              1.955              3.608
 Vibration     1          0.602              1.955              3.608

 Normal termination of Gaussian 16 at Fri Aug 22 15:46:47 2025.
