 Gaussian 16, Revision C.01,
 Gaussian 16:  ES64L-G16RevC.01  3-Jul-2019

 -----------------------------------------
 # sp b3lyp/6-311g** Force nosymm scf=(qc)
 -----------------------------------------

 -------------------
 Title Card Required
 -------------------
 Symbolic Z-matrix:
 Charge =  0 Multiplicity = 2

                          Input orientation:
 ---------------------------------------------------------------------
 Center     Atomic      Atomic             Coordinates (Angstroms)
 Number     Number       Type             X           Y           Z
 ---------------------------------------------------------------------
      1          1           0        0.000000    0.000000    0.000000
      2          1           0       -1.100000    0.000000    0.000000
      3          9           0        1.000000    0.000000    0.000000
 ---------------------------------------------------------------------

 SCF Done:  E(UB3LYP) =  -100.962828690     a.u. after    6 cycles

 Alpha  occ. eigenvalues --  -24.64398  -1.17036  -0.56603  -0.39173  -0.39173
 Alpha  occ. eigenvalues --   -0.36750
 Alpha virt. eigenvalues --    0.11738   0.19035   0.41163   0.91240   0.91240
 Alpha virt. eigenvalues --    0.97876   1.08695   1.08695   1.37744   1.56403
 Alpha virt. eigenvalues --    1.56403   1.60504   2.18557   2.29614   2.81862

  Beta  occ. eigenvalues --  -24.63631  -1.15105  -0.51873  -0.38489  -0.38489
  Beta virt. eigenvalues --   -0.18308   0.13776   0.22396   0.46332   0.92481
  Beta virt. eigenvalues --    0.92481   0.99471   1.15211   1.15211   1.41876
  Beta virt. eigenvalues --    1.61367   1.61367   1.66929   2.21989   2.40796

 Mulliken charges and spin densities:
               1          2
     1  H    0.281563  -0.019171
     2  H    0.026204   0.819795
     3  F   -0.307767   0.199377
 Sum of Mulliken charges =   0.00000   1.00000

 Dipole moment (field-independent basis, Debye):
    X=             -2.0808    Y=              0.0000    Z=             -0.0000  Tot=              2.0808
 Quadrupole moment (field-independent basis, Debye-Ang):
   XX=             -7.6531   YY=             -6.7250   ZZ=             -6.7250
   XY=              0.0000   XZ=             -0.0000   YZ=              0.0000

  Exact polarizability:      14.738       0.000       2.570       0.000      -0.000       2.570
 Approx polarizability:      17.075       0.000       2.588       0.000      -0.000       2.588

                      1                      2                      3
                      A                      A                      A
 Frequencies --    398.3016               398.3016               932.5004
 Red. masses --      1.0191                 1.0191                 1.0307
 Frc consts  --      0.0953                 0.0953                 0.5280
 IR Inten    --     65.6759                65.6759                35.9900

                      4
                      A
 Frequencies --   2350.6683
 Red. masses --      1.0821
 Frc consts  --      3.5230
 IR Inten    --     40.8909

 - Thermochemistry -
 -------------------
 Temperature   298.150 Kelvin.  Pressure   1.00000 Atm.
 Atom     1 has atomic number  1 and mass   1.00783

 Molecular mass:    21.01405 amu.
 Principal axes and moments of inertia in atomic units:
                           1         2         3
     Eigenvalues --     0.00000  17.81188  17.81188
           X            1.00000  -0.00000   0.00000
           Y            0.00000   1.00000   0.00000
           Z            0.00000   0.00000   1.00000
 This molecule is a prolate symmetric top.
 Rotational symmetry number  1.
 Rotational temperature (Kelvin)      4.86270
 Rotational constant (GHZ):         101.322310
 Zero-point vibrational energy      24402.5 (Joules/Mol)
                                    5.83233 (Kcal/Mol)
 Warning -- explicit consideration of   2 degrees of freedom as
           vibrations may cause significant error
 Vibrational temperatures:    573.07   573.07  1341.66  3382.09
          (Kelvin)

 Zero-point correction=                           0.009294 (Hartree/Particle)
 Thermal correction to Energy=                    0.012325
 Thermal correction to Enthalpy=                  0.013269
 Thermal correction to Gibbs Free Energy=        -0.009857
 Sum of electronic and zero-point Energies=           -100.953534
 Sum of electronic and thermal Energies=              -100.950504
 Sum of electronic and thermal Enthalpies=            -100.949560
 Sum of electronic and thermal Free Energies=         -100.972686

                     E (Thermal)             CV                S
                      KCal/Mol        Cal/Mol-Kelvin    Cal/Mol-Kelvin
 Total                    7.734              8.376             48.673
 Electronic               0.000              0.000              1.377
 Translational            0.889              2.981             35.068
 Rotational               0.592              1.987             10.167
 Vibrational              6.253              3.408              2.061
 Vibration     1          0.765              1.474              0.969
 Vibration     2          0.765              1.474              0.969

 Normal termination of Gaussian 16 at Fri Aug 22 15:59:55 2025.
