 Gaussian 16, Revision C.01,
 Gaussian 16:  ES64L-G16RevC.01  3-Jul-2019

 -----------------------------------------
 # sp b3lyp/6-311g** Force nosymm scf=(qc)
 -----------------------------------------

 -------------------
 Title Card Required
 -------------------
 Symbolic Z-matrix:
 Charge =  0 Multiplicity = 2

                          Input orientation:
 ---------------------------------------------------------------------
 Center     Atomic      Atomic             Coordinates (Angstroms)
 Number     Number       Type             X           Y           Z
 ---------------------------------------------------------------------
      1          1           0        0.000000    0.000000    0.000000
      2          1           0       -2.500000    0.000000    0.000000
      3          9           0        3.650000    0.000000    0.000000
 ---------------------------------------------------------------------

 SCF Done:  E(UB3LYP) =  -100.762747765     a.u. after   30 cycles

 Alpha  occ. eigenvalues --  -24.75656  -1.21599  -0.54779  -0.45995  -0.45995
 Alpha  occ. eigenvalues --   -0.32610
 Alpha virt. eigenvalues --   -0.09381   0.25732   0.34510   0.87172   0.91309
 Alpha virt. eigenvalues --    0.91309   1.01453   1.25042   1.25042   1.26588
 Alpha virt. eigenvalues --    1.41529   1.41529   1.43140   2.15809   2.36797

  Beta  occ. eigenvalues --  -24.72526  -1.12602  -0.42857  -0.42857  -0.32837
  Beta virt. eigenvalues --   -0.25633  -0.09022   0.25539   0.35040   0.92803
  Beta virt. eigenvalues --    0.92803   0.96429   1.05532   1.24777   1.24777
  Beta virt. eigenvalues --    1.26279   1.42071   1.42071   1.43676   2.16145

 Mulliken charges and spin densities:
               1          2
     1  H    0.005110  -0.962101
     2  H    0.001697   0.969780
     3  F   -0.006807   0.992321
 Sum of Mulliken charges =   0.00000   1.00000

 Dipole moment (field-independent basis, Debye):
    X=             -0.1478    Y=              0.0000    Z=              0.0000  Tot=              0.1478
 Quadrupole moment (field-independent basis, Debye-Ang):
   XX=             -6.9303   YY=             -7.6663   ZZ=             -7.6663
   XY=             -0.0000   XZ=             -0.0000   YZ=              0.0000

  Exact polarizability:      28.381       0.000       2.015       0.000       0.000       2.015
 Approx polarizability:      21.051      -0.000       1.930      -0.000      -0.000       1.930

 ******    2 imaginary frequencies (negative Signs) ******

                      1                      2                      3
                      A                      A                      A
 Frequencies --   -665.7131              -116.1006               245.7873
 Red. masses --      1.0079                 1.1084                 1.0140
 Frc consts  --      0.2632                 0.0088                 0.0361
 IR Inten    --      3.2354                 3.4320                 0.0196

                      4
                      A
 Frequencies --    245.7873
 Red. masses --      1.0140
 Frc consts  --      0.0361
 IR Inten    --      0.0196

 - Thermochemistry -
 -------------------
 Temperature   298.150 Kelvin.  Pressure   1.00000 Atm.
 Atom     1 has atomic number  1 and mass   1.00783

 Molecular mass:    21.01405 amu.
 Principal axes and moments of inertia in atomic units:
                           1         2         3
     Eigenvalues --     0.00000 167.49412 167.49412
           X            1.00000  -0.00000   0.00000
           Y            0.00000   1.00000   0.00000
           Z            0.00000   0.00000   1.00000
 This molecule is a prolate symmetric top.
 Rotational symmetry number  1.
 Rotational temperature (Kelvin)      0.51712
 Rotational constant (GHZ):          10.774952
    2 imaginary frequencies ignored.
 Zero-point vibrational energy       2940.3 (Joules/Mol)
                                    0.70274 (Kcal/Mol)
 Warning -- explicit consideration of   2 degrees of freedom as
           vibrations may cause significant error
 Vibrational temperatures:    353.63   353.63
          (Kelvin)

 Zero-point correction=                           0.001120 (Hartree/Particle)
 Thermal correction to Energy=                    0.004465
 Thermal correction to Enthalpy=                  0.005409
 Thermal correction to Gibbs Free Energy=        -0.020527
 Sum of electronic and zero-point Energies=           -100.761628
 Sum of electronic and thermal Energies=              -100.758283
 Sum of electronic and thermal Enthalpies=            -100.757338
 Sum of electronic and thermal Free Energies=         -100.783274

                     E (Thermal)             CV                S
                      KCal/Mol        Cal/Mol-Kelvin    Cal/Mol-Kelvin
 Total                    2.802              8.508             54.587
 Electronic               0.000              0.000              1.377
 Translational            0.889              2.981             35.068
 Rotational               0.592              1.987             14.620
 Vibrational              1.321              3.540              3.521
 Vibration     1          0.660              1.770              1.761
 Vibration     2          0.660              1.770              1.761

 Normal termination of Gaussian 16 at Fri Aug 22 23:36:33 2025.
