 Gaussian 16, Revision C.01,
 Gaussian 16:  ES64L-G16RevC.01  3-Jul-2019

 -----------------------------------------
 # sp b3lyp/6-311g** Force nosymm scf=(qc)
 -----------------------------------------

 -------------------
 Title Card Required
 -------------------
 Symbolic Z-matrix:
 Charge =  0 Multiplicity = 2

                          Input orientation:
 ---------------------------------------------------------------------
 Center     Atomic      Atomic             Coordinates (Angstroms)
 Number     Number       Type             X           Y           Z
 ---------------------------------------------------------------------
      1          1           0        0.000000    0.000000    0.000000
      2          1           0       -0.750000    0.000000    0.000000
      3          9           0        0.900000    0.000000    0.000000
 ---------------------------------------------------------------------

 SCF Done:  E(UB3LYP) =  -100.914238914     a.u. after    6 cycles

 Alpha  occ. eigenvalues --  -24.66428  -1.23030  -0.64396  -0.42051  -0.42051
 Alpha  occ. eigenvalues --   -0.34007
 Alpha virt. eigenvalues --    0.15066   0.18075   0.62581   0.87282   0.87282
 Alpha virt. eigenvalues --    0.94677   1.09617   1.09617   1.44928   1.76168
 Alpha virt. eigenvalues --    1.76572   1.76572   2.06085   2.41719   3.78872

  Beta  occ. eigenvalues --  -24.65204  -1.19871  -0.57988  -0.40965  -0.40965
  Beta virt. eigenvalues --   -0.16089   0.16994   0.20233   0.68013   0.89341
  Beta virt. eigenvalues --    0.89341   0.97136   1.14320   1.14320   1.46824
  Beta virt. eigenvalues --    1.81368   1.81368   1.84812   2.08017   2.49523

 Mulliken charges and spin densities:
               1          2
     1  H    0.275051  -0.017950
     2  H   -0.042756   0.734698
     3  F   -0.232295   0.283252
 Sum of Mulliken charges =   0.00000   1.00000

 Dipole moment (field-independent basis, Debye):
    X=             -1.4019    Y=             -0.0000    Z=              0.0000  Tot=              1.4019
 Quadrupole moment (field-independent basis, Debye-Ang):
   XX=             -7.5051   YY=             -6.5111   ZZ=             -6.5111
   XY=             -0.0000   XZ=              0.0000   YZ=             -0.0000

  Exact polarizability:      11.766       0.000       2.549      -0.000       0.000       2.549
 Approx polarizability:      13.277      -0.000       2.612      -0.000       0.000       2.612

 ******    2 imaginary frequencies (negative Signs) ******

                      1                      2                      3
                      A                      A                      A
 Frequencies --  -2344.3320             -2344.3320              2829.9210
 Red. masses --      1.0159                 1.0159                 1.0946
 Frc consts  --      3.2895                 3.2895                 5.1646
 IR Inten    --     55.5745                55.5745               121.4944

                      4
                      A
 Frequencies --   4706.8310
 Red. masses --      1.0196
 Frc consts  --     13.3094
 IR Inten    --      4.8145

 - Thermochemistry -
 -------------------
 Temperature   298.150 Kelvin.  Pressure   1.00000 Atm.
 Atom     1 has atomic number  1 and mass   1.00783

 Molecular mass:    21.01405 amu.
 Principal axes and moments of inertia in atomic units:
                           1         2         3
     Eigenvalues --     0.00000  11.59112  11.59112
           X            1.00000  -0.00000   0.00000
           Y            0.00000   1.00000   0.00000
           Z            0.00000   0.00000   1.00000
 This molecule is a prolate symmetric top.
 Rotational symmetry number  1.
 Rotational temperature (Kelvin)      7.47244
 Rotational constant (GHZ):         155.700313
    2 imaginary frequencies ignored.
 Zero-point vibrational energy      45079.8 (Joules/Mol)
                                   10.77433 (Kcal/Mol)
 Vibrational temperatures:   4071.63  6772.08
          (Kelvin)

 Zero-point correction=                           0.017170 (Hartree/Particle)
 Thermal correction to Energy=                    0.019530
 Thermal correction to Enthalpy=                  0.020475
 Thermal correction to Gibbs Free Energy=        -0.001267
 Sum of electronic and zero-point Energies=           -100.897069
 Sum of electronic and thermal Energies=              -100.894708
 Sum of electronic and thermal Enthalpies=            -100.893764
 Sum of electronic and thermal Free Energies=         -100.915505

                     E (Thermal)             CV                S
                      KCal/Mol        Cal/Mol-Kelvin    Cal/Mol-Kelvin
 Total                   12.256              4.968             45.758
 Electronic               0.000              0.000              1.377
 Translational            0.889              2.981             35.068
 Rotational               0.592              1.987              9.313
 Vibrational             10.774              0.000              0.000

 Normal termination of Gaussian 16 at Fri Aug 22 15:54:56 2025.
