 Gaussian 16, Revision C.01,
 Gaussian 16:  ES64L-G16RevC.01  3-Jul-2019

 -----------------------------------------
 # sp b3lyp/6-311g** Force nosymm scf=(qc)
 -----------------------------------------

 -------------------
 Title Card Required
 -------------------
 Symbolic Z-matrix:
 Charge =  0 Multiplicity = 2

                          Input orientation:
 ---------------------------------------------------------------------
 Center     Atomic      Atomic             Coordinates (Angstroms)
 Number     Number       Type             X           Y           Z
 ---------------------------------------------------------------------
      1          1           0        0.000000    0.000000    0.000000
      2          1           0       -2.700000    0.000000    0.000000
      3          9           0        3.100000    0.000000    0.000000
 ---------------------------------------------------------------------

 SCF Done:  E(UB3LYP) =  -100.762621559     a.u. after   23 cycles

 Alpha  occ. eigenvalues --  -24.74470  -1.20500  -0.53589  -0.44996  -0.44996
 Alpha  occ. eigenvalues --   -0.32812
 Alpha virt. eigenvalues --   -0.09600   0.25206   0.34293   0.89120   0.92044
 Alpha virt. eigenvalues --    0.92044   1.03377   1.24776   1.24776   1.26283
 Alpha virt. eigenvalues --    1.41443   1.41443   1.42239   2.15747   2.37906

  Beta  occ. eigenvalues --  -24.71418  -1.11745  -0.41940  -0.41940  -0.33562
  Beta virt. eigenvalues --   -0.25001  -0.08494   0.25177   0.35638   0.93513
  Beta virt. eigenvalues --    0.93513   0.97984   1.07277   1.23884   1.23884
  Beta virt. eigenvalues --    1.25275   1.43222   1.43222   1.43875   2.16514

 Mulliken charges and spin densities:
               1          2
     1  H    0.026413  -0.950790
     2  H    0.002936   0.983310
     3  F   -0.029349   0.967481
 Sum of Mulliken charges =  -0.00000   1.00000

 Dipole moment (field-independent basis, Debye):
    X=             -0.5050    Y=             -0.0000    Z=              0.0000  Tot=              0.5050
 Quadrupole moment (field-independent basis, Debye-Ang):
   XX=             -7.8765   YY=             -7.6411   ZZ=             -7.6411
   XY=             -0.0000   XZ=              0.0000   YZ=              0.0000

  Exact polarizability:      38.339      -0.000       2.019       0.000       0.000       2.019
 Approx polarizability:      34.142      -0.000       1.924       0.000      -0.000       1.924

 ******    2 imaginary frequencies (negative Signs) ******

                      1                      2                      3
                      A                      A                      A
 Frequencies --   -547.4175              -203.7984               202.3356
 Red. masses --      1.0117                 1.1039                 1.0164
 Frc consts  --      0.1786                 0.0270                 0.0245
 IR Inten    --     21.4084                12.6617                 0.5757

                      4
                      A
 Frequencies --    202.3356
 Red. masses --      1.0164
 Frc consts  --      0.0245
 IR Inten    --      0.5757

 - Thermochemistry -
 -------------------
 Temperature   298.150 Kelvin.  Pressure   1.00000 Atm.
 Atom     1 has atomic number  1 and mass   1.00783

 Molecular mass:    21.01405 amu.
 Principal axes and moments of inertia in atomic units:
                           1         2         3
     Eigenvalues --     0.00000 141.98493 141.98493
           X            1.00000  -0.00000   0.00000
           Y            0.00000   1.00000   0.00000
           Z            0.00000   0.00000   1.00000
 This molecule is a prolate symmetric top.
 Rotational symmetry number  1.
 Rotational temperature (Kelvin)      0.61002
 Rotational constant (GHZ):          12.710794
    2 imaginary frequencies ignored.
 Zero-point vibrational energy       2420.5 (Joules/Mol)
                                    0.57851 (Kcal/Mol)
 Warning -- explicit consideration of   2 degrees of freedom as
           vibrations may cause significant error
 Vibrational temperatures:    291.12   291.12
          (Kelvin)

 Zero-point correction=                           0.000922 (Hartree/Particle)
 Thermal correction to Energy=                    0.004397
 Thermal correction to Enthalpy=                  0.005341
 Thermal correction to Gibbs Free Energy=        -0.020773
 Sum of electronic and zero-point Energies=           -100.761700
 Sum of electronic and thermal Energies=              -100.758225
 Sum of electronic and thermal Enthalpies=            -100.757281
 Sum of electronic and thermal Free Energies=         -100.783394

                     E (Thermal)             CV                S
                      KCal/Mol        Cal/Mol-Kelvin    Cal/Mol-Kelvin
 Total                    2.759              8.641             54.961
 Electronic               0.000              0.000              1.377
 Translational            0.889              2.981             35.068
 Rotational               0.592              1.987             14.292
 Vibrational              1.278              3.673              4.224
 Vibration     1          0.639              1.837              2.112
 Vibration     2          0.639              1.837              2.112

 Normal termination of Gaussian 16 at Fri Aug 22 19:55:25 2025.
