 Gaussian 16, Revision C.01,
 Gaussian 16:  ES64L-G16RevC.01  3-Jul-2019

 -----------------------------------------
 # sp b3lyp/6-311g** Force nosymm scf=(qc)
 -----------------------------------------

 -------------------
 Title Card Required
 -------------------
 Symbolic Z-matrix:
 Charge =  0 Multiplicity = 2

                          Input orientation:
 ---------------------------------------------------------------------
 Center     Atomic      Atomic             Coordinates (Angstroms)
 Number     Number       Type             X           Y           Z
 ---------------------------------------------------------------------
      1          1           0        0.000000    0.000000    0.000000
      2          1           0       -3.700000    0.000000    0.000000
      3          9           0        3.000000    0.000000    0.000000
 ---------------------------------------------------------------------

 SCF Done:  E(UB3LYP) =  -100.760936458     a.u. after   22 cycles

 Alpha  occ. eigenvalues --  -24.74078  -1.20139  -0.53197  -0.44669  -0.44669
 Alpha  occ. eigenvalues --   -0.32500
 Alpha virt. eigenvalues --   -0.07954   0.23908   0.36205   0.89359   0.92280
 Alpha virt. eigenvalues --    0.92280   1.03884   1.25001   1.25001   1.25073
 Alpha virt. eigenvalues --    1.44208   1.44208   1.44574   2.14575   2.40390

  Beta  occ. eigenvalues --  -24.71051  -1.11465  -0.41639  -0.41639  -0.33728
  Beta virt. eigenvalues --   -0.24770  -0.06264   0.23827   0.38058   0.93741
  Beta virt. eigenvalues --    0.93741   0.98039   1.07598   1.23600   1.23600
  Beta virt. eigenvalues --    1.24014   1.46199   1.46413   1.46413   2.14675

 Mulliken charges and spin densities:
               1          2
     1  H    0.036997  -0.957879
     2  H    0.000267   0.998739
     3  F   -0.037264   0.959140
 Sum of Mulliken charges =  -0.00000   1.00000

 Dipole moment (field-independent basis, Debye):
    X=             -0.5788    Y=             -0.0000    Z=             -0.0000  Tot=              0.5788
 Quadrupole moment (field-independent basis, Debye-Ang):
   XX=             -8.3280   YY=             -7.6069   ZZ=             -7.6069
   XY=              0.0000   XZ=              0.0000   YZ=             -0.0000

  Exact polarizability:      31.295       0.000       2.027       0.000      -0.000       2.027
 Approx polarizability:      32.054       0.000       1.927       0.000       0.000       1.927

 ******    2 imaginary frequencies (negative Signs) ******

                      1                      2                      3
                      A                      A                      A
 Frequencies --   -370.5072               -95.8936               129.5220
 Red. masses --      1.0507                 1.0609                 1.0207
 Frc consts  --      0.0850                 0.0057                 0.0101
 IR Inten    --     39.5067                 0.2682                 1.2990

                      4
                      A
 Frequencies --    129.5220
 Red. masses --      1.0207
 Frc consts  --      0.0101
 IR Inten    --      1.2990

 - Thermochemistry -
 -------------------
 Temperature   298.150 Kelvin.  Pressure   1.00000 Atm.
 Atom     1 has atomic number  1 and mass   1.00783

 Molecular mass:    21.01405 amu.
 Principal axes and moments of inertia in atomic units:
                           1         2         3
     Eigenvalues --     0.00000 177.70999 177.70999
           X            1.00000  -0.00000   0.00000
           Y            0.00000   1.00000   0.00000
           Z            0.00000   0.00000   1.00000
 This molecule is a prolate symmetric top.
 Rotational symmetry number  1.
 Rotational temperature (Kelvin)      0.48739
 Rotational constant (GHZ):          10.155542
    2 imaginary frequencies ignored.
 Zero-point vibrational energy       1549.4 (Joules/Mol)
                                    0.37032 (Kcal/Mol)
 Warning -- explicit consideration of   2 degrees of freedom as
           vibrations may cause significant error
 Vibrational temperatures:    186.35   186.35
          (Kelvin)

 Zero-point correction=                           0.000590 (Hartree/Particle)
 Thermal correction to Energy=                    0.004310
 Thermal correction to Enthalpy=                  0.005254
 Thermal correction to Gibbs Free Energy=        -0.021871
 Sum of electronic and zero-point Energies=           -100.760346
 Sum of electronic and thermal Energies=              -100.756627
 Sum of electronic and thermal Enthalpies=            -100.755682
 Sum of electronic and thermal Free Energies=         -100.782807

                     E (Thermal)             CV                S
                      KCal/Mol        Cal/Mol-Kelvin    Cal/Mol-Kelvin
 Total                    2.705              8.816             57.089
 Electronic               0.000              0.000              1.377
 Translational            0.889              2.981             35.068
 Rotational               0.592              1.987             14.738
 Vibrational              1.223              3.848              5.906
 Vibration     1          0.612              1.924              2.953
 Vibration     2          0.612              1.924              2.953

 Normal termination of Gaussian 16 at Fri Aug 22 19:33:21 2025.
