 Gaussian 16, Revision C.01,
 Gaussian 16:  ES64L-G16RevC.01  3-Jul-2019

 -----------------------------------------
 # sp b3lyp/6-311g** Force nosymm scf=(qc)
 -----------------------------------------

 -------------------
 Title Card Required
 -------------------
 Symbolic Z-matrix:
 Charge =  0 Multiplicity = 2

                          Input orientation:
 ---------------------------------------------------------------------
 Center     Atomic      Atomic             Coordinates (Angstroms)
 Number     Number       Type             X           Y           Z
 ---------------------------------------------------------------------
      1          1           0        0.000000    0.000000    0.000000
      2          1           0       -2.250000    0.000000    0.000000
      3          9           0        1.750000    0.000000    0.000000
 ---------------------------------------------------------------------

 SCF Done:  E(UB3LYP) =  -100.816360084     a.u. after   16 cycles

 Alpha  occ. eigenvalues --  -24.65867  -1.12049  -0.44824  -0.37708  -0.37708
 Alpha  occ. eigenvalues --   -0.36280
 Alpha virt. eigenvalues --   -0.14088   0.23688   0.28903   0.94756   0.94935
 Alpha virt. eigenvalues --    0.94935   1.06191   1.21422   1.21422   1.26755
 Alpha virt. eigenvalues --    1.33634   1.33634   1.71384   2.11507   2.25998

  Beta  occ. eigenvalues --  -24.64100  -1.07203  -0.39288  -0.35988  -0.35988
  Beta virt. eigenvalues --   -0.19391  -0.10323   0.24922   0.33410   0.94881
  Beta virt. eigenvalues --    0.94881   0.96279   1.08490   1.25218   1.25218
  Beta virt. eigenvalues --    1.38871   1.38871   1.42322   1.67698   2.12912

 Mulliken charges and spin densities:
               1          2
     1  H    0.239380  -0.502951
     2  H    0.033301   0.947161
     3  F   -0.272681   0.555790
 Sum of Mulliken charges =   0.00000   1.00000

 Dipole moment (field-independent basis, Debye):
    X=             -2.6891    Y=             -0.0000    Z=              0.0000  Tot=              2.6891
 Quadrupole moment (field-independent basis, Debye-Ang):
   XX=             -9.2153   YY=             -7.4517   ZZ=             -7.4517
   XY=             -0.0000   XZ=              0.0000   YZ=             -0.0000

  Exact polarizability:      36.963      -0.000       2.118       0.000      -0.000       2.118
 Approx polarizability:      47.480      -0.000       2.020       0.000       0.000       2.020

 ******    2 imaginary frequencies (negative Signs) ******

                      1                      2                      3
                      A                      A                      A
 Frequencies --  -1726.1302              -476.0342               729.6531
 Red. masses --      1.0431                 1.0687                 1.0213
 Frc consts  --      1.8312                 0.1427                 0.3203
 IR Inten    --     79.9924                15.7166                43.7420

                      4
                      A
 Frequencies --    729.6531
 Red. masses --      1.0213
 Frc consts  --      0.3203
 IR Inten    --     43.7420

 - Thermochemistry -
 -------------------
 Temperature   298.150 Kelvin.  Pressure   1.00000 Atm.
 Atom     1 has atomic number  1 and mass   1.00783

 Molecular mass:    21.01405 amu.
 Principal axes and moments of inertia in atomic units:
                           1         2         3
     Eigenvalues --     0.00000  62.89928  62.89928
           X            1.00000  -0.00000   0.00000
           Y            0.00000   1.00000   0.00000
           Z            0.00000   0.00000   1.00000
 This molecule is a prolate symmetric top.
 Rotational symmetry number  1.
 Rotational temperature (Kelvin)      1.37703
 Rotational constant (GHZ):          28.692556
    2 imaginary frequencies ignored.
 Zero-point vibrational energy       8728.6 (Joules/Mol)
                                    2.08618 (Kcal/Mol)
 Vibrational temperatures:   1049.81  1049.81
          (Kelvin)

 Zero-point correction=                           0.003325 (Hartree/Particle)
 Thermal correction to Energy=                    0.005888
 Thermal correction to Enthalpy=                  0.006832
 Thermal correction to Gibbs Free Energy=        -0.016766
 Sum of electronic and zero-point Energies=           -100.813036
 Sum of electronic and thermal Energies=              -100.810472
 Sum of electronic and thermal Enthalpies=            -100.809528
 Sum of electronic and thermal Free Energies=         -100.833126

                     E (Thermal)             CV                S
                      KCal/Mol        Cal/Mol-Kelvin    Cal/Mol-Kelvin
 Total                    3.695              6.515             49.665
 Electronic               0.000              0.000              1.377
 Translational            0.889              2.981             35.068
 Rotational               0.592              1.987             12.674
 Vibrational              2.213              1.547              0.546

 Normal termination of Gaussian 16 at Fri Aug 22 16:40:41 2025.
