 Gaussian 16, Revision C.01,
 Gaussian 16:  ES64L-G16RevC.01  3-Jul-2019

 -----------------------------------------
 # sp b3lyp/6-311g** Force nosymm scf=(qc)
 -----------------------------------------

 -------------------
 Title Card Required
 -------------------
 Symbolic Z-matrix:
 Charge =  0 Multiplicity = 2

                          Input orientation:
 ---------------------------------------------------------------------
 Center     Atomic      Atomic             Coordinates (Angstroms)
 Number     Number       Type             X           Y           Z
 ---------------------------------------------------------------------
      1          1           0        0.000000    0.000000    0.000000
      2          1           0       -0.550000    0.000000    0.000000
      3          9           0        3.050000    0.000000    0.000000
 ---------------------------------------------------------------------

 SCF Done:  E(UB3LYP) =  -100.894645728     a.u. after  277 cycles

 Alpha  occ. eigenvalues --  -24.76548  -1.22351  -0.55546  -0.47902  -0.46696
 Alpha  occ. eigenvalues --   -0.46617
 Alpha virt. eigenvalues --    0.09570   0.18751   0.54170   0.85916   0.90788
 Alpha virt. eigenvalues --    0.93995   1.06622   1.11185   1.11192   1.61907
 Alpha virt. eigenvalues --    1.83617   1.96315   1.96323   2.37126   3.64712

  Beta  occ. eigenvalues --  -24.73386  -1.13263  -0.47808  -0.43537  -0.43526
  Beta virt. eigenvalues --   -0.26169   0.09627   0.18783   0.54290   0.92287
  Beta virt. eigenvalues --    0.95374   0.95856   1.10205   1.11185   1.11192
  Beta virt. eigenvalues --    1.61929   1.83658   1.96314   1.96323   2.37131

 Mulliken charges and spin densities:
               1          2
     1  H   -0.008093  -0.001610
     2  H   -0.001504   0.000320
     3  F    0.009597   1.001290
 Sum of Mulliken charges =   0.00000   1.00000

 Dipole moment (field-independent basis, Debye):
    X=              0.0861    Y=             -0.0000    Z=              0.0000  Tot=              0.0861
 Quadrupole moment (field-independent basis, Debye-Ang):
   XX=             -5.9979   YY=             -6.0032   ZZ=             -6.4751
   XY=             -0.0000   XZ=              0.0000   YZ=             -0.3616

  Exact polarizability:       6.271      -0.000       2.197      -0.000      -0.193       1.945
 Approx polarizability:       6.653      -0.000       2.369       0.000      -0.242       2.054

 ******    2 imaginary frequencies (negative Signs) ******

                      1                      2                      3
                      A                      A                      A
 Frequencies --  -3689.4837             -3689.1693                65.8535
 Red. masses --      1.0085                 1.0085                 1.1085
 Frc consts  --      8.0884                 8.0870                 0.0028
 IR Inten    --      0.0465                 0.0456                 0.1562

                      4
                      A
 Frequencies --   8342.9281
 Red. masses --      1.0078
 Frc consts  --     41.3307
 IR Inten    --      0.2508

 - Thermochemistry -
 -------------------
 Temperature   298.150 Kelvin.  Pressure   1.00000 Atm.
 Atom     1 has atomic number  1 and mass   1.00783

 Molecular mass:    21.01405 amu.
 Principal axes and moments of inertia in atomic units:
                           1         2         3
     Eigenvalues --     0.00000  72.48982  72.48982
           X            1.00000  -0.00000   0.00000
           Y            0.00000   1.00000   0.00000
           Z            0.00000   0.00000   1.00000
 This molecule is a prolate symmetric top.
 Rotational symmetry number  1.
 Rotational temperature (Kelvin)      1.19484
 Rotational constant (GHZ):          24.896479
    2 imaginary frequencies ignored.
 Zero-point vibrational energy      50295.7 (Joules/Mol)
                                   12.02096 (Kcal/Mol)
 Warning -- explicit consideration of   1 degrees of freedom as
           vibrations may cause significant error
 Vibrational temperatures:     94.75 12003.61
          (Kelvin)

 Zero-point correction=                           0.019157 (Hartree/Particle)
 Thermal correction to Energy=                    0.022319
 Thermal correction to Enthalpy=                  0.023263
 Thermal correction to Gibbs Free Energy=        -0.002239
 Sum of electronic and zero-point Energies=           -100.875489
 Sum of electronic and thermal Energies=              -100.872327
 Sum of electronic and thermal Enthalpies=            -100.871382
 Sum of electronic and thermal Free Energies=         -100.896885

                     E (Thermal)             CV                S
                      KCal/Mol        Cal/Mol-Kelvin    Cal/Mol-Kelvin
 Total                   14.005              6.939             53.675
 Electronic               0.000              0.000              1.377
 Translational            0.889              2.981             35.068
 Rotational               0.592              1.987             12.956
 Vibrational             12.524              1.971              4.274
 Vibration     1          0.597              1.971              4.274

 Normal termination of Gaussian 16 at Fri Aug 22 19:35:55 2025.
