 Gaussian 16, Revision C.01,
 Gaussian 16:  ES64L-G16RevC.01  3-Jul-2019

 -----------------------------------------
 # sp b3lyp/6-311g** Force nosymm scf=(qc)
 -----------------------------------------

 -------------------
 Title Card Required
 -------------------
 Symbolic Z-matrix:
 Charge =  0 Multiplicity = 2

                          Input orientation:
 ---------------------------------------------------------------------
 Center     Atomic      Atomic             Coordinates (Angstroms)
 Number     Number       Type             X           Y           Z
 ---------------------------------------------------------------------
      1          1           0        0.000000    0.000000    0.000000
      2          1           0       -2.600000    0.000000    0.000000
      3          9           0        2.050000    0.000000    0.000000
 ---------------------------------------------------------------------

 SCF Done:  E(UB3LYP) =  -100.782869013     a.u. after   25 cycles

 Alpha  occ. eigenvalues --  -24.65471  -1.07538  -0.38230  -0.37091  -0.37091
 Alpha  occ. eigenvalues --   -0.33636
 Alpha virt. eigenvalues --   -0.20637   0.22327   0.26731   0.91515   0.96021
 Alpha virt. eigenvalues --    0.96021   1.08849   1.21765   1.21765   1.23074
 Alpha virt. eigenvalues --    1.23074   1.25130   1.50791   2.12829   2.14281

  Beta  occ. eigenvalues --  -24.67860  -1.14227  -0.46841  -0.39448  -0.39448
  Beta virt. eigenvalues --   -0.14647  -0.05142   0.31471   0.38073   0.89830
  Beta virt. eigenvalues --    0.95288   0.95288   1.06998   1.35819   1.35819
  Beta virt. eigenvalues --    1.46254   1.46254   1.47673   1.58515   2.30925

 Mulliken charges and spin densities:
               1          2
     1  H    0.180607   0.764028
     2  H    0.012692   0.987663
     3  F   -0.193299  -0.751691
 Sum of Mulliken charges =   0.00000   1.00000

 Dipole moment (field-independent basis, Debye):
    X=             -2.1250    Y=             -0.0000    Z=             -0.0000  Tot=              2.1250
 Quadrupole moment (field-independent basis, Debye-Ang):
   XX=            -10.0168   YY=             -7.4759   ZZ=             -7.4759
   XY=             -0.0000   XZ=             -0.0000   YZ=              0.0000

  Exact polarizability:      37.745      -0.000       2.055      -0.000       0.000       2.055
 Approx polarizability:      52.456      -0.000       1.946      -0.000       0.000       1.946

 ******    1 imaginary frequencies (negative Signs) ******

                      1                      2                      3
                      A                      A                      A
 Frequencies --  -1012.6942               210.2510               429.3661
 Red. masses --      1.0652                 1.0465                 1.0211
 Frc consts  --      0.6436                 0.0273                 0.1109
 IR Inten    --     55.1166                14.1064                27.6930

                      4
                      A
 Frequencies --    429.3661
 Red. masses --      1.0211
 Frc consts  --      0.1109
 IR Inten    --     27.6930

 - Thermochemistry -
 -------------------
 Temperature   298.150 Kelvin.  Pressure   1.00000 Atm.
 Atom     1 has atomic number  1 and mass   1.00783

 Molecular mass:    21.01405 amu.
 Principal axes and moments of inertia in atomic units:
                           1         2         3
     Eigenvalues --     0.00000  85.19607  85.19607
           X            1.00000  -0.00000   0.00000
           Y            0.00000   1.00000   0.00000
           Z            0.00000   0.00000   1.00000
 This molecule is a prolate symmetric top.
 Rotational symmetry number  1.
 Rotational temperature (Kelvin)      1.01664
 Rotational constant (GHZ):          21.183385
    1 imaginary frequencies ignored.
 Zero-point vibrational energy       6393.9 (Joules/Mol)
                                    1.52819 (Kcal/Mol)
 Warning -- explicit consideration of   3 degrees of freedom as
           vibrations may cause significant error
 Vibrational temperatures:    302.50   617.76   617.76
          (Kelvin)

 Zero-point correction=                           0.002435 (Hartree/Particle)
 Thermal correction to Energy=                    0.005904
 Thermal correction to Enthalpy=                  0.006849
 Thermal correction to Gibbs Free Energy=        -0.018564
 Sum of electronic and zero-point Energies=           -100.780434
 Sum of electronic and thermal Energies=              -100.776965
 Sum of electronic and thermal Enthalpies=            -100.776020
 Sum of electronic and thermal Free Energies=         -100.801433

                     E (Thermal)             CV                S
                      KCal/Mol        Cal/Mol-Kelvin    Cal/Mol-Kelvin
 Total                    3.705              9.606             53.485
 Electronic               0.000              0.000              1.377
 Translational            0.889              2.981             35.068
 Rotational               0.592              1.987             13.277
 Vibrational              2.224              4.638              3.763
 Vibration     1          0.642              1.825              2.041
 Vibration     2          0.791              1.406              0.861
 Vibration     3          0.791              1.406              0.861

 Normal termination of Gaussian 16 at Fri Aug 22 17:00:42 2025.
