 Gaussian 16, Revision C.01,
 Gaussian 16:  ES64L-G16RevC.01  3-Jul-2019

 -----------------------------------------
 # sp b3lyp/6-311g** Force nosymm scf=(qc)
 -----------------------------------------

 -------------------
 Title Card Required
 -------------------
 Symbolic Z-matrix:
 Charge =  0 Multiplicity = 2

                          Input orientation:
 ---------------------------------------------------------------------
 Center     Atomic      Atomic             Coordinates (Angstroms)
 Number     Number       Type             X           Y           Z
 ---------------------------------------------------------------------
      1          1           0        0.000000    0.000000    0.000000
      2          1           0       -1.000000    0.000000    0.000000
      3          9           0        1.050000    0.000000    0.000000
 ---------------------------------------------------------------------

 SCF Done:  E(UB3LYP) =  -100.957848280     a.u. after    6 cycles

 Alpha  occ. eigenvalues --  -24.65068  -1.16643  -0.57379  -0.39371  -0.39371
 Alpha  occ. eigenvalues --   -0.36822
 Alpha virt. eigenvalues --    0.11482   0.18826   0.42007   0.89909   0.89909
 Alpha virt. eigenvalues --    0.97708   1.08129   1.08129   1.40297   1.61668
 Alpha virt. eigenvalues --    1.61668   1.63242   2.21702   2.29233   2.85261

  Beta  occ. eigenvalues --  -24.63992  -1.13928  -0.51345  -0.38399  -0.38399
  Beta virt. eigenvalues --   -0.19255   0.13623   0.21360   0.47172   0.91416
  Beta virt. eigenvalues --    0.91416   0.99970   1.13619   1.13619   1.43685
  Beta virt. eigenvalues --    1.66093   1.66093   1.70017   2.22337   2.41009

 Mulliken charges and spin densities:
               1          2
     1  H    0.279048  -0.030414
     2  H    0.021645   0.742884
     3  F   -0.300693   0.287530
 Sum of Mulliken charges =   0.00000   1.00000

 Dipole moment (field-independent basis, Debye):
    X=             -2.0230    Y=             -0.0000    Z=             -0.0000  Tot=              2.0230
 Quadrupole moment (field-independent basis, Debye-Ang):
   XX=             -7.6495   YY=             -6.7192   ZZ=             -6.7192
   XY=              0.0000   XZ=              0.0000   YZ=             -0.0000

  Exact polarizability:      16.255       0.000       2.563       0.000      -0.000       2.563
 Approx polarizability:      19.866       0.000       2.584       0.000      -0.000       2.584

                      1                      2                      3
                      A                      A                      A
 Frequencies --    412.0245               412.0245               717.4398
 Red. masses --      1.0174                 1.0174                 1.0090
 Frc consts  --      0.1018                 0.1018                 0.3060
 IR Inten    --     47.6712                47.6712                63.3270

                      4
                      A
 Frequencies --   1641.1382
 Red. masses --      1.1070
 Frc consts  --      1.7567
 IR Inten    --     42.3293

 - Thermochemistry -
 -------------------
 Temperature   298.150 Kelvin.  Pressure   1.00000 Atm.
 Atom     1 has atomic number  1 and mass   1.00783

 Molecular mass:    21.01405 amu.
 Principal axes and moments of inertia in atomic units:
                           1         2         3
     Eigenvalues --     0.00000  17.43399  17.43399
           X            1.00000  -0.00000   0.00000
           Y            0.00000   1.00000   0.00000
           Z            0.00000   0.00000   1.00000
 This molecule is a prolate symmetric top.
 Rotational symmetry number  1.
 Rotational temperature (Kelvin)      4.96811
 Rotational constant (GHZ):         103.518553
 Zero-point vibrational energy      19036.3 (Joules/Mol)
                                    4.54979 (Kcal/Mol)
 Warning -- explicit consideration of   2 degrees of freedom as
           vibrations may cause significant error
 Vibrational temperatures:    592.81   592.81  1032.24  2361.23
          (Kelvin)

 Zero-point correction=                           0.007251 (Hartree/Particle)
 Thermal correction to Energy=                    0.010315
 Thermal correction to Enthalpy=                  0.011259
 Thermal correction to Gibbs Free Energy=        -0.011880
 Sum of electronic and zero-point Energies=           -100.950598
 Sum of electronic and thermal Energies=              -100.947533
 Sum of electronic and thermal Enthalpies=            -100.946589
 Sum of electronic and thermal Free Energies=         -100.969728

                     E (Thermal)             CV                S
                      KCal/Mol        Cal/Mol-Kelvin    Cal/Mol-Kelvin
 Total                    6.473              8.698             48.701
 Electronic               0.000              0.000              1.377
 Translational            0.889              2.981             35.068
 Rotational               0.592              1.987             10.124
 Vibrational              4.992              3.730              2.132
 Vibration     1          0.776              1.444              0.919
 Vibration     2          0.776              1.444              0.919

 Normal termination of Gaussian 16 at Fri Aug 22 16:02:14 2025.
