 Gaussian 16, Revision C.01,
 Gaussian 16:  ES64L-G16RevC.01  3-Jul-2019

 -----------------------------------------
 # sp b3lyp/6-311g** Force nosymm scf=(qc)
 -----------------------------------------

 -------------------
 Title Card Required
 -------------------
 Symbolic Z-matrix:
 Charge =  0 Multiplicity = 2

                          Input orientation:
 ---------------------------------------------------------------------
 Center     Atomic      Atomic             Coordinates (Angstroms)
 Number     Number       Type             X           Y           Z
 ---------------------------------------------------------------------
      1          1           0        0.000000    0.000000    0.000000
      2          1           0       -0.500000    0.000000    0.000000
      3          9           0        0.850000    0.000000    0.000000
 ---------------------------------------------------------------------

 SCF Done:  E(UB3LYP) =  -100.743602642     a.u. after    6 cycles

 Alpha  occ. eigenvalues --  -24.68441  -1.29270  -0.71620  -0.44676  -0.44676
 Alpha  occ. eigenvalues --   -0.29774
 Alpha virt. eigenvalues --    0.15191   0.17804   0.76458   0.85631   0.85631
 Alpha virt. eigenvalues --    0.91977   1.12955   1.12955   1.48702   1.69143
 Alpha virt. eigenvalues --    1.91087   1.93954   1.93954   3.07662   3.76298

  Beta  occ. eigenvalues --  -24.66801  -1.24909  -0.64762  -0.43218  -0.43218
  Beta virt. eigenvalues --   -0.11928   0.17959   0.18796   0.80896   0.87576
  Beta virt. eigenvalues --    0.87576   0.95378   1.17015   1.17015   1.50479
  Beta virt. eigenvalues --    1.74179   1.96491   1.98553   1.98553   3.13603

 Mulliken charges and spin densities:
               1          2
     1  H    0.277603  -0.050987
     2  H   -0.132671   0.706005
     3  F   -0.144932   0.344982
 Sum of Mulliken charges =   0.00000   1.00000

 Dipole moment (field-independent basis, Debye):
    X=             -0.8654    Y=             -0.0000    Z=              0.0000  Tot=              0.8654
 Quadrupole moment (field-independent basis, Debye-Ang):
   XX=             -7.3664   YY=             -6.3506   ZZ=             -6.3506
   XY=             -0.0000   XZ=              0.0000   YZ=             -0.0000

  Exact polarizability:       9.971      -0.000       2.459       0.000      -0.000       2.459
 Approx polarizability:      10.800      -0.000       2.554      -0.000      -0.000       2.554

 ******    2 imaginary frequencies (negative Signs) ******

                      1                      2                      3
                      A                      A                      A
 Frequencies --  -5624.1791             -5624.1791              3786.7901
 Red. masses --      1.0128                 1.0128                 1.1079
 Frc consts  --     18.8752                18.8752                 9.3602
 IR Inten    --     48.8946                48.8946               208.2765

                      4
                      A
 Frequencies --  10079.9057
 Red. masses --      1.0083
 Frc consts  --     60.3633
 IR Inten    --      0.4727

 - Thermochemistry -
 -------------------
 Temperature   298.150 Kelvin.  Pressure   1.00000 Atm.
 Atom     1 has atomic number  1 and mass   1.00783

 Molecular mass:    21.01405 amu.
 Principal axes and moments of inertia in atomic units:
                           1         2         3
     Eigenvalues --     0.00000   8.32406   8.32406
           X            1.00000  -0.00000   0.00000
           Y            0.00000   1.00000   0.00000
           Z            0.00000   0.00000   1.00000
 This molecule is a prolate symmetric top.
 Rotational symmetry number  1.
 Rotational temperature (Kelvin)     10.40525
 Rotational constant (GHZ):         216.810230
    2 imaginary frequencies ignored.
 Zero-point vibrational energy      82941.3 (Joules/Mol)
                                   19.82344 (Kcal/Mol)
 Vibrational temperatures:   5448.35 14502.74
          (Kelvin)

 Zero-point correction=                           0.031591 (Hartree/Particle)
 Thermal correction to Energy=                    0.033951
 Thermal correction to Enthalpy=                  0.034895
 Thermal correction to Gibbs Free Energy=         0.013467
 Sum of electronic and zero-point Energies=           -100.712012
 Sum of electronic and thermal Energies=              -100.709652
 Sum of electronic and thermal Enthalpies=            -100.708707
 Sum of electronic and thermal Free Energies=         -100.730136

                     E (Thermal)             CV                S
                      KCal/Mol        Cal/Mol-Kelvin    Cal/Mol-Kelvin
 Total                   21.305              4.968             45.100
 Electronic               0.000              0.000              1.377
 Translational            0.889              2.981             35.068
 Rotational               0.592              1.987              8.655
 Vibrational             19.823              0.000              0.000

 Normal termination of Gaussian 16 at Fri Aug 22 15:52:25 2025.
