 Gaussian 16, Revision C.01,
 Gaussian 16:  ES64L-G16RevC.01  3-Jul-2019

 -----------------------------------------
 # sp b3lyp/6-311g** Force nosymm scf=(qc)
 -----------------------------------------

 -------------------
 Title Card Required
 -------------------
 Symbolic Z-matrix:
 Charge =  0 Multiplicity = 2

                          Input orientation:
 ---------------------------------------------------------------------
 Center     Atomic      Atomic             Coordinates (Angstroms)
 Number     Number       Type             X           Y           Z
 ---------------------------------------------------------------------
      1          1           0        0.000000    0.000000    0.000000
      2          1           0       -0.900000    0.000000    0.000000
      3          9           0        1.500000    0.000000    0.000000
 ---------------------------------------------------------------------

 SCF Done:  E(UB3LYP) =  -100.933311239     a.u. after    7 cycles

 Alpha  occ. eigenvalues --  -24.69915  -1.17012  -0.54156  -0.41679  -0.41679
 Alpha  occ. eigenvalues --   -0.41403
 Alpha virt. eigenvalues --    0.05816   0.19942   0.37757   0.89357   0.89357
 Alpha virt. eigenvalues --    0.97938   1.07413   1.07413   1.23187   1.66881
 Alpha virt. eigenvalues --    1.70224   1.70224   2.17382   2.35870   2.62087

  Beta  occ. eigenvalues --  -24.67471  -1.10325  -0.45437  -0.39309  -0.39309
  Beta virt. eigenvalues --   -0.23425   0.07776   0.21198   0.39919   0.90438
  Beta virt. eigenvalues --    0.90438   1.03793   1.10148   1.10148   1.26787
  Beta virt. eigenvalues --    1.70261   1.71870   1.71870   2.19130   2.39068

 Mulliken charges and spin densities:
               1          2
     1  H    0.144385  -0.073741
     2  H    0.038145   0.332526
     3  F   -0.182530   0.741215
 Sum of Mulliken charges =  -0.00000   1.00000

 Dipole moment (field-independent basis, Debye):
    X=             -1.5035    Y=              0.0000    Z=              0.0000  Tot=              1.5035
 Quadrupole moment (field-independent basis, Debye-Ang):
   XX=             -7.1546   YY=             -6.9320   ZZ=             -6.9320
   XY=              0.0000   XZ=              0.0000   YZ=              0.0000

  Exact polarizability:      24.984      -0.000       2.353       0.000      -0.000       2.353
 Approx polarizability:      34.585      -0.000       2.365       0.000      -0.000       2.365

 ******    1 imaginary frequencies (negative Signs) ******

                      1                      2                      3
                      A                      A                      A
 Frequencies --  -1032.9074              1107.3275              1107.3275
 Red. masses --      1.0936                 1.0129                 1.0129
 Frc consts  --      0.6874                 0.7318                 0.7318
 IR Inten    --    371.0739                 2.5035                 2.5035

                      4
                      A
 Frequencies --   1962.9820
 Red. masses --      1.0205
 Frc consts  --      2.3168
 IR Inten    --    625.6518

 - Thermochemistry -
 -------------------
 Temperature   298.150 Kelvin.  Pressure   1.00000 Atm.
 Atom     1 has atomic number  1 and mass   1.00783

 Molecular mass:    21.01405 amu.
 Principal axes and moments of inertia in atomic units:
                           1         2         3
     Eigenvalues --     0.00000  26.20271  26.20271
           X            1.00000  -0.00000   0.00000
           Y            0.00000   1.00000   0.00000
           Z            0.00000   0.00000   1.00000
 This molecule is a prolate symmetric top.
 Rotational symmetry number  1.
 Rotational temperature (Kelvin)      3.30553
 Rotational constant (GHZ):          68.876135
    1 imaginary frequencies ignored.
 Zero-point vibrational energy      24987.8 (Joules/Mol)
                                    5.97223 (Kcal/Mol)
 Vibrational temperatures:   1593.20  1593.20  2824.29
          (Kelvin)

 Zero-point correction=                           0.009517 (Hartree/Particle)
 Thermal correction to Energy=                    0.011927
 Thermal correction to Enthalpy=                  0.012871
 Thermal correction to Gibbs Free Energy=        -0.009698
 Sum of electronic and zero-point Energies=           -100.923794
 Sum of electronic and thermal Energies=              -100.921384
 Sum of electronic and thermal Enthalpies=            -100.920440
 Sum of electronic and thermal Free Energies=         -100.943010

                     E (Thermal)             CV                S
                      KCal/Mol        Cal/Mol-Kelvin    Cal/Mol-Kelvin
 Total                    7.484              5.529             47.502
 Electronic               0.000              0.000              1.377
 Translational            0.889              2.981             35.068
 Rotational               0.592              1.987             10.934
 Vibrational              6.003              0.561              0.123

 Normal termination of Gaussian 16 at Fri Aug 22 16:24:31 2025.
