 Gaussian 16, Revision C.01,
 Gaussian 16:  ES64L-G16RevC.01  3-Jul-2019

 -----------------------------------------
 # sp b3lyp/6-311g** Force nosymm scf=(qc)
 -----------------------------------------

 -------------------
 Title Card Required
 -------------------
 Symbolic Z-matrix:
 Charge =  0 Multiplicity = 2

                          Input orientation:
 ---------------------------------------------------------------------
 Center     Atomic      Atomic             Coordinates (Angstroms)
 Number     Number       Type             X           Y           Z
 ---------------------------------------------------------------------
      1          1           0        0.000000    0.000000    0.000000
      2          1           0       -2.850000    0.000000    0.000000
      3          9           0        2.450000    0.000000    0.000000
 ---------------------------------------------------------------------

 SCF Done:  E(UB3LYP) =  -100.769942539     a.u. after   19 cycles

 Alpha  occ. eigenvalues --  -24.71445  -1.17674  -0.50540  -0.42460  -0.42460
 Alpha  occ. eigenvalues --   -0.33406
 Alpha virt. eigenvalues --   -0.11361   0.24254   0.33913   0.89739   0.93773
 Alpha virt. eigenvalues --    0.93773   1.06562   1.24156   1.24156   1.25546
 Alpha virt. eigenvalues --    1.39294   1.39294   1.44587   2.15061   2.34158

  Beta  occ. eigenvalues --  -24.68631  -1.09674  -0.39657  -0.39657  -0.35555
  Beta virt. eigenvalues --   -0.23161  -0.08350   0.24984   0.36141   0.95111
  Beta virt. eigenvalues --    0.95111   0.95934   1.08976   1.22031   1.22031
  Beta virt. eigenvalues --    1.31349   1.43791   1.43791   1.44198   2.13894

 Mulliken charges and spin densities:
               1          2
     1  H    0.092401  -0.877418
     2  H    0.004939   0.988803
     3  F   -0.097340   0.888615
 Sum of Mulliken charges =  -0.00000   1.00000

 Dipole moment (field-independent basis, Debye):
    X=             -1.2782    Y=             -0.0000    Z=             -0.0000  Tot=              1.2782
 Quadrupole moment (field-independent basis, Debye-Ang):
   XX=             -9.1678   YY=             -7.5834   ZZ=             -7.5834
   XY=             -0.0000   XZ=             -0.0000   YZ=             -0.0000

  Exact polarizability:      35.905      -0.000       2.022      -0.000      -0.000       2.022
 Approx polarizability:      42.458      -0.000       1.919      -0.000       0.000       1.919

 ******    2 imaginary frequencies (negative Signs) ******

                      1                      2                      3
                      A                      A                      A
 Frequencies --   -707.2309              -254.0299               281.4669
 Red. masses --      1.0404                 1.0716                 1.0199
 Frc consts  --      0.3066                 0.0407                 0.0476
 IR Inten    --     76.4064                 6.0633                 7.6345

                      4
                      A
 Frequencies --    281.4669
 Red. masses --      1.0199
 Frc consts  --      0.0476
 IR Inten    --      7.6345

 - Thermochemistry -
 -------------------
 Temperature   298.150 Kelvin.  Pressure   1.00000 Atm.
 Atom     1 has atomic number  1 and mass   1.00783

 Molecular mass:    21.01405 amu.
 Principal axes and moments of inertia in atomic units:
                           1         2         3
     Eigenvalues --     0.00000 112.33200 112.33200
           X            1.00000  -0.00000   0.00000
           Y            0.00000   1.00000   0.00000
           Z            0.00000   0.00000   1.00000
 This molecule is a prolate symmetric top.
 Rotational symmetry number  1.
 Rotational temperature (Kelvin)      0.77105
 Rotational constant (GHZ):          16.066137
    2 imaginary frequencies ignored.
 Zero-point vibrational energy       3367.1 (Joules/Mol)
                                    0.80475 (Kcal/Mol)
 Warning -- explicit consideration of   2 degrees of freedom as
           vibrations may cause significant error
 Vibrational temperatures:    404.97   404.97
          (Kelvin)

 Zero-point correction=                           0.001282 (Hartree/Particle)
 Thermal correction to Energy=                    0.004531
 Thermal correction to Enthalpy=                  0.005475
 Thermal correction to Gibbs Free Energy=        -0.019860
 Sum of electronic and zero-point Energies=           -100.768660
 Sum of electronic and thermal Energies=              -100.765412
 Sum of electronic and thermal Enthalpies=            -100.764468
 Sum of electronic and thermal Free Energies=         -100.789802

                     E (Thermal)             CV                S
                      KCal/Mol        Cal/Mol-Kelvin    Cal/Mol-Kelvin
 Total                    2.843              8.384             53.321
 Electronic               0.000              0.000              1.377
 Translational            0.889              2.981             35.068
 Rotational               0.592              1.987             13.826
 Vibrational              1.362              3.416              3.049
 Vibration     1          0.681              1.708              1.525
 Vibration     2          0.681              1.708              1.525

 Normal termination of Gaussian 16 at Fri Aug 22 17:39:09 2025.
