 Gaussian 16, Revision C.01,
 Gaussian 16:  ES64L-G16RevC.01  3-Jul-2019

 -----------------------------------------
 # sp b3lyp/6-311g** Force nosymm scf=(qc)
 -----------------------------------------

 -------------------
 Title Card Required
 -------------------
 Symbolic Z-matrix:
 Charge =  0 Multiplicity = 2

                          Input orientation:
 ---------------------------------------------------------------------
 Center     Atomic      Atomic             Coordinates (Angstroms)
 Number     Number       Type             X           Y           Z
 ---------------------------------------------------------------------
      1          1           0        0.000000    0.000000    0.000000
      2          1           0       -1.100000    0.000000    0.000000
      3          9           0        1.650000    0.000000    0.000000
 ---------------------------------------------------------------------

 SCF Done:  E(UB3LYP) =  -100.904640064     a.u. after   10 cycles

 Alpha  occ. eigenvalues --  -24.69722  -1.16410  -0.51444  -0.41291  -0.41291
 Alpha  occ. eigenvalues --   -0.40569
 Alpha virt. eigenvalues --   -0.00530   0.20549   0.33422   0.91060   0.91060
 Alpha virt. eigenvalues --    0.96635   1.08421   1.08421   1.09681   1.56686
 Alpha virt. eigenvalues --    1.57339   1.57339   2.16176   2.28424   2.53799

  Beta  occ. eigenvalues --  -24.67275  -1.09633  -0.41976  -0.38895  -0.38895
  Beta virt. eigenvalues --   -0.23885   0.01860   0.22073   0.34578   0.91983
  Beta virt. eigenvalues --    0.91983   1.03109   1.11078   1.11078   1.12355
  Beta virt. eigenvalues --    1.58828   1.58828   1.60430   2.18609   2.31886

 Mulliken charges and spin densities:
               1          2
     1  H    0.118841  -0.126155
     2  H    0.058201   0.370201
     3  F   -0.177042   0.755954
 Sum of Mulliken charges =   0.00000   1.00000

 Dipole moment (field-independent basis, Debye):
    X=             -1.7133    Y=              0.0000    Z=              0.0000  Tot=              1.7133
 Quadrupole moment (field-independent basis, Debye-Ang):
   XX=             -7.3039   YY=             -7.1658   ZZ=             -7.1658
   XY=              0.0000   XZ=              0.0000   YZ=             -0.0000

  Exact polarizability:      33.637       0.000       2.301       0.000      -0.000       2.301
 Approx polarizability:      50.078      -0.000       2.287      -0.000       0.000       2.287

 ******    1 imaginary frequencies (negative Signs) ******

                      1                      2                      3
                      A                      A                      A
 Frequencies --  -1802.3792               577.6050              1331.7405
 Red. masses --      1.0309                 1.0818                 1.0138
 Frc consts  --      1.9732                 0.2127                 1.0593
 IR Inten    --   1126.2951                59.7779                 2.3466

                      4
                      A
 Frequencies --   1331.7405
 Red. masses --      1.0138
 Frc consts  --      1.0593
 IR Inten    --      2.3466

 - Thermochemistry -
 -------------------
 Temperature   298.150 Kelvin.  Pressure   1.00000 Atm.
 Atom     1 has atomic number  1 and mass   1.00783

 Molecular mass:    21.01405 amu.
 Principal axes and moments of inertia in atomic units:
                           1         2         3
     Eigenvalues --     0.00000  33.67413  33.67413
           X            1.00000  -0.00000   0.00000
           Y            0.00000   1.00000   0.00000
           Z            0.00000   0.00000   1.00000
 This molecule is a prolate symmetric top.
 Rotational symmetry number  1.
 Rotational temperature (Kelvin)      2.57212
 Rotational constant (GHZ):          53.594289
    1 imaginary frequencies ignored.
 Zero-point vibrational energy      19386.0 (Joules/Mol)
                                    4.63336 (Kcal/Mol)
 Warning -- explicit consideration of   1 degrees of freedom as
           vibrations may cause significant error
 Vibrational temperatures:    831.04  1916.08  1916.08
          (Kelvin)

 Zero-point correction=                           0.007384 (Hartree/Particle)
 Thermal correction to Energy=                    0.009937
 Thermal correction to Enthalpy=                  0.010881
 Thermal correction to Gibbs Free Energy=        -0.012123
 Sum of electronic and zero-point Energies=           -100.897256
 Sum of electronic and thermal Energies=              -100.894703
 Sum of electronic and thermal Enthalpies=            -100.893759
 Sum of electronic and thermal Free Energies=         -100.916763

                     E (Thermal)             CV                S
                      KCal/Mol        Cal/Mol-Kelvin    Cal/Mol-Kelvin
 Total                    6.235              6.314             48.415
 Electronic               0.000              0.000              1.377
 Translational            0.889              2.981             35.068
 Rotational               0.592              1.987             11.432
 Vibrational              4.754              1.346              0.538
 Vibration     1          0.934              1.080              0.490

 Normal termination of Gaussian 16 at Fri Aug 22 16:33:27 2025.
