 Gaussian 16, Revision C.01,
 Gaussian 16:  ES64L-G16RevC.01  3-Jul-2019

 -----------------------------------------
 # sp b3lyp/6-311g** Force nosymm scf=(qc)
 -----------------------------------------

 -------------------
 Title Card Required
 -------------------
 Symbolic Z-matrix:
 Charge =  0 Multiplicity = 2

                          Input orientation:
 ---------------------------------------------------------------------
 Center     Atomic      Atomic             Coordinates (Angstroms)
 Number     Number       Type             X           Y           Z
 ---------------------------------------------------------------------
      1          1           0        0.000000    0.000000    0.000000
      2          1           0       -3.700000    0.000000    0.000000
      3          9           0        0.900000    0.000000    0.000000
 ---------------------------------------------------------------------

 SCF Done:  E(UB3LYP) =  -100.971450784     a.u. after    5 cycles

 Alpha  occ. eigenvalues --  -24.64002  -1.19053  -0.53865  -0.39662  -0.39662
 Alpha  occ. eigenvalues --   -0.33468
 Alpha virt. eigenvalues --    0.03118   0.24118   0.39651   0.94327   0.94327
 Alpha virt. eigenvalues --    0.97740   1.23924   1.24041   1.24041   1.29240
 Alpha virt. eigenvalues --    1.37256   1.37256   2.00387   2.14344   2.37190

  Beta  occ. eigenvalues --  -24.64001  -1.19051  -0.53863  -0.39661  -0.39661
  Beta virt. eigenvalues --   -0.05216   0.03488   0.37726   0.40820   0.94327
  Beta virt. eigenvalues --    0.94327   0.97738   1.29092   1.37256   1.37256
  Beta virt. eigenvalues --    1.50505   1.50965   1.50965   2.00518   2.37100

 Mulliken charges and spin densities:
               1          2
     1  H    0.295746   0.000422
     2  H    0.000593   0.999313
     3  F   -0.296339   0.000265
 Sum of Mulliken charges =   0.00000   1.00000

 Dipole moment (field-independent basis, Debye):
    X=             -1.8887    Y=              0.0000    Z=              0.0000  Tot=              1.8887
 Quadrupole moment (field-independent basis, Debye-Ang):
   XX=             -7.9315   YY=             -6.8690   ZZ=             -6.8690
   XY=             -0.0000   XZ=              0.0000   YZ=             -0.0000

  Exact polarizability:       5.423      -0.000       2.424      -0.000       0.000       2.424
 Approx polarizability:       6.365      -0.000       2.401      -0.000       0.000       2.401

 ******    3 imaginary frequencies (negative Signs) ******

                      1                      2                      3
                      A                      A                      A
 Frequencies --   -626.2738              -626.2738               -40.0106
 Red. masses --      1.0393                 1.0393                 1.0532
 Frc consts  --      0.2402                 0.2402                 0.0010
 IR Inten    --    182.6517               182.6517                 0.0228

                      4
                      A
 Frequencies --   4432.1928
 Red. masses --      1.0583
 Frc consts  --     12.2491
 IR Inten    --     98.1926

 - Thermochemistry -
 -------------------
 Temperature   298.150 Kelvin.  Pressure   1.00000 Atm.
 Atom     1 has atomic number  1 and mass   1.00783

 Molecular mass:    21.01405 amu.
 Principal axes and moments of inertia in atomic units:
                           1         2         3
     Eigenvalues --     0.00000  73.84886  73.84886
           X            1.00000  -0.00000   0.00000
           Y            0.00000   1.00000   0.00000
           Z            0.00000   0.00000   1.00000
 This molecule is a prolate symmetric top.
 Rotational symmetry number  1.
 Rotational temperature (Kelvin)      1.17285
 Rotational constant (GHZ):          24.438309
    3 imaginary frequencies ignored.
 Zero-point vibrational energy      26510.4 (Joules/Mol)
                                    6.33614 (Kcal/Mol)
 Vibrational temperatures:   6376.94
          (Kelvin)

 Zero-point correction=                           0.010097 (Hartree/Particle)
 Thermal correction to Energy=                    0.012458
 Thermal correction to Enthalpy=                  0.013402
 Thermal correction to Gibbs Free Energy=        -0.010088
 Sum of electronic and zero-point Energies=           -100.961354
 Sum of electronic and thermal Energies=              -100.958993
 Sum of electronic and thermal Enthalpies=            -100.958049
 Sum of electronic and thermal Free Energies=         -100.981538

                     E (Thermal)             CV                S
                      KCal/Mol        Cal/Mol-Kelvin    Cal/Mol-Kelvin
 Total                    7.817              4.968             49.438
 Electronic               0.000              0.000              1.377
 Translational            0.889              2.981             35.068
 Rotational               0.592              1.987             12.993
 Vibrational              6.336              0.000              0.000

 Normal termination of Gaussian 16 at Fri Aug 22 15:56:53 2025.
