 Gaussian 16, Revision C.01,
 Gaussian 16:  ES64L-G16RevC.01  3-Jul-2019

 -----------------------------------------
 # sp b3lyp/6-311g** Force nosymm scf=(qc)
 -----------------------------------------

 -------------------
 Title Card Required
 -------------------
 Symbolic Z-matrix:
 Charge =  0 Multiplicity = 2

                          Input orientation:
 ---------------------------------------------------------------------
 Center     Atomic      Atomic             Coordinates (Angstroms)
 Number     Number       Type             X           Y           Z
 ---------------------------------------------------------------------
      1          1           0        0.000000    0.000000    0.000000
      2          1           0       -3.100000    0.000000    0.000000
      3          9           0        1.400000    0.000000    0.000000
 ---------------------------------------------------------------------

 SCF Done:  E(UB3LYP) =  -100.877515182     a.u. after    7 cycles

 Alpha  occ. eigenvalues --  -24.64313  -1.10246  -0.44542  -0.36661  -0.36661
 Alpha  occ. eigenvalues --   -0.34426
 Alpha virt. eigenvalues --   -0.11730   0.21450   0.27844   0.93167   0.93167
 Alpha virt. eigenvalues --    1.03178   1.15668   1.23094   1.23094   1.23466
 Alpha virt. eigenvalues --    1.32704   1.32704   1.71989   2.13814   2.21466

  Beta  occ. eigenvalues --  -24.64283  -1.10168  -0.44455  -0.36633  -0.36633
  Beta virt. eigenvalues --   -0.12677  -0.06680   0.24585   0.37666   0.93159
  Beta virt. eigenvalues --    0.93159   1.03259   1.15796   1.32597   1.32597
  Beta virt. eigenvalues --    1.45051   1.45472   1.45472   1.72048   2.21324

 Mulliken charges and spin densities:
               1          2
     1  H    0.353864  -0.004760
     2  H    0.004236   0.995353
     3  F   -0.358100   0.009407
 Sum of Mulliken charges =  -0.00000   1.00000

 Dipole moment (field-independent basis, Debye):
    X=             -2.5573    Y=              0.0000    Z=             -0.0000  Tot=              2.5573
 Quadrupole moment (field-independent basis, Debye-Ang):
   XX=             -9.4142   YY=             -7.2650   ZZ=             -7.2650
   XY=              0.0000   XZ=             -0.0000   YZ=              0.0000

  Exact polarizability:      14.641      -0.000       2.237       0.000       0.000       2.237
 Approx polarizability:      23.737      -0.000       2.172       0.000      -0.000       2.172

 ******    2 imaginary frequencies (negative Signs) ******

                      1                      2                      3
                      A                      A                      A
 Frequencies --  -1031.4833              -114.9806              1084.3145
 Red. masses --      1.0559                 1.0556                 1.0297
 Frc consts  --      0.6619                 0.0082                 0.7133
 IR Inten    --     66.2883                 0.5109               122.2073

                      4
                      A
 Frequencies --   1084.3145
 Red. masses --      1.0297
 Frc consts  --      0.7133
 IR Inten    --    122.2073

 - Thermochemistry -
 -------------------
 Temperature   298.150 Kelvin.  Pressure   1.00000 Atm.
 Atom     1 has atomic number  1 and mass   1.00783

 Molecular mass:    21.01405 amu.
 Principal axes and moments of inertia in atomic units:
                           1         2         3
     Eigenvalues --     0.00000  73.92553  73.92553
           X            1.00000  -0.00000   0.00000
           Y            0.00000   1.00000   0.00000
           Z            0.00000   0.00000   1.00000
 This molecule is a prolate symmetric top.
 Rotational symmetry number  1.
 Rotational temperature (Kelvin)      1.17164
 Rotational constant (GHZ):          24.412962
    2 imaginary frequencies ignored.
 Zero-point vibrational energy      12971.3 (Joules/Mol)
                                    3.10021 (Kcal/Mol)
 Vibrational temperatures:   1560.09  1560.09
          (Kelvin)

 Zero-point correction=                           0.004941 (Hartree/Particle)
 Thermal correction to Energy=                    0.007354
 Thermal correction to Enthalpy=                  0.008298
 Thermal correction to Gibbs Free Energy=        -0.015256
 Sum of electronic and zero-point Energies=           -100.872575
 Sum of electronic and thermal Energies=              -100.870161
 Sum of electronic and thermal Enthalpies=            -100.869217
 Sum of electronic and thermal Free Energies=         -100.892771

                     E (Thermal)             CV                S
                      KCal/Mol        Cal/Mol-Kelvin    Cal/Mol-Kelvin
 Total                    4.615              5.555             49.573
 Electronic               0.000              0.000              1.377
 Translational            0.889              2.981             35.068
 Rotational               0.592              1.987             12.995
 Vibrational              3.133              0.587              0.133

 Normal termination of Gaussian 16 at Fri Aug 22 16:20:56 2025.
