 Gaussian 16, Revision C.01,
 Gaussian 16:  ES64L-G16RevC.01  3-Jul-2019

 -----------------------------------------
 # sp b3lyp/6-311g** Force nosymm scf=(qc)
 -----------------------------------------

 -------------------
 Title Card Required
 -------------------
 Symbolic Z-matrix:
 Charge =  0 Multiplicity = 2

                          Input orientation:
 ---------------------------------------------------------------------
 Center     Atomic      Atomic             Coordinates (Angstroms)
 Number     Number       Type             X           Y           Z
 ---------------------------------------------------------------------
      1          1           0        0.000000    0.000000    0.000000
      2          1           0       -1.700000    0.000000    0.000000
      3          9           0        1.200000    0.000000    0.000000
 ---------------------------------------------------------------------

 SCF Done:  E(UB3LYP) =  -100.930007185     a.u. after    7 cycles

 Alpha  occ. eigenvalues --  -24.63459  -1.11803  -0.48546  -0.37356  -0.36846
 Alpha  occ. eigenvalues --   -0.36846
 Alpha virt. eigenvalues --   -0.00949   0.22030   0.29088   0.93782   0.93782
 Alpha virt. eigenvalues --    1.01143   1.07247   1.18196   1.18196   1.37407
 Alpha virt. eigenvalues --    1.37407   1.51743   1.77665   2.19779   2.35483

  Beta  occ. eigenvalues --  -24.63124  -1.10957  -0.46613  -0.36541  -0.36541
  Beta virt. eigenvalues --   -0.16924   0.02448   0.26988   0.32430   0.93823
  Beta virt. eigenvalues --    0.93823   1.02016   1.15385   1.30206   1.30206
  Beta virt. eigenvalues --    1.41457   1.41457   1.55891   1.83779   2.29154

 Mulliken charges and spin densities:
               1          2
     1  H    0.318481  -0.024677
     2  H    0.042873   0.926009
     3  F   -0.361354   0.098668
 Sum of Mulliken charges =   0.00000   1.00000

 Dipole moment (field-independent basis, Debye):
    X=             -2.6888    Y=             -0.0000    Z=              0.0000  Tot=              2.6888
 Quadrupole moment (field-independent basis, Debye-Ang):
   XX=             -8.0658   YY=             -7.0375   ZZ=             -7.0375
   XY=             -0.0000   XZ=              0.0000   YZ=              0.0000

  Exact polarizability:      17.926      -0.000       2.412      -0.000      -0.000       2.412
 Approx polarizability:      22.011       0.000       2.381      -0.000      -0.000       2.381

 ******    1 imaginary frequencies (negative Signs) ******

                      1                      2                      3
                      A                      A                      A
 Frequencies --   -959.7094               627.4341              1138.0695
 Red. masses --      1.0084                 1.1079                 1.0227
 Frc consts  --      0.5472                 0.2570                 0.7804
 IR Inten    --    136.7962                69.9789                87.0147

                      4
                      A
 Frequencies --   1138.0695
 Red. masses --      1.0227
 Frc consts  --      0.7804
 IR Inten    --     87.0147

 - Thermochemistry -
 -------------------
 Temperature   298.150 Kelvin.  Pressure   1.00000 Atm.
 Atom     1 has atomic number  1 and mass   1.00783

 Molecular mass:    21.01405 amu.
 Principal axes and moments of inertia in atomic units:
                           1         2         3
     Eigenvalues --     0.00000  32.54871  32.54871
           X            1.00000  -0.00000   0.00000
           Y            0.00000   1.00000   0.00000
           Z            0.00000   0.00000   1.00000
 This molecule is a prolate symmetric top.
 Rotational symmetry number  1.
 Rotational temperature (Kelvin)      2.66106
 Rotational constant (GHZ):          55.447393
    1 imaginary frequencies ignored.
 Zero-point vibrational energy      17367.2 (Joules/Mol)
                                    4.15087 (Kcal/Mol)
 Vibrational temperatures:    902.74  1637.43  1637.43
          (Kelvin)

 Zero-point correction=                           0.006615 (Hartree/Particle)
 Thermal correction to Energy=                    0.009164
 Thermal correction to Enthalpy=                  0.010108
 Thermal correction to Gibbs Free Energy=        -0.012851
 Sum of electronic and zero-point Energies=           -100.923392
 Sum of electronic and thermal Energies=              -100.920844
 Sum of electronic and thermal Enthalpies=            -100.919899
 Sum of electronic and thermal Free Energies=         -100.942858

                     E (Thermal)             CV                S
                      KCal/Mol        Cal/Mol-Kelvin    Cal/Mol-Kelvin
 Total                    5.750              6.440             48.322
 Electronic               0.000              0.000              1.377
 Translational            0.889              2.981             35.068
 Rotational               0.592              1.987             11.365
 Vibrational              4.269              1.472              0.512

 Normal termination of Gaussian 16 at Fri Aug 22 16:09:57 2025.
