 Gaussian 16, Revision C.01,
 Gaussian 16:  ES64L-G16RevC.01  3-Jul-2019

 -----------------------------------------
 # sp b3lyp/6-311g** Force nosymm scf=(qc)
 -----------------------------------------

 -------------------
 Title Card Required
 -------------------
 Symbolic Z-matrix:
 Charge =  0 Multiplicity = 2

                          Input orientation:
 ---------------------------------------------------------------------
 Center     Atomic      Atomic             Coordinates (Angstroms)
 Number     Number       Type             X           Y           Z
 ---------------------------------------------------------------------
      1          1           0        0.000000    0.000000    0.000000
      2          1           0       -0.550000    0.000000    0.000000
      3          9           0        3.250000    0.000000    0.000000
 ---------------------------------------------------------------------

 SCF Done:  E(UB3LYP) =  -100.894493615     a.u. after  155 cycles

 Alpha  occ. eigenvalues --  -24.76454  -1.22277  -0.55475  -0.47878  -0.46626
 Alpha  occ. eigenvalues --   -0.46610
 Alpha virt. eigenvalues --    0.09385   0.18655   0.53752   0.85967   0.90841
 Alpha virt. eigenvalues --    0.93843   1.04469   1.11137   1.11143   1.61676
 Alpha virt. eigenvalues --    1.83338   1.96265   1.96272   2.36826   3.64768

  Beta  occ. eigenvalues --  -24.73294  -1.13192  -0.47836  -0.43481  -0.43457
  Beta virt. eigenvalues --   -0.26103   0.09427   0.18677   0.53861   0.92340
  Beta virt. eigenvalues --    0.95427   0.95574   1.08210   1.11137   1.11142
  Beta virt. eigenvalues --    1.61693   1.83378   1.96265   1.96271   2.36829

 Mulliken charges and spin densities:
               1          2
     1  H   -0.006045  -0.001166
     2  H   -0.001285   0.000244
     3  F    0.007330   1.000922
 Sum of Mulliken charges =   0.00000   1.00000

 Dipole moment (field-independent basis, Debye):
    X=              0.0699    Y=             -0.0000    Z=             -0.0000  Tot=              0.0699
 Quadrupole moment (field-independent basis, Debye-Ang):
   XX=             -6.0389   YY=             -5.8279   ZZ=             -6.6458
   XY=             -0.0000   XZ=             -0.0000   YZ=              0.1390

  Exact polarizability:       6.155      -0.000       2.287      -0.000       0.075       1.849
 Approx polarizability:       6.546      -0.000       2.483      -0.000       0.093       1.935

 ******    2 imaginary frequencies (negative Signs) ******

                      1                      2                      3
                      A                      A                      A
 Frequencies --  -3692.3018             -3691.9258                50.0859
 Red. masses --      1.0084                 1.0084                 1.1085
 Frc consts  --      8.1002                 8.0985                 0.0016
 IR Inten    --      0.0265                 0.0244                 0.1436

                      4
                      A
 Frequencies --   8342.9068
 Red. masses --      1.0078
 Frc consts  --     41.3304
 IR Inten    --      0.1133

 - Thermochemistry -
 -------------------
 Temperature   298.150 Kelvin.  Pressure   1.00000 Atm.
 Atom     1 has atomic number  1 and mass   1.00783

 Molecular mass:    21.01405 amu.
 Principal axes and moments of inertia in atomic units:
                           1         2         3
     Eigenvalues --     0.00000  81.40522  81.40522
           X            1.00000  -0.00000   0.00000
           Y            0.00000   1.00000   0.00000
           Z            0.00000   0.00000   1.00000
 This molecule is a prolate symmetric top.
 Rotational symmetry number  1.
 Rotational temperature (Kelvin)      1.06398
 Rotational constant (GHZ):          22.169847
    2 imaginary frequencies ignored.
 Zero-point vibrational energy      50201.2 (Joules/Mol)
                                   11.99839 (Kcal/Mol)
 Warning -- explicit consideration of   1 degrees of freedom as
           vibrations may cause significant error
 Vibrational temperatures:     72.06 12003.58
          (Kelvin)

 Zero-point correction=                           0.019121 (Hartree/Particle)
 Thermal correction to Energy=                    0.022316
 Thermal correction to Enthalpy=                  0.023260
 Thermal correction to Gibbs Free Energy=        -0.002609
 Sum of electronic and zero-point Energies=           -100.875373
 Sum of electronic and thermal Energies=              -100.872178
 Sum of electronic and thermal Enthalpies=            -100.871234
 Sum of electronic and thermal Free Energies=         -100.897103

                     E (Thermal)             CV                S
                      KCal/Mol        Cal/Mol-Kelvin    Cal/Mol-Kelvin
 Total                   14.003              6.946             54.446
 Electronic               0.000              0.000              1.377
 Translational            0.889              2.981             35.068
 Rotational               0.592              1.987             13.186
 Vibrational             12.522              1.978              4.814
 Vibration     1          0.595              1.978              4.814

 Normal termination of Gaussian 16 at Fri Aug 22 20:26:07 2025.
