 Gaussian 16, Revision C.01,
 Gaussian 16:  ES64L-G16RevC.01  3-Jul-2019

 -----------------------------------------
 # sp b3lyp/6-311g** Force nosymm scf=(qc)
 -----------------------------------------

 -------------------
 Title Card Required
 -------------------
 Symbolic Z-matrix:
 Charge =  0 Multiplicity = 2

                          Input orientation:
 ---------------------------------------------------------------------
 Center     Atomic      Atomic             Coordinates (Angstroms)
 Number     Number       Type             X           Y           Z
 ---------------------------------------------------------------------
      1          1           0        0.000000    0.000000    0.000000
      2          1           0       -3.650000    0.000000    0.000000
      3          9           0        3.350000    0.000000    0.000000
 ---------------------------------------------------------------------

 SCF Done:  E(UB3LYP) =  -100.759370818     a.u. after   24 cycles

 Alpha  occ. eigenvalues --  -24.75090  -1.21075  -0.54212  -0.45517  -0.45517
 Alpha  occ. eigenvalues --   -0.32364
 Alpha virt. eigenvalues --   -0.07020   0.24129   0.36840   0.88097   0.91665
 Alpha virt. eigenvalues --    0.91665   1.02269   1.25136   1.25136   1.25223
 Alpha virt. eigenvalues --    1.45264   1.45264   1.45506   2.14783   2.41505

  Beta  occ. eigenvalues --  -24.71995  -1.12187  -0.42416  -0.42416  -0.33027
  Beta virt. eigenvalues --   -0.25327  -0.06266   0.23889   0.38059   0.93148
  Beta virt. eigenvalues --    0.93148   0.97126   1.06211   1.24372   1.24372
  Beta virt. eigenvalues --    1.24455   1.46161   1.46371   1.46371   2.15036

 Mulliken charges and spin densities:
               1          2
     1  H    0.016971  -0.979765
     2  H    0.000165   0.998551
     3  F   -0.017136   0.981214
 Sum of Mulliken charges =  -0.00000   1.00000

 Dipole moment (field-independent basis, Debye):
    X=             -0.2980    Y=              0.0000    Z=             -0.0000  Tot=              0.2980
 Quadrupole moment (field-independent basis, Debye-Ang):
   XX=             -7.6515   YY=             -7.6177   ZZ=             -7.6177
   XY=              0.0000   XZ=             -0.0000   YZ=             -0.0000

  Exact polarizability:      26.817       0.000       2.032      -0.000       0.000       2.032
 Approx polarizability:      22.782       0.000       1.932      -0.000      -0.000       1.932

 ******    2 imaginary frequencies (negative Signs) ******

                      1                      2                      3
                      A                      A                      A
 Frequencies --   -265.5303               -96.3767                83.2983
 Red. masses --      1.0405                 1.0715                 1.0190
 Frc consts  --      0.0432                 0.0059                 0.0042
 IR Inten    --     17.7992                 0.6202                 0.2642

                      4
                      A
 Frequencies --     83.2983
 Red. masses --      1.0190
 Frc consts  --      0.0042
 IR Inten    --      0.2642

 - Thermochemistry -
 -------------------
 Temperature   298.150 Kelvin.  Pressure   1.00000 Atm.
 Atom     1 has atomic number  1 and mass   1.00783

 Molecular mass:    21.01405 amu.
 Principal axes and moments of inertia in atomic units:
                           1         2         3
     Eigenvalues --     0.00000 198.25121 198.25121
           X            1.00000  -0.00000   0.00000
           Y            0.00000   1.00000   0.00000
           Z            0.00000   0.00000   1.00000
 This molecule is a prolate symmetric top.
 Rotational symmetry number  1.
 Rotational temperature (Kelvin)      0.43689
 Rotational constant (GHZ):           9.103305
    2 imaginary frequencies ignored.
 Zero-point vibrational energy        996.5 (Joules/Mol)
                                    0.23816 (Kcal/Mol)
 Warning -- explicit consideration of   2 degrees of freedom as
           vibrations may cause significant error
 Vibrational temperatures:    119.85   119.85
          (Kelvin)

 Zero-point correction=                           0.000380 (Hartree/Particle)
 Thermal correction to Energy=                    0.004274
 Thermal correction to Enthalpy=                  0.005218
 Thermal correction to Gibbs Free Energy=        -0.022826
 Sum of electronic and zero-point Energies=           -100.758991
 Sum of electronic and thermal Energies=              -100.755097
 Sum of electronic and thermal Enthalpies=            -100.754152
 Sum of electronic and thermal Free Energies=         -100.782197

                     E (Thermal)             CV                S
                      KCal/Mol        Cal/Mol-Kelvin    Cal/Mol-Kelvin
 Total                    2.682              8.889             59.024
 Electronic               0.000              0.000              1.377
 Translational            0.889              2.981             35.068
 Rotational               0.592              1.987             14.955
 Vibrational              1.201              3.921              7.623
 Vibration     1          0.600              1.961              3.812
 Vibration     2          0.600              1.961              3.812

 Normal termination of Gaussian 16 at Fri Aug 22 21:03:23 2025.
