 Gaussian 16, Revision C.01,
 Gaussian 16:  ES64L-G16RevC.01  3-Jul-2019

 -----------------------------------------
 # sp b3lyp/6-311g** Force nosymm scf=(qc)
 -----------------------------------------

 -------------------
 Title Card Required
 -------------------
 Symbolic Z-matrix:
 Charge =  0 Multiplicity = 2

                          Input orientation:
 ---------------------------------------------------------------------
 Center     Atomic      Atomic             Coordinates (Angstroms)
 Number     Number       Type             X           Y           Z
 ---------------------------------------------------------------------
      1          1           0        0.000000    0.000000    0.000000
      2          1           0       -1.700000    0.000000    0.000000
      3          9           0        2.600000    0.000000    0.000000
 ---------------------------------------------------------------------

 SCF Done:  E(UB3LYP) =  -100.799431719     a.u. after   23 cycles

 Alpha  occ. eigenvalues --  -24.73048  -1.19177  -0.52185  -0.43807  -0.43807
 Alpha  occ. eigenvalues --   -0.35143
 Alpha virt. eigenvalues --   -0.12050   0.24450   0.30902   0.89744   0.92856
 Alpha virt. eigenvalues --    0.92856   1.03634   1.12006   1.21689   1.21689
 Alpha virt. eigenvalues --    1.36138   1.36138   1.65591   2.14782   2.41041

  Beta  occ. eigenvalues --  -24.70113  -1.10794  -0.40875  -0.40875  -0.34880
  Beta virt. eigenvalues --   -0.24472  -0.11463   0.25961   0.30594   0.94270
  Beta virt. eigenvalues --    0.94270   0.96720   1.06093   1.15293   1.22103
  Beta virt. eigenvalues --    1.22103   1.36743   1.36743   1.66218   2.15803

 Mulliken charges and spin densities:
               1          2
     1  H    0.027211  -0.582492
     2  H    0.034004   0.654205
     3  F   -0.061215   0.928287
 Sum of Mulliken charges =  -0.00000   1.00000

 Dipole moment (field-independent basis, Debye):
    X=             -1.0873    Y=              0.0000    Z=             -0.0000  Tot=              1.0873
 Quadrupole moment (field-independent basis, Debye-Ang):
   XX=             -7.3419   YY=             -7.7013   ZZ=             -7.7013
   XY=              0.0000   XZ=             -0.0000   YZ=              0.0000

  Exact polarizability:      63.161       0.000       2.019      -0.000      -0.000       2.019
 Approx polarizability:      77.306      -0.000       1.971       0.000      -0.000       1.971

 ******    2 imaginary frequencies (negative Signs) ******

                      1                      2                      3
                      A                      A                      A
 Frequencies --  -1917.4755              -330.3891               877.6272
 Red. masses --      1.0082                 1.1080                 1.0136
 Frc consts  --      2.1840                 0.0713                 0.4600
 IR Inten    --    223.5926                44.2805                 0.1276

                      4
                      A
 Frequencies --    877.6272
 Red. masses --      1.0136
 Frc consts  --      0.4600
 IR Inten    --      0.1276

 - Thermochemistry -
 -------------------
 Temperature   298.150 Kelvin.  Pressure   1.00000 Atm.
 Atom     1 has atomic number  1 and mass   1.00783

 Molecular mass:    21.01405 amu.
 Principal axes and moments of inertia in atomic units:
                           1         2         3
     Eigenvalues --     0.00000  82.65715  82.65715
           X            1.00000  -0.00000   0.00000
           Y            0.00000   1.00000   0.00000
           Z            0.00000   0.00000   1.00000
 This molecule is a prolate symmetric top.
 Rotational symmetry number  1.
 Rotational temperature (Kelvin)      1.04787
 Rotational constant (GHZ):          21.834060
    2 imaginary frequencies ignored.
 Zero-point vibrational energy      10498.8 (Joules/Mol)
                                    2.50926 (Kcal/Mol)
 Vibrational temperatures:   1262.71  1262.71
          (Kelvin)

 Zero-point correction=                           0.003999 (Hartree/Particle)
 Thermal correction to Energy=                    0.006477
 Thermal correction to Enthalpy=                  0.007421
 Thermal correction to Gibbs Free Energy=        -0.016320
 Sum of electronic and zero-point Energies=           -100.795433
 Sum of electronic and thermal Energies=              -100.792955
 Sum of electronic and thermal Enthalpies=            -100.792011
 Sum of electronic and thermal Free Energies=         -100.815752

                     E (Thermal)             CV                S
                      KCal/Mol        Cal/Mol-Kelvin    Cal/Mol-Kelvin
 Total                    4.064              6.031             49.967
 Electronic               0.000              0.000              1.377
 Translational            0.889              2.981             35.068
 Rotational               0.592              1.987             13.217
 Vibrational              2.583              1.063              0.305

 Normal termination of Gaussian 16 at Fri Aug 22 18:03:23 2025.
