 Gaussian 16, Revision C.01,
 Gaussian 16:  ES64L-G16RevC.01  3-Jul-2019

 -----------------------------------------
 # sp b3lyp/6-311g** Force nosymm scf=(qc)
 -----------------------------------------

 -------------------
 Title Card Required
 -------------------
 Symbolic Z-matrix:
 Charge =  0 Multiplicity = 2

                          Input orientation:
 ---------------------------------------------------------------------
 Center     Atomic      Atomic             Coordinates (Angstroms)
 Number     Number       Type             X           Y           Z
 ---------------------------------------------------------------------
      1          1           0        0.000000    0.000000    0.000000
      2          1           0       -3.800000    0.000000    0.000000
      3          9           0        1.800000    0.000000    0.000000
 ---------------------------------------------------------------------

 SCF Done:  E(UB3LYP) =  -100.797062347     a.u. after   10 cycles

 Alpha  occ. eigenvalues --  -24.64194  -1.08626  -0.40058  -0.35876  -0.35876
 Alpha  occ. eigenvalues --   -0.33791
 Alpha virt. eigenvalues --   -0.20490   0.19829   0.26975   0.92858   0.95659
 Alpha virt. eigenvalues --    0.95659   1.07821   1.23685   1.23712   1.23712
 Alpha virt. eigenvalues --    1.25976   1.25976   1.65585   2.11987   2.16428

  Beta  occ. eigenvalues --  -24.64199  -1.08639  -0.40060  -0.35880  -0.35880
  Beta virt. eigenvalues --   -0.20518  -0.06574   0.22431   0.38046   0.92881
  Beta virt. eigenvalues --    0.95662   0.95662   1.07824   1.26026   1.26026
  Beta virt. eigenvalues --    1.45891   1.46267   1.46267   1.65628   2.14760

 Mulliken charges and spin densities:
               1          2
     1  H    0.314296   0.002828
     2  H    0.001362   0.998581
     3  F   -0.315659  -0.001409
 Sum of Mulliken charges =   0.00000   1.00000

 Dipole moment (field-independent basis, Debye):
    X=             -2.8463    Y=              0.0000    Z=              0.0000  Tot=              2.8463
 Quadrupole moment (field-independent basis, Debye-Ang):
   XX=            -11.0737   YY=             -7.4587   ZZ=             -7.4587
   XY=              0.0000   XZ=              0.0000   YZ=              0.0000

  Exact polarizability:      22.044       0.000       2.067      -0.000      -0.000       2.067
 Approx polarizability:      58.394       0.000       1.975      -0.000      -0.000       1.975

 ******    2 imaginary frequencies (negative Signs) ******

                      1                      2                      3
                      A                      A                      A
 Frequencies --  -1158.5410               -68.5911               801.2711
 Red. masses --      1.0578                 1.0538                 1.0289
 Frc consts  --      0.8365                 0.0029                 0.3892
 IR Inten    --     30.7902                 0.1926                96.2700

                      4
                      A
 Frequencies --    801.2711
 Red. masses --      1.0289
 Frc consts  --      0.3892
 IR Inten    --     96.2700

 - Thermochemistry -
 -------------------
 Temperature   298.150 Kelvin.  Pressure   1.00000 Atm.
 Atom     1 has atomic number  1 and mass   1.00783

 Molecular mass:    21.01405 amu.
 Principal axes and moments of inertia in atomic units:
                           1         2         3
     Eigenvalues --     0.00000 115.07374 115.07374
           X            1.00000  -0.00000   0.00000
           Y            0.00000   1.00000   0.00000
           Z            0.00000   0.00000   1.00000
 This molecule is a prolate symmetric top.
 Rotational symmetry number  1.
 Rotational temperature (Kelvin)      0.75268
 Rotational constant (GHZ):          15.683345
    2 imaginary frequencies ignored.
 Zero-point vibrational energy       9585.3 (Joules/Mol)
                                    2.29095 (Kcal/Mol)
 Vibrational temperatures:   1152.85  1152.85
          (Kelvin)

 Zero-point correction=                           0.003651 (Hartree/Particle)
 Thermal correction to Energy=                    0.006167
 Thermal correction to Enthalpy=                  0.007112
 Thermal correction to Gibbs Free Energy=        -0.016993
 Sum of electronic and zero-point Energies=           -100.793411
 Sum of electronic and thermal Energies=              -100.790895
 Sum of electronic and thermal Enthalpies=            -100.789951
 Sum of electronic and thermal Free Energies=         -100.814055

                     E (Thermal)             CV                S
                      KCal/Mol        Cal/Mol-Kelvin    Cal/Mol-Kelvin
 Total                    3.870              6.265             50.732
 Electronic               0.000              0.000              1.377
 Translational            0.889              2.981             35.068
 Rotational               0.592              1.987             13.874
 Vibrational              2.389              1.297              0.413

 Normal termination of Gaussian 16 at Fri Aug 22 16:45:13 2025.
