 Gaussian 16, Revision C.01,
 Gaussian 16:  ES64L-G16RevC.01  3-Jul-2019

 -----------------------------------------
 # sp b3lyp/6-311g** Force nosymm scf=(qc)
 -----------------------------------------

 -------------------
 Title Card Required
 -------------------
 Symbolic Z-matrix:
 Charge =  0 Multiplicity = 2

                          Input orientation:
 ---------------------------------------------------------------------
 Center     Atomic      Atomic             Coordinates (Angstroms)
 Number     Number       Type             X           Y           Z
 ---------------------------------------------------------------------
      1          1           0        0.000000    0.000000    0.000000
      2          1           0       -3.950000    0.000000    0.000000
      3          9           0        3.750000    0.000000    0.000000
 ---------------------------------------------------------------------

 SCF Done:  E(UB3LYP) =  -100.758545080     a.u. after   28 cycles

 Alpha  occ. eigenvalues --  -24.75703  -1.21643  -0.54828  -0.46034  -0.46034
 Alpha  occ. eigenvalues --   -0.32250
 Alpha virt. eigenvalues --   -0.05937   0.24179   0.37708   0.86948   0.91283
 Alpha virt. eigenvalues --    0.91283   1.01330   1.25245   1.25245   1.25270
 Alpha virt. eigenvalues --    1.46638   1.46638   1.47416   2.14599   2.42665

  Beta  occ. eigenvalues --  -24.72569  -1.12632  -0.42892  -0.42892  -0.32567
  Beta virt. eigenvalues --   -0.25644  -0.05844   0.23948   0.38211   0.92778
  Beta virt. eigenvalues --    0.92778   0.96226   1.05413   1.24893   1.24893
  Beta virt. eigenvalues --    1.24902   1.46673   1.46771   1.46771   2.14635

 Mulliken charges and spin densities:
               1          2
     1  H    0.005571  -0.993111
     2  H    0.000032   0.999292
     3  F   -0.005603   0.993819
 Sum of Mulliken charges =  -0.00000   1.00000

 Dipole moment (field-independent basis, Debye):
    X=             -0.1089    Y=              0.0000    Z=             -0.0000  Tot=              0.1089
 Quadrupole moment (field-independent basis, Debye-Ang):
   XX=             -7.1186   YY=             -7.6187   ZZ=             -7.6187
   XY=              0.0000   XZ=             -0.0000   YZ=             -0.0000

  Exact polarizability:      16.017       0.000       2.032      -0.000       0.000       2.032
 Approx polarizability:      11.861       0.000       1.936      -0.000       0.000       1.936

 ******    2 imaginary frequencies (negative Signs) ******

                      1                      2                      3
                      A                      A                      A
 Frequencies --   -166.8628               -65.9484                50.9748
 Red. masses --      1.0351                 1.0773                 1.0186
 Frc consts  --      0.0170                 0.0028                 0.0016
 IR Inten    --      4.0013                 0.2448                 0.0310

                      4
                      A
 Frequencies --     50.9748
 Red. masses --      1.0186
 Frc consts  --      0.0016
 IR Inten    --      0.0310

 - Thermochemistry -
 -------------------
 Temperature   298.150 Kelvin.  Pressure   1.00000 Atm.
 Atom     1 has atomic number  1 and mass   1.00783

 Molecular mass:    21.01405 amu.
 Principal axes and moments of inertia in atomic units:
                           1         2         3
     Eigenvalues --     0.00000 241.36708 241.36708
           X            1.00000  -0.00000   0.00000
           Y            0.00000   1.00000   0.00000
           Z            0.00000   0.00000   1.00000
 This molecule is a prolate symmetric top.
 Rotational symmetry number  1.
 Rotational temperature (Kelvin)      0.35885
 Rotational constant (GHZ):           7.477164
    2 imaginary frequencies ignored.
 Zero-point vibrational energy        609.8 (Joules/Mol)
                                    0.14574 (Kcal/Mol)
 Warning -- explicit consideration of   2 degrees of freedom as
           vibrations may cause significant error
 Vibrational temperatures:     73.34    73.34
          (Kelvin)

 Zero-point correction=                           0.000232 (Hartree/Particle)
 Thermal correction to Energy=                    0.004258
 Thermal correction to Enthalpy=                  0.005203
 Thermal correction to Gibbs Free Energy=        -0.023947
 Sum of electronic and zero-point Energies=           -100.758313
 Sum of electronic and thermal Energies=              -100.754287
 Sum of electronic and thermal Enthalpies=            -100.753343
 Sum of electronic and thermal Free Energies=         -100.782492

                     E (Thermal)             CV                S
                      KCal/Mol        Cal/Mol-Kelvin    Cal/Mol-Kelvin
 Total                    2.672              8.922             61.350
 Electronic               0.000              0.000              1.377
 Translational            0.889              2.981             35.068
 Rotational               0.592              1.987             15.346
 Vibrational              1.191              3.954              9.558
 Vibration     1          0.595              1.977              4.779
 Vibration     2          0.595              1.977              4.779

 Normal termination of Gaussian 16 at Sat Aug 23 00:28:39 2025.
