 Gaussian 16, Revision C.01,
 Gaussian 16:  ES64L-G16RevC.01  3-Jul-2019

 -----------------------------------------
 # sp b3lyp/6-311g** Force nosymm scf=(qc)
 -----------------------------------------

 -------------------
 Title Card Required
 -------------------
 Symbolic Z-matrix:
 Charge =  0 Multiplicity = 2

                          Input orientation:
 ---------------------------------------------------------------------
 Center     Atomic      Atomic             Coordinates (Angstroms)
 Number     Number       Type             X           Y           Z
 ---------------------------------------------------------------------
      1          1           0        0.000000    0.000000    0.000000
      2          1           0       -2.700000    0.000000    0.000000
      3          9           0        3.800000    0.000000    0.000000
 ---------------------------------------------------------------------

 SCF Done:  E(UB3LYP) =  -100.760942880     a.u. after   33 cycles

 Alpha  occ. eigenvalues --  -24.75780  -1.21715  -0.54905  -0.46100  -0.46100
 Alpha  occ. eigenvalues --   -0.32466
 Alpha virt. eigenvalues --   -0.08616   0.25517   0.35359   0.86849   0.91231
 Alpha virt. eigenvalues --    0.91231   1.01245   1.25121   1.25121   1.26460
 Alpha virt. eigenvalues --    1.42895   1.42895   1.43519   2.16059   2.38143

  Beta  occ. eigenvalues --  -24.72642  -1.12692  -0.42954  -0.42954  -0.32673
  Beta virt. eigenvalues --   -0.25691  -0.08329   0.25334   0.35765   0.92728
  Beta virt. eigenvalues --    0.92728   0.96168   1.05350   1.24888   1.24888
  Beta virt. eigenvalues --    1.26197   1.43326   1.43326   1.43948   2.16210

 Mulliken charges and spin densities:
               1          2
     1  H    0.003631  -0.977892
     2  H    0.000775   0.982849
     3  F   -0.004406   0.995043
 Sum of Mulliken charges =  -0.00000   1.00000

 Dipole moment (field-independent basis, Debye):
    X=             -0.0962    Y=              0.0000    Z=             -0.0000  Tot=              0.0962
 Quadrupole moment (field-independent basis, Debye-Ang):
   XX=             -6.8862   YY=             -7.6515   ZZ=             -7.6515
   XY=              0.0000   XZ=             -0.0000   YZ=              0.0000

  Exact polarizability:      20.805       0.000       2.024      -0.000       0.000       2.024
 Approx polarizability:      15.388       0.000       1.932      -0.000      -0.000       1.932

 ******    2 imaginary frequencies (negative Signs) ******

                      1                      2                      3
                      A                      A                      A
 Frequencies --   -501.3669               -95.3429               181.5557
 Red. masses --      1.0080                 1.1083                 1.0143
 Frc consts  --      0.1493                 0.0059                 0.0197
 IR Inten    --      1.6369                 1.6734                 0.0104

                      4
                      A
 Frequencies --    181.5557
 Red. masses --      1.0143
 Frc consts  --      0.0197
 IR Inten    --      0.0104

 - Thermochemistry -
 -------------------
 Temperature   298.150 Kelvin.  Pressure   1.00000 Atm.
 Atom     1 has atomic number  1 and mass   1.00783

 Molecular mass:    21.01405 amu.
 Principal axes and moments of inertia in atomic units:
                           1         2         3
     Eigenvalues --     0.00000 185.71593 185.71593
           X            1.00000  -0.00000   0.00000
           Y            0.00000   1.00000   0.00000
           Z            0.00000   0.00000   1.00000
 This molecule is a prolate symmetric top.
 Rotational symmetry number  1.
 Rotational temperature (Kelvin)      0.46638
 Rotational constant (GHZ):           9.717751
    2 imaginary frequencies ignored.
 Zero-point vibrational energy       2171.9 (Joules/Mol)
                                    0.51909 (Kcal/Mol)
 Warning -- explicit consideration of   2 degrees of freedom as
           vibrations may cause significant error
 Vibrational temperatures:    261.22   261.22
          (Kelvin)

 Zero-point correction=                           0.000827 (Hartree/Particle)
 Thermal correction to Energy=                    0.004368
 Thermal correction to Enthalpy=                  0.005312
 Thermal correction to Gibbs Free Energy=        -0.021245
 Sum of electronic and zero-point Energies=           -100.760116
 Sum of electronic and thermal Energies=              -100.756575
 Sum of electronic and thermal Enthalpies=            -100.755631
 Sum of electronic and thermal Free Energies=         -100.782188

                     E (Thermal)             CV                S
                      KCal/Mol        Cal/Mol-Kelvin    Cal/Mol-Kelvin
 Total                    2.741              8.698             55.895
 Electronic               0.000              0.000              1.377
 Translational            0.889              2.981             35.068
 Rotational               0.592              1.987             14.825
 Vibrational              1.260              3.730              4.625
 Vibration     1          0.630              1.865              2.312
 Vibration     2          0.630              1.865              2.312

 Normal termination of Gaussian 16 at Sat Aug 23 00:50:53 2025.
