 Gaussian 16, Revision C.01,
 Gaussian 16:  ES64L-G16RevC.01  3-Jul-2019

 -----------------------------------------
 # sp b3lyp/6-311g** Force nosymm scf=(qc)
 -----------------------------------------

 -------------------
 Title Card Required
 -------------------
 Symbolic Z-matrix:
 Charge =  0 Multiplicity = 2

                          Input orientation:
 ---------------------------------------------------------------------
 Center     Atomic      Atomic             Coordinates (Angstroms)
 Number     Number       Type             X           Y           Z
 ---------------------------------------------------------------------
      1          1           0        0.000000    0.000000    0.000000
      2          1           0       -4.000000    0.000000    0.000000
      3          9           0        1.550000    0.000000    0.000000
 ---------------------------------------------------------------------

 SCF Done:  E(UB3LYP) =  -100.843897454     a.u. after    8 cycles

 Alpha  occ. eigenvalues --  -24.64382  -1.09527  -0.42690  -0.36353  -0.36353
 Alpha  occ. eigenvalues --   -0.33594
 Alpha virt. eigenvalues --   -0.15661   0.20467   0.26785   0.93779   0.93779
 Alpha virt. eigenvalues --    1.02626   1.07565   1.23872   1.23912   1.23912
 Alpha virt. eigenvalues --    1.30423   1.30423   1.73112   2.12575   2.18301

  Beta  occ. eigenvalues --  -24.64312  -1.09342  -0.42541  -0.36287  -0.36287
  Beta virt. eigenvalues --   -0.15869  -0.06088   0.22781   0.38223   0.93746
  Beta virt. eigenvalues --    0.93746   1.02746   1.07537   1.30045   1.30045
  Beta virt. eigenvalues --    1.46558   1.46830   1.46830   1.72949   2.16495

 Mulliken charges and spin densities:
               1          2
     1  H    0.344817  -0.021487
     2  H    0.000567   0.999403
     3  F   -0.345384   0.022084
 Sum of Mulliken charges =  -0.00000   1.00000

 Dipole moment (field-independent basis, Debye):
    X=             -2.6356    Y=              0.0000    Z=             -0.0000  Tot=              2.6356
 Quadrupole moment (field-independent basis, Debye-Ang):
   XX=            -10.1567   YY=             -7.3472   ZZ=             -7.3472
   XY=             -0.0000   XZ=             -0.0000   YZ=              0.0000

  Exact polarizability:      15.733      -0.000       2.164       0.000       0.000       2.164
 Approx polarizability:      31.909       0.000       2.084      -0.000      -0.000       2.084

 ******    2 imaginary frequencies (negative Signs) ******

                      1                      2                      3
                      A                      A                      A
 Frequencies --  -1232.1923               -44.4323               984.5579
 Red. masses --      1.0579                 1.0536                 1.0322
 Frc consts  --      0.9464                 0.0012                 0.5895
 IR Inten    --     26.9386                 0.0271               115.9562

                      4
                      A
 Frequencies --    984.5579
 Red. masses --      1.0322
 Frc consts  --      0.5895
 IR Inten    --    115.9562

 - Thermochemistry -
 -------------------
 Temperature   298.150 Kelvin.  Pressure   1.00000 Atm.
 Atom     1 has atomic number  1 and mass   1.00783

 Molecular mass:    21.01405 amu.
 Principal axes and moments of inertia in atomic units:
                           1         2         3
     Eigenvalues --     0.00000 110.80396 110.80396
           X            1.00000  -0.00000   0.00000
           Y            0.00000   1.00000   0.00000
           Z            0.00000   0.00000   1.00000
 This molecule is a prolate symmetric top.
 Rotational symmetry number  1.
 Rotational temperature (Kelvin)      0.78169
 Rotational constant (GHZ):          16.287695
    2 imaginary frequencies ignored.
 Zero-point vibrational energy      11777.9 (Joules/Mol)
                                    2.81499 (Kcal/Mol)
 Vibrational temperatures:   1416.56  1416.56
          (Kelvin)

 Zero-point correction=                           0.004486 (Hartree/Particle)
 Thermal correction to Energy=                    0.006925
 Thermal correction to Enthalpy=                  0.007869
 Thermal correction to Gibbs Free Energy=        -0.016098
 Sum of electronic and zero-point Energies=           -100.839411
 Sum of electronic and thermal Energies=              -100.836973
 Sum of electronic and thermal Enthalpies=            -100.836029
 Sum of electronic and thermal Free Energies=         -100.859996

                     E (Thermal)             CV                S
                      KCal/Mol        Cal/Mol-Kelvin    Cal/Mol-Kelvin
 Total                    4.345              5.757             50.443
 Electronic               0.000              0.000              1.377
 Translational            0.889              2.981             35.068
 Rotational               0.592              1.987             13.799
 Vibrational              2.864              0.789              0.199

 Normal termination of Gaussian 16 at Fri Aug 22 16:29:49 2025.
