 Gaussian 16, Revision C.01,
 Gaussian 16:  ES64L-G16RevC.01  3-Jul-2019

 -----------------------------------------
 # sp b3lyp/6-311g** Force nosymm scf=(qc)
 -----------------------------------------

 -------------------
 Title Card Required
 -------------------
 Symbolic Z-matrix:
 Charge =  0 Multiplicity = 2

                          Input orientation:
 ---------------------------------------------------------------------
 Center     Atomic      Atomic             Coordinates (Angstroms)
 Number     Number       Type             X           Y           Z
 ---------------------------------------------------------------------
      1          1           0        0.000000    0.000000    0.000000
      2          1           0       -3.350000    0.000000    0.000000
      3          9           0        3.350000    0.000000    0.000000
 ---------------------------------------------------------------------

 SCF Done:  E(UB3LYP) =  -100.759645889     a.u. after   24 cycles

 Alpha  occ. eigenvalues --  -24.75098  -1.21082  -0.54220  -0.45524  -0.45524
 Alpha  occ. eigenvalues --   -0.32414
 Alpha virt. eigenvalues --   -0.07509   0.24383   0.36500   0.88113   0.91659
 Alpha virt. eigenvalues --    0.91659   1.02273   1.25097   1.25097   1.25355
 Alpha virt. eigenvalues --    1.44614   1.44614   1.44621   2.15184   2.40677

  Beta  occ. eigenvalues --  -24.72003  -1.12193  -0.42422  -0.42422  -0.33044
  Beta virt. eigenvalues --   -0.25333  -0.06763   0.24164   0.37667   0.93143
  Beta virt. eigenvalues --    0.93143   0.97147   1.06222   1.24368   1.24368
  Beta virt. eigenvalues --    1.24609   1.45548   1.45790   1.45790   2.15502

 Mulliken charges and spin densities:
               1          2
     1  H    0.016649  -0.978263
     2  H    0.000360   0.996950
     3  F   -0.017009   0.981313
 Sum of Mulliken charges =  -0.00000   1.00000

 Dipole moment (field-independent basis, Debye):
    X=             -0.2987    Y=              0.0000    Z=              0.0000  Tot=              0.2987
 Quadrupole moment (field-independent basis, Debye-Ang):
   XX=             -7.6170   YY=             -7.6223   ZZ=             -7.6223
   XY=             -0.0000   XZ=             -0.0000   YZ=              0.0000

  Exact polarizability:      27.777      -0.000       2.030      -0.000       0.000       2.030
 Approx polarizability:      23.382      -0.000       1.931      -0.000      -0.000       1.931

 ******    2 imaginary frequencies (negative Signs) ******

                      1                      2                      3
                      A                      A                      A
 Frequencies --   -294.7768              -123.6646                97.7755
 Red. masses --      1.0275                 1.0857                 1.0179
 Frc consts  --      0.0526                 0.0098                 0.0057
 IR Inten    --     16.4402                 2.0512                 0.2479

                      4
                      A
 Frequencies --     97.7755
 Red. masses --      1.0179
 Frc consts  --      0.0057
 IR Inten    --      0.2479

 - Thermochemistry -
 -------------------
 Temperature   298.150 Kelvin.  Pressure   1.00000 Atm.
 Atom     1 has atomic number  1 and mass   1.00783

 Molecular mass:    21.01405 amu.
 Principal axes and moments of inertia in atomic units:
                           1         2         3
     Eigenvalues --     0.00000 184.51564 184.51564
           X            1.00000  -0.00000   0.00000
           Y            0.00000   1.00000   0.00000
           Z            0.00000   0.00000   1.00000
 This molecule is a prolate symmetric top.
 Rotational symmetry number  1.
 Rotational temperature (Kelvin)      0.46941
 Rotational constant (GHZ):           9.780966
    2 imaginary frequencies ignored.
 Zero-point vibrational energy       1169.7 (Joules/Mol)
                                    0.27955 (Kcal/Mol)
 Warning -- explicit consideration of   2 degrees of freedom as
           vibrations may cause significant error
 Vibrational temperatures:    140.68   140.68
          (Kelvin)

 Zero-point correction=                           0.000445 (Hartree/Particle)
 Thermal correction to Energy=                    0.004284
 Thermal correction to Enthalpy=                  0.005228
 Thermal correction to Gibbs Free Energy=        -0.022451
 Sum of electronic and zero-point Energies=           -100.759200
 Sum of electronic and thermal Energies=              -100.755362
 Sum of electronic and thermal Enthalpies=            -100.754418
 Sum of electronic and thermal Free Energies=         -100.782096

                     E (Thermal)             CV                S
                      KCal/Mol        Cal/Mol-Kelvin    Cal/Mol-Kelvin
 Total                    2.688              8.869             58.254
 Electronic               0.000              0.000              1.377
 Translational            0.889              2.981             35.068
 Rotational               0.592              1.987             14.812
 Vibrational              1.207              3.901              6.996
 Vibration     1          0.603              1.951              3.498
 Vibration     2          0.603              1.951              3.498

 Normal termination of Gaussian 16 at Fri Aug 22 21:03:02 2025.
