 Gaussian 16, Revision C.01,
 Gaussian 16:  ES64L-G16RevC.01  3-Jul-2019

 -----------------------------------------
 # sp b3lyp/6-311g** Force nosymm scf=(qc)
 -----------------------------------------

 -------------------
 Title Card Required
 -------------------
 Symbolic Z-matrix:
 Charge =  0 Multiplicity = 2

                          Input orientation:
 ---------------------------------------------------------------------
 Center     Atomic      Atomic             Coordinates (Angstroms)
 Number     Number       Type             X           Y           Z
 ---------------------------------------------------------------------
      1          1           0        0.000000    0.000000    0.000000
      2          1           0       -2.800000    0.000000    0.000000
      3          9           0        0.550000    0.000000    0.000000
 ---------------------------------------------------------------------

 SCF Done:  E(UB3LYP) =  -100.519316543     a.u. after    6 cycles

 Alpha  occ. eigenvalues --  -24.62681  -1.38413  -0.62252  -0.43616  -0.43616
 Alpha  occ. eigenvalues --   -0.33873
 Alpha virt. eigenvalues --    0.08437   0.25695   0.60654   0.91224   0.91235
 Alpha virt. eigenvalues --    0.91235   1.21109   1.23661   1.23661   1.41986
 Alpha virt. eigenvalues --    1.54149   1.54149   1.96867   2.14835   3.65575

  Beta  occ. eigenvalues --  -24.62678  -1.38404  -0.62247  -0.43615  -0.43615
  Beta virt. eigenvalues --   -0.06652   0.09534   0.38928   0.60503   0.91228
  Beta virt. eigenvalues --    0.91228   0.91265   1.33863   1.48929   1.48929
  Beta virt. eigenvalues --    1.54018   1.54152   1.54152   1.96500   2.44700

 Mulliken charges and spin densities:
               1          2
     1  H    0.196864   0.001753
     2  H    0.002701   0.996585
     3  F   -0.199565   0.001661
 Sum of Mulliken charges =   0.00000   1.00000

 Dipole moment (field-independent basis, Debye):
    X=             -1.3941    Y=             -0.0000    Z=              0.0000  Tot=              1.3941
 Quadrupole moment (field-independent basis, Debye-Ang):
   XX=             -6.7099   YY=             -6.4937   ZZ=             -6.4937
   XY=             -0.0000   XZ=              0.0000   YZ=              0.0000

  Exact polarizability:       4.049      -0.000       2.441      -0.000      -0.000       2.441
 Approx polarizability:       4.123       0.000       2.422       0.000      -0.000       2.422

 ******    2 imaginary frequencies (negative Signs) ******

                      1                      2                      3
                      A                      A                      A
 Frequencies --  -7479.0298             -7479.0298                57.9925
 Red. masses --      1.0422                 1.0422                 1.0532
 Frc consts  --     34.3472                34.3472                 0.0021
 IR Inten    --    249.9263               249.9263                 0.1063

                      4
                      A
 Frequencies --  15777.8826
 Red. masses --      1.0583
 Frc consts  --    155.2248
 IR Inten    --     94.0976

 - Thermochemistry -
 -------------------
 Temperature   298.150 Kelvin.  Pressure   1.00000 Atm.
 Atom     1 has atomic number  1 and mass   1.00783

 Molecular mass:    21.01405 amu.
 Principal axes and moments of inertia in atomic units:
                           1         2         3
     Eigenvalues --     0.00000  38.85322  38.85322
           X            1.00000  -0.00000   0.00000
           Y            0.00000   1.00000   0.00000
           Z            0.00000   0.00000   1.00000
 This molecule is a prolate symmetric top.
 Rotational symmetry number  1.
 Rotational temperature (Kelvin)      2.22926
 Rotational constant (GHZ):          46.450232
    2 imaginary frequencies ignored.
 Zero-point vibrational energy      94719.6 (Joules/Mol)
                                   22.63852 (Kcal/Mol)
 Warning -- explicit consideration of   1 degrees of freedom as
           vibrations may cause significant error
 Vibrational temperatures:     83.44 22700.85
          (Kelvin)

 Zero-point correction=                           0.036077 (Hartree/Particle)
 Thermal correction to Energy=                    0.039255
 Thermal correction to Enthalpy=                  0.040200
 Thermal correction to Gibbs Free Energy=         0.015167
 Sum of electronic and zero-point Energies=           -100.483240
 Sum of electronic and thermal Energies=              -100.480061
 Sum of electronic and thermal Enthalpies=            -100.479117
 Sum of electronic and thermal Free Energies=         -100.504150

                     E (Thermal)             CV                S
                      KCal/Mol        Cal/Mol-Kelvin    Cal/Mol-Kelvin
 Total                   24.633              6.942             52.686
 Electronic               0.000              0.000              1.377
 Translational            0.889              2.981             35.068
 Rotational               0.592              1.987             11.716
 Vibrational             23.152              1.974              4.524
 Vibration     1          0.596              1.974              4.524

 Normal termination of Gaussian 16 at Fri Aug 22 15:39:52 2025.
