 Gaussian 16, Revision C.01,
 Gaussian 16:  ES64L-G16RevC.01  3-Jul-2019

 -----------------------------------------
 # sp b3lyp/6-311g** Force nosymm scf=(qc)
 -----------------------------------------

 -------------------
 Title Card Required
 -------------------
 Symbolic Z-matrix:
 Charge =  0 Multiplicity = 2

                          Input orientation:
 ---------------------------------------------------------------------
 Center     Atomic      Atomic             Coordinates (Angstroms)
 Number     Number       Type             X           Y           Z
 ---------------------------------------------------------------------
      1          1           0        0.000000    0.000000    0.000000
      2          1           0       -1.000000    0.000000    0.000000
      3          9           0        2.200000    0.000000    0.000000
 ---------------------------------------------------------------------

 SCF Done:  E(UB3LYP) =  -100.908791479     a.u. after    9 cycles

 Alpha  occ. eigenvalues --  -24.74696  -1.20745  -0.54132  -0.45229  -0.45229
 Alpha  occ. eigenvalues --   -0.40465
 Alpha virt. eigenvalues --    0.00462   0.21322   0.38905   0.89272   0.91389
 Alpha virt. eigenvalues --    0.91389   1.07682   1.07682   1.10799   1.42640
 Alpha virt. eigenvalues --    1.64303   1.64303   2.21005   2.35059   2.58732

  Beta  occ. eigenvalues --  -24.71678  -1.12125  -0.42215  -0.42215  -0.40310
  Beta virt. eigenvalues --   -0.25704   0.01324   0.21807   0.39319   0.92790
  Beta virt. eigenvalues --    0.92790   0.97268   1.08245   1.08245   1.14164
  Beta virt. eigenvalues --    1.44202   1.64698   1.64698   2.21785   2.35608

 Mulliken charges and spin densities:
               1          2
     1  H    0.003166  -0.036377
     2  H    0.032223   0.085938
     3  F   -0.035390   0.950439
 Sum of Mulliken charges =   0.00000   1.00000

 Dipole moment (field-independent basis, Debye):
    X=             -0.5353    Y=             -0.0000    Z=             -0.0000  Tot=              0.5353
 Quadrupole moment (field-independent basis, Debye-Ang):
   XX=             -6.1687   YY=             -7.2326   ZZ=             -7.2326
   XY=             -0.0000   XZ=             -0.0000   YZ=              0.0000

  Exact polarizability:      27.969      -0.000       2.130       0.000      -0.000       2.130
 Approx polarizability:      33.696      -0.000       2.158       0.000      -0.000       2.158

 ******    1 imaginary frequencies (negative Signs) ******

                      1                      2                      3
                      A                      A                      A
 Frequencies --   -318.4008              1469.4236              1469.4236
 Red. masses --      1.1077                 1.0112                 1.0112
 Frc consts  --      0.0662                 1.2864                 1.2864
 IR Inten    --     54.8715                 0.0647                 0.0647

                      4
                      A
 Frequencies --   1635.3457
 Red. masses --      1.0085
 Frc consts  --      1.5891
 IR Inten    --    319.6719

 - Thermochemistry -
 -------------------
 Temperature   298.150 Kelvin.  Pressure   1.00000 Atm.
 Atom     1 has atomic number  1 and mass   1.00783

 Molecular mass:    21.01405 amu.
 Principal axes and moments of inertia in atomic units:
                           1         2         3
     Eigenvalues --     0.00000  49.23983  49.23983
           X            1.00000  -0.00000   0.00000
           Y            0.00000   1.00000   0.00000
           Z            0.00000   0.00000   1.00000
 This molecule is a prolate symmetric top.
 Rotational symmetry number  1.
 Rotational temperature (Kelvin)      1.75902
 Rotational constant (GHZ):          36.652059
    1 imaginary frequencies ignored.
 Zero-point vibrational energy      27359.7 (Joules/Mol)
                                    6.53914 (Kcal/Mol)
 Vibrational temperatures:   2114.17  2114.17  2352.90
          (Kelvin)

 Zero-point correction=                           0.010421 (Hartree/Particle)
 Thermal correction to Energy=                    0.012795
 Thermal correction to Enthalpy=                  0.013739
 Thermal correction to Gibbs Free Energy=        -0.009383
 Sum of electronic and zero-point Energies=           -100.898371
 Sum of electronic and thermal Energies=              -100.895996
 Sum of electronic and thermal Enthalpies=            -100.895052
 Sum of electronic and thermal Free Energies=         -100.918175

                     E (Thermal)             CV                S
                      KCal/Mol        Cal/Mol-Kelvin    Cal/Mol-Kelvin
 Total                    8.029              5.181             48.666
 Electronic               0.000              0.000              1.377
 Translational            0.889              2.981             35.068
 Rotational               0.592              1.987             12.187
 Vibrational              6.548              0.213              0.033

 Normal termination of Gaussian 16 at Fri Aug 22 17:10:41 2025.
