 Gaussian 16, Revision C.01,
 Gaussian 16:  ES64L-G16RevC.01  3-Jul-2019

 -----------------------------------------
 # sp b3lyp/6-311g** Force nosymm scf=(qc)
 -----------------------------------------

 -------------------
 Title Card Required
 -------------------
 Symbolic Z-matrix:
 Charge =  0 Multiplicity = 2

                          Input orientation:
 ---------------------------------------------------------------------
 Center     Atomic      Atomic             Coordinates (Angstroms)
 Number     Number       Type             X           Y           Z
 ---------------------------------------------------------------------
      1          1           0        0.000000    0.000000    0.000000
      2          1           0       -1.750000    0.000000    0.000000
      3          9           0        1.250000    0.000000    0.000000
 ---------------------------------------------------------------------

 SCF Done:  E(UB3LYP) =  -100.918300374     a.u. after    8 cycles

 Alpha  occ. eigenvalues --  -24.63469  -1.11195  -0.47633  -0.37357  -0.36599
 Alpha  occ. eigenvalues --   -0.36599
 Alpha virt. eigenvalues --   -0.03071   0.22278   0.28493   0.93722   0.93722
 Alpha virt. eigenvalues --    1.01667   1.06112   1.18616   1.18616   1.36666
 Alpha virt. eigenvalues --    1.36666   1.50189   1.73725   2.16637   2.34473

  Beta  occ. eigenvalues --  -24.63113  -1.10288  -0.45688  -0.36272  -0.36272
  Beta virt. eigenvalues --   -0.17124   0.00500   0.26926   0.32075   0.93734
  Beta virt. eigenvalues --    0.93734   1.02656   1.13748   1.30870   1.30870
  Beta virt. eigenvalues --    1.40463   1.40463   1.55668   1.78333   2.26463

 Mulliken charges and spin densities:
               1          2
     1  H    0.320795  -0.033558
     2  H    0.044148   0.926907
     3  F   -0.364943   0.106651
 Sum of Mulliken charges =  -0.00000   1.00000

 Dipole moment (field-independent basis, Debye):
    X=             -2.7688    Y=              0.0000    Z=              0.0000  Tot=              2.7688
 Quadrupole moment (field-independent basis, Debye-Ang):
   XX=             -8.1884   YY=             -7.0855   ZZ=             -7.0855
   XY=              0.0000   XZ=              0.0000   YZ=              0.0000

  Exact polarizability:      19.349      -0.000       2.381       0.000      -0.000       2.381
 Approx polarizability:      24.529      -0.000       2.344       0.000      -0.000       2.344

 ******    1 imaginary frequencies (negative Signs) ******

                      1                      2                      3
                      A                      A                      A
 Frequencies --  -1219.5908               343.2447              1130.1600
 Red. masses --      1.0170                 1.0976                 1.0225
 Frc consts  --      0.8913                 0.0762                 0.7695
 IR Inten    --    177.4871                23.4273                84.0928

                      4
                      A
 Frequencies --   1130.1600
 Red. masses --      1.0225
 Frc consts  --      0.7695
 IR Inten    --     84.0928

 - Thermochemistry -
 -------------------
 Temperature   298.150 Kelvin.  Pressure   1.00000 Atm.
 Atom     1 has atomic number  1 and mass   1.00783

 Molecular mass:    21.01405 amu.
 Principal axes and moments of inertia in atomic units:
                           1         2         3
     Eigenvalues --     0.00000  34.89682  34.89682
           X            1.00000  -0.00000   0.00000
           Y            0.00000   1.00000   0.00000
           Z            0.00000   0.00000   1.00000
 This molecule is a prolate symmetric top.
 Rotational symmetry number  1.
 Rotational temperature (Kelvin)      2.48200
 Rotational constant (GHZ):          51.716502
    1 imaginary frequencies ignored.
 Zero-point vibrational energy      15572.8 (Joules/Mol)
                                    3.72198 (Kcal/Mol)
 Warning -- explicit consideration of   1 degrees of freedom as
           vibrations may cause significant error
 Vibrational temperatures:    493.85  1626.05  1626.05
          (Kelvin)

 Zero-point correction=                           0.005931 (Hartree/Particle)
 Thermal correction to Energy=                    0.008705
 Thermal correction to Enthalpy=                  0.009649
 Thermal correction to Gibbs Free Energy=        -0.013754
 Sum of electronic and zero-point Energies=           -100.912369
 Sum of electronic and thermal Energies=              -100.909595
 Sum of electronic and thermal Enthalpies=            -100.908651
 Sum of electronic and thermal Free Energies=         -100.932054

                     E (Thermal)             CV                S
                      KCal/Mol        Cal/Mol-Kelvin    Cal/Mol-Kelvin
 Total                    5.462              7.067             49.256
 Electronic               0.000              0.000              1.377
 Translational            0.889              2.981             35.068
 Rotational               0.592              1.987             11.503
 Vibrational              3.981              2.099              1.307
 Vibration     1          0.722              1.589              1.197

 Normal termination of Gaussian 16 at Fri Aug 22 16:12:25 2025.
