 Gaussian 16, Revision C.01,
 Gaussian 16:  ES64L-G16RevC.01  3-Jul-2019

 -----------------------------------------
 # sp b3lyp/6-311g** Force nosymm scf=(qc)
 -----------------------------------------

 -------------------
 Title Card Required
 -------------------
 Symbolic Z-matrix:
 Charge =  0 Multiplicity = 2

                          Input orientation:
 ---------------------------------------------------------------------
 Center     Atomic      Atomic             Coordinates (Angstroms)
 Number     Number       Type             X           Y           Z
 ---------------------------------------------------------------------
      1          1           0        0.000000    0.000000    0.000000
      2          1           0       -1.300000    0.000000    0.000000
      3          9           0        3.200000    0.000000    0.000000
 ---------------------------------------------------------------------

 SCF Done:  E(UB3LYP) =  -100.854168147     a.u. after  154 cycles

 Alpha  occ. eigenvalues --  -24.76556  -1.22400  -0.55594  -0.46816  -0.46746
 Alpha  occ. eigenvalues --   -0.35200
 Alpha virt. eigenvalues --   -0.06051   0.23628   0.32749   0.85837   0.90711
 Alpha virt. eigenvalues --    0.92889   1.02386   1.15444   1.15448   1.15807
 Alpha virt. eigenvalues --    1.49544   1.49549   1.99156   2.29126   2.53413

  Beta  occ. eigenvalues --  -24.73397  -1.13319  -0.43652  -0.43579  -0.35194
  Beta virt. eigenvalues --   -0.26227  -0.06041   0.23644   0.32804   0.92210
  Beta virt. eigenvalues --    0.94465   0.95298   1.06382   1.15443   1.15448
  Beta virt. eigenvalues --    1.15819   1.49543   1.49548   1.99165   2.29128

 Mulliken charges and spin densities:
               1          2
     1  H   -0.000525  -0.000009
     2  H   -0.004911  -0.000679
     3  F    0.005436   1.000688
 Sum of Mulliken charges =  -0.00000   1.00000

 Dipole moment (field-independent basis, Debye):
    X=              0.0802    Y=              0.0000    Z=             -0.0000  Tot=              0.0802
 Quadrupole moment (field-independent basis, Debye-Ang):
   XX=             -6.1892   YY=             -7.4142   ZZ=             -6.9169
   XY=              0.0000   XZ=              0.0000   YZ=              0.3532

  Exact polarizability:      18.487       0.000       2.171      -0.000       0.189       2.438
 Approx polarizability:      29.774       0.000       2.212       0.000       0.238       2.547

 ******    1 imaginary frequencies (negative Signs) ******

                      1                      2                      3
                      A                      A                      A
 Frequencies --   -969.2430                36.3975              1392.6603
 Red. masses --      1.0078                 1.1085                 1.0106
 Frc consts  --      0.5578                 0.0009                 1.1549
 IR Inten    --      0.5321                 0.3715                 0.0022

                      4
                      A
 Frequencies --   1393.6733
 Red. masses --      1.0106
 Frc consts  --      1.1566
 IR Inten    --      0.0022

 - Thermochemistry -
 -------------------
 Temperature   298.150 Kelvin.  Pressure   1.00000 Atm.
 Atom     1 has atomic number  1 and mass   1.00783

 Molecular mass:    21.01405 amu.
 Principal axes and moments of inertia in atomic units:
                           1         2         3
     Eigenvalues --     0.00000  99.49991  99.49991
           X            1.00000  -0.00000   0.00000
           Y            0.00000   1.00000   0.00000
           Z            0.00000   0.00000   1.00000
 This molecule is a prolate symmetric top.
 Rotational symmetry number  1.
 Rotational temperature (Kelvin)      0.87049
 Rotational constant (GHZ):          18.138120
    1 imaginary frequencies ignored.
 Zero-point vibrational energy      16883.7 (Joules/Mol)
                                    4.03530 (Kcal/Mol)
 Warning -- explicit consideration of   1 degrees of freedom as
           vibrations may cause significant error
 Vibrational temperatures:     52.37  2003.73  2005.19
          (Kelvin)

 Zero-point correction=                           0.006431 (Hartree/Particle)
 Thermal correction to Energy=                    0.009670
 Thermal correction to Enthalpy=                  0.010614
 Thermal correction to Gibbs Free Energy=        -0.015762
 Sum of electronic and zero-point Energies=           -100.847737
 Sum of electronic and thermal Energies=              -100.844498
 Sum of electronic and thermal Enthalpies=            -100.843554
 Sum of electronic and thermal Free Energies=         -100.869930

                     E (Thermal)             CV                S
                      KCal/Mol        Cal/Mol-Kelvin    Cal/Mol-Kelvin
 Total                    6.068              7.167             55.514
 Electronic               0.000              0.000              1.377
 Translational            0.889              2.981             35.068
 Rotational               0.592              1.987             13.585
 Vibrational              4.587              2.199              5.483
 Vibration     1          0.594              1.982              5.446

 Normal termination of Gaussian 16 at Fri Aug 22 20:20:33 2025.
