 Gaussian 16, Revision C.01,
 Gaussian 16:  ES64L-G16RevC.01  3-Jul-2019

 -----------------------------------------
 # sp b3lyp/6-311g** Force nosymm scf=(qc)
 -----------------------------------------

 -------------------
 Title Card Required
 -------------------
 Symbolic Z-matrix:
 Charge =  0 Multiplicity = 2

                          Input orientation:
 ---------------------------------------------------------------------
 Center     Atomic      Atomic             Coordinates (Angstroms)
 Number     Number       Type             X           Y           Z
 ---------------------------------------------------------------------
      1          1           0        0.000000    0.000000    0.000000
      2          1           0       -2.600000    0.000000    0.000000
      3          9           0        2.400000    0.000000    0.000000
 ---------------------------------------------------------------------

 SCF Done:  E(UB3LYP) =  -100.772613695     a.u. after   18 cycles

 Alpha  occ. eigenvalues --  -24.71122  -1.17365  -0.50210  -0.42185  -0.42185
 Alpha  occ. eigenvalues --   -0.33811
 Alpha virt. eigenvalues --   -0.12081   0.24550   0.33150   0.89691   0.93943
 Alpha virt. eigenvalues --    0.93943   1.06673   1.23806   1.23806   1.26324
 Alpha virt. eigenvalues --    1.37926   1.37926   1.44996   2.14818   2.32860

  Beta  occ. eigenvalues --  -24.68340  -1.09463  -0.39416  -0.39416  -0.35731
  Beta virt. eigenvalues --   -0.22965  -0.09269   0.25524   0.35101   0.95252
  Beta virt. eigenvalues --    0.95252   0.95607   1.09137   1.22013   1.22013
  Beta virt. eigenvalues --    1.33305   1.42253   1.42253   1.43553   2.13945

 Mulliken charges and spin densities:
               1          2
     1  H    0.095289  -0.856143
     2  H    0.009673   0.977748
     3  F   -0.104962   0.878395
 Sum of Mulliken charges =  -0.00000   1.00000

 Dipole moment (field-independent basis, Debye):
    X=             -1.3966    Y=             -0.0000    Z=             -0.0000  Tot=              1.3966
 Quadrupole moment (field-independent basis, Debye-Ang):
   XX=             -9.0706   YY=             -7.5909   ZZ=             -7.5909
   XY=             -0.0000   XZ=             -0.0000   YZ=              0.0000

  Exact polarizability:      40.218      -0.000       2.021      -0.000      -0.000       2.021
 Approx polarizability:      45.602      -0.000       1.919      -0.000       0.000       1.919

 ******    2 imaginary frequencies (negative Signs) ******

                      1                      2                      3
                      A                      A                      A
 Frequencies --   -811.3762              -329.5068               326.7406
 Red. masses --      1.0301                 1.0828                 1.0189
 Frc consts  --      0.3995                 0.0693                 0.0641
 IR Inten    --     68.6006                16.5833                 7.7016

                      4
                      A
 Frequencies --    326.7406
 Red. masses --      1.0189
 Frc consts  --      0.0641
 IR Inten    --      7.7016

 - Thermochemistry -
 -------------------
 Temperature   298.150 Kelvin.  Pressure   1.00000 Atm.
 Atom     1 has atomic number  1 and mass   1.00783

 Molecular mass:    21.01405 amu.
 Principal axes and moments of inertia in atomic units:
                           1         2         3
     Eigenvalues --     0.00000 101.25355 101.25355
           X            1.00000  -0.00000   0.00000
           Y            0.00000   1.00000   0.00000
           Z            0.00000   0.00000   1.00000
 This molecule is a prolate symmetric top.
 Rotational symmetry number  1.
 Rotational temperature (Kelvin)      0.85542
 Rotational constant (GHZ):          17.823980
    2 imaginary frequencies ignored.
 Zero-point vibrational energy       3908.7 (Joules/Mol)
                                    0.93420 (Kcal/Mol)
 Warning -- explicit consideration of   2 degrees of freedom as
           vibrations may cause significant error
 Vibrational temperatures:    470.11   470.11
          (Kelvin)

 Zero-point correction=                           0.001489 (Hartree/Particle)
 Thermal correction to Energy=                    0.004625
 Thermal correction to Enthalpy=                  0.005569
 Thermal correction to Gibbs Free Energy=        -0.019431
 Sum of electronic and zero-point Energies=           -100.771125
 Sum of electronic and thermal Energies=              -100.767989
 Sum of electronic and thermal Enthalpies=            -100.767045
 Sum of electronic and thermal Free Energies=         -100.792045

                     E (Thermal)             CV                S
                      KCal/Mol        Cal/Mol-Kelvin    Cal/Mol-Kelvin
 Total                    2.902              8.212             52.618
 Electronic               0.000              0.000              1.377
 Translational            0.889              2.981             35.068
 Rotational               0.592              1.987             13.620
 Vibrational              1.421              3.244              2.552
 Vibration     1          0.710              1.622              1.276
 Vibration     2          0.710              1.622              1.276

 Normal termination of Gaussian 16 at Fri Aug 22 17:32:43 2025.
