 Gaussian 16, Revision C.01,
 Gaussian 16:  ES64L-G16RevC.01  3-Jul-2019

 -----------------------------------------
 # sp b3lyp/6-311g** Force nosymm scf=(qc)
 -----------------------------------------

 -------------------
 Title Card Required
 -------------------
 Symbolic Z-matrix:
 Charge =  0 Multiplicity = 2

                          Input orientation:
 ---------------------------------------------------------------------
 Center     Atomic      Atomic             Coordinates (Angstroms)
 Number     Number       Type             X           Y           Z
 ---------------------------------------------------------------------
      1          1           0        0.000000    0.000000    0.000000
      2          1           0       -0.800000    0.000000    0.000000
      3          9           0        3.300000    0.000000    0.000000
 ---------------------------------------------------------------------

 SCF Done:  E(UB3LYP) =  -100.932308691     a.u. after   76 cycles

 Alpha  occ. eigenvalues --  -24.76453  -1.22292  -0.55489  -0.46704  -0.46641
 Alpha  occ. eigenvalues --   -0.42110
 Alpha virt. eigenvalues --    0.04859   0.20156   0.44826   0.85940   0.90815
 Alpha virt. eigenvalues --    0.93316   1.02924   1.08346   1.08350   1.52464
 Alpha virt. eigenvalues --    1.79012   1.79017   2.05387   2.38314   3.05451

  Beta  occ. eigenvalues --  -24.73294  -1.13210  -0.43576  -0.43474  -0.42069
  Beta virt. eigenvalues --   -0.26122   0.04882   0.20172   0.44899   0.92314
  Beta virt. eigenvalues --    0.94926   0.95402   1.06856   1.08345   1.08349
  Beta virt. eigenvalues --    1.52474   1.79011   1.79016   2.05410   2.38317

 Mulliken charges and spin densities:
               1          2
     1  H   -0.002780  -0.000644
     2  H   -0.002997  -0.000056
     3  F    0.005777   1.000700
 Sum of Mulliken charges =   0.00000   1.00000

 Dipole moment (field-independent basis, Debye):
    X=              0.0649    Y=             -0.0000    Z=             -0.0000  Tot=              0.0649
 Quadrupole moment (field-independent basis, Debye-Ang):
   XX=             -6.1574   YY=             -6.8626   ZZ=             -6.3220
   XY=             -0.0000   XZ=             -0.0000   YZ=              0.3370

  Exact polarizability:       9.139      -0.000       2.071      -0.000       0.181       2.360
 Approx polarizability:      10.713      -0.000       2.165      -0.000       0.226       2.529

 ******    1 imaginary frequencies (negative Signs) ******

                      1                      2                      3
                      A                      A                      A
 Frequencies --     -7.1585              1075.9121              1077.0731
 Red. masses --      1.1085                 1.0090                 1.0090
 Frc consts  --      0.0000                 0.6882                 0.6897
 IR Inten    --      0.1940                 0.0023                 0.0018

                      4
                      A
 Frequencies --   3694.6607
 Red. masses --      1.0078
 Frc consts  --      8.1056
 IR Inten    --      0.1596

 - Thermochemistry -
 -------------------
 Temperature   298.150 Kelvin.  Pressure   1.00000 Atm.
 Atom     1 has atomic number  1 and mass   1.00783

 Molecular mass:    21.01405 amu.
 Principal axes and moments of inertia in atomic units:
                           1         2         3
     Eigenvalues --     0.00000  90.24058  90.24058
           X            1.00000  -0.00000   0.00000
           Y            0.00000   1.00000   0.00000
           Z            0.00000   0.00000   1.00000
 This molecule is a prolate symmetric top.
 Rotational symmetry number  1.
 Rotational temperature (Kelvin)      0.95981
 Rotational constant (GHZ):          19.999219
    1 imaginary frequencies ignored.
 Zero-point vibrational energy      34976.7 (Joules/Mol)
                                    8.35963 (Kcal/Mol)
 Vibrational temperatures:   1548.00  1549.67  5315.79
          (Kelvin)

 Zero-point correction=                           0.013322 (Hartree/Particle)
 Thermal correction to Energy=                    0.015737
 Thermal correction to Enthalpy=                  0.016681
 Thermal correction to Gibbs Free Energy=        -0.007063
 Sum of electronic and zero-point Energies=           -100.918987
 Sum of electronic and thermal Energies=              -100.916572
 Sum of electronic and thermal Enthalpies=            -100.915627
 Sum of electronic and thermal Free Energies=         -100.939372

                     E (Thermal)             CV                S
                      KCal/Mol        Cal/Mol-Kelvin    Cal/Mol-Kelvin
 Total                    9.875              5.569             49.974
 Electronic               0.000              0.000              1.377
 Translational            0.889              2.981             35.068
 Rotational               0.592              1.987             13.391
 Vibrational              8.394              0.601              0.137

 Normal termination of Gaussian 16 at Fri Aug 22 20:39:10 2025.
