 Gaussian 16, Revision C.01,
 Gaussian 16:  ES64L-G16RevC.01  3-Jul-2019

 -----------------------------------------
 # sp b3lyp/6-311g** Force nosymm scf=(qc)
 -----------------------------------------

 -------------------
 Title Card Required
 -------------------
 Symbolic Z-matrix:
 Charge =  0 Multiplicity = 2

                          Input orientation:
 ---------------------------------------------------------------------
 Center     Atomic      Atomic             Coordinates (Angstroms)
 Number     Number       Type             X           Y           Z
 ---------------------------------------------------------------------
      1          1           0        0.000000    0.000000    0.000000
      2          1           0       -2.550000    0.000000    0.000000
      3          9           0        3.550000    0.000000    0.000000
 ---------------------------------------------------------------------

 SCF Done:  E(UB3LYP) =  -100.762382401     a.u. after   28 cycles

 Alpha  occ. eigenvalues --  -24.75520  -1.21473  -0.54642  -0.45880  -0.45880
 Alpha  occ. eigenvalues --   -0.32622
 Alpha virt. eigenvalues --   -0.09317   0.25643   0.34535   0.87451   0.91395
 Alpha virt. eigenvalues --    0.91395   1.01661   1.25010   1.25010   1.26591
 Alpha virt. eigenvalues --    1.41697   1.41697   1.42992   2.15880   2.37155

  Beta  occ. eigenvalues --  -24.72399  -1.12503  -0.42751  -0.42751  -0.32911
  Beta virt. eigenvalues --   -0.25564  -0.08866   0.25444   0.35199   0.92886
  Beta virt. eigenvalues --    0.92886   0.96651   1.05715   1.24669   1.24669
  Beta virt. eigenvalues --    1.26186   1.42391   1.42391   1.43686   2.16311

 Mulliken charges and spin densities:
               1          2
     1  H    0.007434  -0.963554
     2  H    0.001845   0.973960
     3  F   -0.009279   0.989594
 Sum of Mulliken charges =   0.00000   1.00000

 Dipole moment (field-independent basis, Debye):
    X=             -0.1916    Y=              0.0000    Z=              0.0000  Tot=              0.1916
 Quadrupole moment (field-independent basis, Debye-Ang):
   XX=             -7.0726   YY=             -7.6613   ZZ=             -7.6613
   XY=             -0.0000   XZ=             -0.0000   YZ=              0.0000

  Exact polarizability:      30.622      -0.000       2.033      -0.000       0.000       2.033
 Approx polarizability:      22.897      -0.000       1.929      -0.000      -0.000       1.929

 ******    2 imaginary frequencies (negative Signs) ******

                      1                      2                      3
                      A                      A                      A
 Frequencies --   -624.3850              -132.8520               226.3258
 Red. masses --      1.0081                 1.1082                 1.0144
 Frc consts  --      0.2315                 0.0115                 0.0306
 IR Inten    --      5.0572                 5.0320                 0.0329

                      4
                      A
 Frequencies --    226.3259
 Red. masses --      1.0144
 Frc consts  --      0.0306
 IR Inten    --      0.0329

 - Thermochemistry -
 -------------------
 Temperature   298.150 Kelvin.  Pressure   1.00000 Atm.
 Atom     1 has atomic number  1 and mass   1.00783

 Molecular mass:    21.01405 amu.
 Principal axes and moments of inertia in atomic units:
                           1         2         3
     Eigenvalues --     0.00000 163.20203 163.20203
           X            1.00000  -0.00000   0.00000
           Y            0.00000   1.00000   0.00000
           Z            0.00000   0.00000   1.00000
 This molecule is a prolate symmetric top.
 Rotational symmetry number  1.
 Rotational temperature (Kelvin)      0.53072
 Rotational constant (GHZ):          11.058326
    2 imaginary frequencies ignored.
 Zero-point vibrational energy       2707.5 (Joules/Mol)
                                    0.64710 (Kcal/Mol)
 Warning -- explicit consideration of   2 degrees of freedom as
           vibrations may cause significant error
 Vibrational temperatures:    325.63   325.63
          (Kelvin)

 Zero-point correction=                           0.001031 (Hartree/Particle)
 Thermal correction to Energy=                    0.004433
 Thermal correction to Enthalpy=                  0.005377
 Thermal correction to Gibbs Free Energy=        -0.020674
 Sum of electronic and zero-point Energies=           -100.761351
 Sum of electronic and thermal Energies=              -100.757949
 Sum of electronic and thermal Enthalpies=            -100.757005
 Sum of electronic and thermal Free Energies=         -100.783057

                     E (Thermal)             CV                S
                      KCal/Mol        Cal/Mol-Kelvin    Cal/Mol-Kelvin
 Total                    2.782              8.570             54.830
 Electronic               0.000              0.000              1.377
 Translational            0.889              2.981             35.068
 Rotational               0.592              1.987             14.568
 Vibrational              1.300              3.602              3.816
 Vibration     1          0.650              1.801              1.908
 Vibration     2          0.650              1.801              1.908

 Normal termination of Gaussian 16 at Fri Aug 22 22:39:52 2025.
