 Gaussian 16, Revision C.01,
 Gaussian 16:  ES64L-G16RevC.01  3-Jul-2019

 -----------------------------------------
 # sp b3lyp/6-311g** Force nosymm scf=(qc)
 -----------------------------------------

 -------------------
 Title Card Required
 -------------------
 Symbolic Z-matrix:
 Charge =  0 Multiplicity = 2

                          Input orientation:
 ---------------------------------------------------------------------
 Center     Atomic      Atomic             Coordinates (Angstroms)
 Number     Number       Type             X           Y           Z
 ---------------------------------------------------------------------
      1          1           0        0.000000    0.000000    0.000000
      2          1           0       -2.850000    0.000000    0.000000
      3          9           0        1.150000    0.000000    0.000000
 ---------------------------------------------------------------------

 SCF Done:  E(UB3LYP) =  -100.937612672     a.u. after    6 cycles

 Alpha  occ. eigenvalues --  -24.64249  -1.12943  -0.48619  -0.37732  -0.37732
 Alpha  occ. eigenvalues --   -0.34592
 Alpha virt. eigenvalues --   -0.03720   0.24160   0.29546   0.93419   0.93419
 Alpha virt. eigenvalues --    1.00234   1.22521   1.22943   1.22943   1.30235
 Alpha virt. eigenvalues --    1.35011   1.35011   1.76312   2.14117   2.30864

  Beta  occ. eigenvalues --  -24.64233  -1.12903  -0.48560  -0.37717  -0.37717
  Beta virt. eigenvalues --   -0.09430  -0.01917   0.28951   0.37482   0.93419
  Beta virt. eigenvalues --    0.93419   1.00266   1.28705   1.34981   1.34981
  Beta virt. eigenvalues --    1.45426   1.45426   1.45989   1.76544   2.30812

 Mulliken charges and spin densities:
               1          2
     1  H    0.344780   0.000680
     2  H    0.004728   0.994213
     3  F   -0.349508   0.005107
 Sum of Mulliken charges =   0.00000   1.00000

 Dipole moment (field-independent basis, Debye):
    X=             -2.2861    Y=             -0.0000    Z=             -0.0000  Tot=              2.2861
 Quadrupole moment (field-independent basis, Debye-Ang):
   XX=             -8.5369   YY=             -7.0881   ZZ=             -7.0881
   XY=             -0.0000   XZ=             -0.0000   YZ=             -0.0000

  Exact polarizability:      10.272      -0.000       2.357       0.000      -0.000       2.357
 Approx polarizability:      13.227      -0.000       2.318      -0.000       0.000       2.318

 ******    1 imaginary frequencies (negative Signs) ******

                      1                      2                      3
                      A                      A                      A
 Frequencies --   -111.5145              1193.7625              1193.7625
 Red. masses --      1.0520                 1.0315                 1.0315
 Frc consts  --      0.0077                 0.8661                 0.8661
 IR Inten    --      0.9024               144.1872               144.1872

                      4
                      A
 Frequencies --   1451.9857
 Red. masses --      1.0595
 Frc consts  --      1.3161
 IR Inten    --     94.0060

 - Thermochemistry -
 -------------------
 Temperature   298.150 Kelvin.  Pressure   1.00000 Atm.
 Atom     1 has atomic number  1 and mass   1.00783

 Molecular mass:    21.01405 amu.
 Principal axes and moments of inertia in atomic units:
                           1         2         3
     Eigenvalues --     0.00000  57.76586  57.76586
           X            1.00000  -0.00000   0.00000
           Y            0.00000   1.00000   0.00000
           Z            0.00000   0.00000   1.00000
 This molecule is a prolate symmetric top.
 Rotational symmetry number  1.
 Rotational temperature (Kelvin)      1.49940
 Rotational constant (GHZ):          31.242351
    1 imaginary frequencies ignored.
 Zero-point vibrational energy      22965.4 (Joules/Mol)
                                    5.48886 (Kcal/Mol)
 Vibrational temperatures:   1717.56  1717.56  2089.08
          (Kelvin)

 Zero-point correction=                           0.008747 (Hartree/Particle)
 Thermal correction to Energy=                    0.011148
 Thermal correction to Enthalpy=                  0.012092
 Thermal correction to Gibbs Free Energy=        -0.011213
 Sum of electronic and zero-point Energies=           -100.928866
 Sum of electronic and thermal Energies=              -100.926465
 Sum of electronic and thermal Enthalpies=            -100.925521
 Sum of electronic and thermal Free Energies=         -100.948826

                     E (Thermal)             CV                S
                      KCal/Mol        Cal/Mol-Kelvin    Cal/Mol-Kelvin
 Total                    6.995              5.474             49.049
 Electronic               0.000              0.000              1.377
 Translational            0.889              2.981             35.068
 Rotational               0.592              1.987             12.505
 Vibrational              5.514              0.506              0.099

 Normal termination of Gaussian 16 at Fri Aug 22 16:08:18 2025.
