 Gaussian 16, Revision C.01,
 Gaussian 16:  ES64L-G16RevC.01  3-Jul-2019

 -----------------------------------------
 # sp b3lyp/6-311g** Force nosymm scf=(qc)
 -----------------------------------------

 -------------------
 Title Card Required
 -------------------
 Symbolic Z-matrix:
 Charge =  0 Multiplicity = 2

                          Input orientation:
 ---------------------------------------------------------------------
 Center     Atomic      Atomic             Coordinates (Angstroms)
 Number     Number       Type             X           Y           Z
 ---------------------------------------------------------------------
      1          1           0        0.000000    0.000000    0.000000
      2          1           0       -2.400000    0.000000    0.000000
      3          9           0        2.950000    0.000000    0.000000
 ---------------------------------------------------------------------

 SCF Done:  E(UB3LYP) =  -100.766400148     a.u. after   25 cycles

 Alpha  occ. eigenvalues --  -24.73985  -1.20048  -0.53102  -0.44587  -0.44587
 Alpha  occ. eigenvalues --   -0.33243
 Alpha virt. eigenvalues --   -0.10873   0.25399   0.33265   0.89733   0.92340
 Alpha virt. eigenvalues --    0.92340   1.04265   1.24457   1.24457   1.26149
 Alpha virt. eigenvalues --    1.39155   1.39155   1.41852   2.14861   2.35784

  Beta  occ. eigenvalues --  -24.70967  -1.11401  -0.41567  -0.41567  -0.33922
  Beta virt. eigenvalues --   -0.24740  -0.09677   0.25690   0.34433   0.93798
  Beta virt. eigenvalues --    0.93798   0.98440   1.08165   1.23632   1.23632
  Beta virt. eigenvalues --    1.25212   1.41099   1.41099   1.43656   2.15909

 Mulliken charges and spin densities:
               1          2
     1  H    0.031496  -0.916706
     2  H    0.007634   0.960450
     3  F   -0.039130   0.956255
 Sum of Mulliken charges =   0.00000   1.00000

 Dipole moment (field-independent basis, Debye):
    X=             -0.6795    Y=             -0.0000    Z=              0.0000  Tot=              0.6795
 Quadrupole moment (field-independent basis, Debye-Ang):
   XX=             -7.9390   YY=             -7.6587   ZZ=             -7.6587
   XY=              0.0000   XZ=             -0.0000   YZ=             -0.0000

  Exact polarizability:      47.138       0.000       2.012      -0.000      -0.000       2.012
 Approx polarizability:      42.554       0.000       1.921      -0.000      -0.000       1.921

 ******    2 imaginary frequencies (negative Signs) ******

                      1                      2                      3
                      A                      A                      A
 Frequencies --   -803.3995              -250.5490               303.6797
 Red. masses --      1.0094                 1.1067                 1.0156
 Frc consts  --      0.3838                 0.0409                 0.0552
 IR Inten    --     24.1643                23.2593                 0.7278

                      4
                      A
 Frequencies --    303.6797
 Red. masses --      1.0156
 Frc consts  --      0.0552
 IR Inten    --      0.7278

 - Thermochemistry -
 -------------------
 Temperature   298.150 Kelvin.  Pressure   1.00000 Atm.
 Atom     1 has atomic number  1 and mass   1.00783

 Molecular mass:    21.01405 amu.
 Principal axes and moments of inertia in atomic units:
                           1         2         3
     Eigenvalues --     0.00000 122.44210 122.44210
           X            1.00000  -0.00000   0.00000
           Y            0.00000   1.00000   0.00000
           Z            0.00000   0.00000   1.00000
 This molecule is a prolate symmetric top.
 Rotational symmetry number  1.
 Rotational temperature (Kelvin)      0.70739
 Rotational constant (GHZ):          14.739548
    2 imaginary frequencies ignored.
 Zero-point vibrational energy       3632.8 (Joules/Mol)
                                    0.86826 (Kcal/Mol)
 Warning -- explicit consideration of   2 degrees of freedom as
           vibrations may cause significant error
 Vibrational temperatures:    436.93   436.93
          (Kelvin)

 Zero-point correction=                           0.001384 (Hartree/Particle)
 Thermal correction to Energy=                    0.004575
 Thermal correction to Enthalpy=                  0.005519
 Thermal correction to Gibbs Free Energy=        -0.019775
 Sum of electronic and zero-point Energies=           -100.765016
 Sum of electronic and thermal Energies=              -100.761825
 Sum of electronic and thermal Enthalpies=            -100.760881
 Sum of electronic and thermal Free Energies=         -100.786175

                     E (Thermal)             CV                S
                      KCal/Mol        Cal/Mol-Kelvin    Cal/Mol-Kelvin
 Total                    2.871              8.301             53.236
 Electronic               0.000              0.000              1.377
 Translational            0.889              2.981             35.068
 Rotational               0.592              1.987             13.997
 Vibrational              1.390              3.333              2.793
 Vibration     1          0.695              1.667              1.397
 Vibration     2          0.695              1.667              1.397

 Normal termination of Gaussian 16 at Fri Aug 22 19:17:48 2025.
