 Gaussian 16, Revision C.01,
 Gaussian 16:  ES64L-G16RevC.01  3-Jul-2019

 -----------------------------------------
 # sp b3lyp/6-311g** Force nosymm scf=(qc)
 -----------------------------------------

 -------------------
 Title Card Required
 -------------------
 Symbolic Z-matrix:
 Charge =  0 Multiplicity = 2

                          Input orientation:
 ---------------------------------------------------------------------
 Center     Atomic      Atomic             Coordinates (Angstroms)
 Number     Number       Type             X           Y           Z
 ---------------------------------------------------------------------
      1          1           0        0.000000    0.000000    0.000000
      2          1           0       -0.900000    0.000000    0.000000
      3          9           0        0.650000    0.000000    0.000000
 ---------------------------------------------------------------------

 SCF Done:  E(UB3LYP) =  -100.737706397     a.u. after    7 cycles

 Alpha  occ. eigenvalues --  -24.65543  -1.35693  -0.66080  -0.44889  -0.44889
 Alpha  occ. eigenvalues --   -0.32850
 Alpha virt. eigenvalues --    0.16625   0.19382   0.77170   0.87433   0.87433
 Alpha virt. eigenvalues --    0.92162   1.09395   1.09395   1.47309   1.72578
 Alpha virt. eigenvalues --    1.76515   1.76515   2.23344   2.41521   3.75998

  Beta  occ. eigenvalues --  -24.65026  -1.34078  -0.63349  -0.44465  -0.44465
  Beta virt. eigenvalues --   -0.12302   0.17315   0.25507   0.81903   0.88994
  Beta virt. eigenvalues --    0.88994   0.94000   1.16342   1.16342   1.48486
  Beta virt. eigenvalues --    1.78807   1.82329   1.82329   2.33507   2.52735

 Mulliken charges and spin densities:
               1          2
     1  H    0.260780  -0.016199
     2  H   -0.046681   0.945301
     3  F   -0.214100   0.070898
 Sum of Mulliken charges =   0.00000   1.00000

 Dipole moment (field-independent basis, Debye):
    X=             -1.0031    Y=             -0.0000    Z=             -0.0000  Tot=              1.0031
 Quadrupole moment (field-independent basis, Debye-Ang):
   XX=             -7.3873   YY=             -6.4432   ZZ=             -6.4432
   XY=             -0.0000   XZ=             -0.0000   YZ=              0.0000

  Exact polarizability:       7.672      -0.000       2.524      -0.000      -0.000       2.524
 Approx polarizability:       7.526      -0.000       2.593      -0.000      -0.000       2.593

 ******    2 imaginary frequencies (negative Signs) ******

                      1                      2                      3
                      A                      A                      A
 Frequencies --  -4635.0154             -4635.0154              2574.3756
 Red. masses --      1.0223                 1.0223                 1.0563
 Frc consts  --     12.9403                12.9403                 4.1245
 IR Inten    --    132.6748               132.6748               127.9687

                      4
                      A
 Frequencies --  10871.7160
 Red. masses --      1.0553
 Frc consts  --     73.4868
 IR Inten    --     52.8179

 - Thermochemistry -
 -------------------
 Temperature   298.150 Kelvin.  Pressure   1.00000 Atm.
 Atom     1 has atomic number  1 and mass   1.00783

 Molecular mass:    21.01405 amu.
 Principal axes and moments of inertia in atomic units:
                           1         2         3
     Eigenvalues --     0.00000   9.33178   9.33178
           X            1.00000  -0.00000   0.00000
           Y            0.00000   1.00000   0.00000
           Z            0.00000   0.00000   1.00000
 This molecule is a prolate symmetric top.
 Rotational symmetry number  1.
 Rotational temperature (Kelvin)      9.28161
 Rotational constant (GHZ):         193.397281
    2 imaginary frequencies ignored.
 Zero-point vibrational energy      80425.5 (Joules/Mol)
                                   19.22215 (Kcal/Mol)
 Vibrational temperatures:   3703.95 15641.97
          (Kelvin)

 Zero-point correction=                           0.030632 (Hartree/Particle)
 Thermal correction to Energy=                    0.032993
 Thermal correction to Enthalpy=                  0.033937
 Thermal correction to Gibbs Free Energy=         0.012401
 Sum of electronic and zero-point Energies=           -100.707074
 Sum of electronic and thermal Energies=              -100.704713
 Sum of electronic and thermal Enthalpies=            -100.703769
 Sum of electronic and thermal Free Energies=         -100.725306

                     E (Thermal)             CV                S
                      KCal/Mol        Cal/Mol-Kelvin    Cal/Mol-Kelvin
 Total                   20.703              4.969             45.327
 Electronic               0.000              0.000              1.377
 Translational            0.889              2.981             35.068
 Rotational               0.592              1.987              8.882
 Vibrational             19.222              0.001              0.000

 Normal termination of Gaussian 16 at Fri Aug 22 15:43:18 2025.
