 Gaussian 16, Revision C.01,
 Gaussian 16:  ES64L-G16RevC.01  3-Jul-2019

 -----------------------------------------
 # sp b3lyp/6-311g** Force nosymm scf=(qc)
 -----------------------------------------

 -------------------
 Title Card Required
 -------------------
 Symbolic Z-matrix:
 Charge =  0 Multiplicity = 2

                          Input orientation:
 ---------------------------------------------------------------------
 Center     Atomic      Atomic             Coordinates (Angstroms)
 Number     Number       Type             X           Y           Z
 ---------------------------------------------------------------------
      1          1           0        0.000000    0.000000    0.000000
      2          1           0       -1.400000    0.000000    0.000000
      3          9           0        3.900000    0.000000    0.000000
 ---------------------------------------------------------------------

 SCF Done:  E(UB3LYP) =  -100.836388203     a.u. after   61 cycles

 Alpha  occ. eigenvalues --  -24.76235  -1.22136  -0.55339  -0.46516  -0.46496
 Alpha  occ. eigenvalues --   -0.34383
 Alpha virt. eigenvalues --   -0.08137   0.24255   0.31388   0.86029   0.90907
 Alpha virt. eigenvalues --    0.91333   1.00878   1.10704   1.17909   1.17911
 Alpha virt. eigenvalues --    1.45106   1.45108   1.89819   2.25393   2.49597

  Beta  occ. eigenvalues --  -24.73080  -1.13063  -0.43352  -0.43332  -0.34383
  Beta virt. eigenvalues --   -0.25989  -0.08136   0.24258   0.31398   0.92407
  Beta virt. eigenvalues --    0.92827   0.95495   1.05025   1.10709   1.17909
  Beta virt. eigenvalues --    1.17911   1.45106   1.45108   1.89821   2.25393

 Mulliken charges and spin densities:
               1          2
     1  H    0.001055   0.000044
     2  H   -0.002012  -0.000152
     3  F    0.000957   1.000107
 Sum of Mulliken charges =   0.00000   1.00000

 Dipole moment (field-independent basis, Debye):
    X=              0.0240    Y=             -0.0000    Z=              0.0000  Tot=              0.0240
 Quadrupole moment (field-independent basis, Debye-Ang):
   XX=             -6.3189   YY=             -6.9810   ZZ=             -7.5168
   XY=             -0.0000   XZ=              0.0000   YZ=             -0.3393

  Exact polarizability:      20.198       0.000       2.441      -0.000      -0.185       2.148
 Approx polarizability:      35.847      -0.000       2.534       0.000      -0.229       2.173

 ******    2 imaginary frequencies (negative Signs) ******

                      1                      2                      3
                      A                      A                      A
 Frequencies --  -1167.9828               -54.5432              1309.9425
 Red. masses --      1.0078                 1.1085                 1.0101
 Frc consts  --      0.8100                 0.0019                 1.0212
 IR Inten    --      0.0644                 0.0446                 0.0070

                      4
                      A
 Frequencies --   1313.3972
 Red. masses --      1.0101
 Frc consts  --      1.0266
 IR Inten    --      0.0016

 - Thermochemistry -
 -------------------
 Temperature   298.150 Kelvin.  Pressure   1.00000 Atm.
 Atom     1 has atomic number  1 and mass   1.00783

 Molecular mass:    21.01405 amu.
 Principal axes and moments of inertia in atomic units:
                           1         2         3
     Eigenvalues --     0.00000 141.22762 141.22762
           X            1.00000  -0.00000   0.00000
           Y            0.00000   1.00000   0.00000
           Z            0.00000   0.00000   1.00000
 This molecule is a prolate symmetric top.
 Rotational symmetry number  1.
 Rotational temperature (Kelvin)      0.61329
 Rotational constant (GHZ):          12.778954
    2 imaginary frequencies ignored.
 Zero-point vibrational energy      15691.1 (Joules/Mol)
                                    3.75025 (Kcal/Mol)
 Vibrational temperatures:   1884.72  1889.69
          (Kelvin)

 Zero-point correction=                           0.005976 (Hartree/Particle)
 Thermal correction to Energy=                    0.008358
 Thermal correction to Enthalpy=                  0.009302
 Thermal correction to Gibbs Free Energy=        -0.014824
 Sum of electronic and zero-point Energies=           -100.830412
 Sum of electronic and thermal Energies=              -100.828030
 Sum of electronic and thermal Enthalpies=            -100.827086
 Sum of electronic and thermal Free Energies=         -100.851212

                     E (Thermal)             CV                S
                      KCal/Mol        Cal/Mol-Kelvin    Cal/Mol-Kelvin
 Total                    5.245              5.253             50.779
 Electronic               0.000              0.000              1.377
 Translational            0.889              2.981             35.068
 Rotational               0.592              1.987             14.281
 Vibrational              3.764              0.285              0.052

 Normal termination of Gaussian 16 at Sat Aug 23 01:18:03 2025.
