 Gaussian 16, Revision C.01,
 Gaussian 16:  ES64L-G16RevC.01  3-Jul-2019

 -----------------------------------------
 # sp b3lyp/6-311g** Force nosymm scf=(qc)
 -----------------------------------------

 -------------------
 Title Card Required
 -------------------
 Symbolic Z-matrix:
 Charge =  0 Multiplicity = 2

                          Input orientation:
 ---------------------------------------------------------------------
 Center     Atomic      Atomic             Coordinates (Angstroms)
 Number     Number       Type             X           Y           Z
 ---------------------------------------------------------------------
      1          1           0        0.000000    0.000000    0.000000
      2          1           0       -3.600000    0.000000    0.000000
      3          9           0        3.500000    0.000000    0.000000
 ---------------------------------------------------------------------

 SCF Done:  E(UB3LYP) =  -100.759055540     a.u. after   33 cycles

 Alpha  occ. eigenvalues --  -24.75382  -1.21346  -0.54505  -0.45763  -0.45763
 Alpha  occ. eigenvalues --   -0.32328
 Alpha virt. eigenvalues --   -0.06845   0.24214   0.37091   0.87597   0.91484
 Alpha virt. eigenvalues --    0.91484   1.01816   1.25174   1.25174   1.25279
 Alpha virt. eigenvalues --    1.45459   1.45459   1.45525   2.14888   2.41505

  Beta  occ. eigenvalues --  -24.72268  -1.12399  -0.42642  -0.42642  -0.32822
  Beta virt. eigenvalues --   -0.25481  -0.06319   0.23974   0.38034   0.92973
  Beta virt. eigenvalues --    0.92973   0.96731   1.05823   1.24608   1.24608
  Beta virt. eigenvalues --    1.24695   1.46084   1.46301   1.46301   2.15076

 Mulliken charges and spin densities:
               1          2
     1  H    0.011453  -0.985611
     2  H    0.000139   0.998349
     3  F   -0.011592   0.987262
 Sum of Mulliken charges =  -0.00000   1.00000

 Dipole moment (field-independent basis, Debye):
    X=             -0.2111    Y=              0.0000    Z=              0.0000  Tot=              0.2111
 Quadrupole moment (field-independent basis, Debye-Ang):
   XX=             -7.4067   YY=             -7.6203   ZZ=             -7.6203
   XY=              0.0000   XZ=              0.0000   YZ=             -0.0000

  Exact polarizability:      23.393       0.000       2.035       0.000      -0.000       2.035
 Approx polarizability:      18.547       0.000       1.934       0.000       0.000       1.934

 ******    2 imaginary frequencies (negative Signs) ******

                      1                      2                      3
                      A                      A                      A
 Frequencies --   -235.3989               -95.9273                70.7396
 Red. masses --      1.0320                 1.0807                 1.0183
 Frc consts  --      0.0337                 0.0059                 0.0030
 IR Inten    --     10.7111                 0.8829                 0.1165

                      4
                      A
 Frequencies --     70.7397
 Red. masses --      1.0183
 Frc consts  --      0.0030
 IR Inten    --      0.1165

 - Thermochemistry -
 -------------------
 Temperature   298.150 Kelvin.  Pressure   1.00000 Atm.
 Atom     1 has atomic number  1 and mass   1.00783

 Molecular mass:    21.01405 amu.
 Principal axes and moments of inertia in atomic units:
                           1         2         3
     Eigenvalues --     0.00000 206.11976 206.11976
           X            1.00000  -0.00000   0.00000
           Y            0.00000   1.00000   0.00000
           Z            0.00000   0.00000   1.00000
 This molecule is a prolate symmetric top.
 Rotational symmetry number  1.
 Rotational temperature (Kelvin)      0.42021
 Rotational constant (GHZ):           8.755789
    2 imaginary frequencies ignored.
 Zero-point vibrational energy        846.2 (Joules/Mol)
                                    0.20225 (Kcal/Mol)
 Warning -- explicit consideration of   2 degrees of freedom as
           vibrations may cause significant error
 Vibrational temperatures:    101.78   101.78
          (Kelvin)

 Zero-point correction=                           0.000322 (Hartree/Particle)
 Thermal correction to Energy=                    0.004267
 Thermal correction to Enthalpy=                  0.005211
 Thermal correction to Gibbs Free Energy=        -0.023175
 Sum of electronic and zero-point Energies=           -100.758733
 Sum of electronic and thermal Energies=              -100.754788
 Sum of electronic and thermal Enthalpies=            -100.753844
 Sum of electronic and thermal Free Energies=         -100.782230

                     E (Thermal)             CV                S
                      KCal/Mol        Cal/Mol-Kelvin    Cal/Mol-Kelvin
 Total                    2.678              8.904             59.743
 Electronic               0.000              0.000              1.377
 Translational            0.889              2.981             35.068
 Rotational               0.592              1.987             15.032
 Vibrational              1.196              3.936              8.265
 Vibration     1          0.598              1.968              4.133
 Vibration     2          0.598              1.968              4.133

 Normal termination of Gaussian 16 at Fri Aug 22 22:11:29 2025.
