 Gaussian 16, Revision C.01,
 Gaussian 16:  ES64L-G16RevC.01  3-Jul-2019

 -----------------------------------------
 # sp b3lyp/6-311g** Force nosymm scf=(qc)
 -----------------------------------------

 -------------------
 Title Card Required
 -------------------
 Symbolic Z-matrix:
 Charge =  0 Multiplicity = 2

                          Input orientation:
 ---------------------------------------------------------------------
 Center     Atomic      Atomic             Coordinates (Angstroms)
 Number     Number       Type             X           Y           Z
 ---------------------------------------------------------------------
      1          1           0        0.000000    0.000000    0.000000
      2          1           0       -1.100000    0.000000    0.000000
      3          9           0        2.600000    0.000000    0.000000
 ---------------------------------------------------------------------

 SCF Done:  E(UB3LYP) =  -100.890502036     a.u. after   21 cycles

 Alpha  occ. eigenvalues --  -24.77048  -1.22824  -0.55995  -0.47380  -0.47141
 Alpha  occ. eigenvalues --   -0.37111
 Alpha virt. eigenvalues --   -0.01200   0.22660   0.37546   0.85504   0.90368
 Alpha virt. eigenvalues --    0.92997   1.08175   1.11100   1.11117   1.30590
 Alpha virt. eigenvalues --    1.60209   1.60224   2.17746   2.35205   2.56614

  Beta  occ. eigenvalues --  -24.73883  -1.13731  -0.44258  -0.43968  -0.37054
  Beta virt. eigenvalues --   -0.26603  -0.01153   0.22694   0.37654   0.91864
  Beta virt. eigenvalues --    0.94823   0.94945   1.11107   1.11115   1.11819
  Beta virt. eigenvalues --    1.30637   1.60208   1.60221   2.17747   2.35207

 Mulliken charges and spin densities:
               1          2
     1  H   -0.002465  -0.000499
     2  H   -0.011331  -0.001510
     3  F    0.013796   1.002009
 Sum of Mulliken charges =  -0.00000   1.00000

 Dipole moment (field-independent basis, Debye):
    X=              0.1794    Y=             -0.0000    Z=             -0.0000  Tot=              0.1794
 Quadrupole moment (field-independent basis, Debye-Ang):
   XX=             -6.0871   YY=             -6.5378   ZZ=             -7.4007
   XY=             -0.0000   XZ=             -0.0000   YZ=              0.0044

  Exact polarizability:      14.897      -0.000       2.533       0.000       0.002       2.092
 Approx polarizability:      20.393      -0.000       2.706      -0.000       0.003       2.134

                      1                      2                      3
                      A                      A                      A
 Frequencies --    132.3951              1028.6750              1525.7519
 Red. masses --      1.1085                 1.0078                 1.0108
 Frc consts  --      0.0114                 0.6283                 1.3864
 IR Inten    --      1.5462                 4.9403                 0.0059

                      4
                      A
 Frequencies --   1552.3549
 Red. masses --      1.0108
 Frc consts  --      1.4352
 IR Inten    --      0.0070

 - Thermochemistry -
 -------------------
 Temperature   298.150 Kelvin.  Pressure   1.00000 Atm.
 Atom     1 has atomic number  1 and mass   1.00783

 Molecular mass:    21.01405 amu.
 Principal axes and moments of inertia in atomic units:
                           1         2         3
     Eigenvalues --     0.00000  66.74896  66.74896
           X            1.00000  -0.00000   0.00000
           Y            0.00000   1.00000   0.00000
           Z            0.00000   0.00000   1.00000
 This molecule is a prolate symmetric top.
 Rotational symmetry number  1.
 Rotational temperature (Kelvin)      1.29761
 Rotational constant (GHZ):          27.037744
 Zero-point vibrational energy      25355.9 (Joules/Mol)
                                    6.06021 (Kcal/Mol)
 Warning -- explicit consideration of   1 degrees of freedom as
           vibrations may cause significant error
 Vibrational temperatures:    190.49  1480.03  2195.22  2233.49
          (Kelvin)

 Zero-point correction=                           0.009658 (Hartree/Particle)
 Thermal correction to Energy=                    0.012734
 Thermal correction to Enthalpy=                  0.013678
 Thermal correction to Gibbs Free Energy=        -0.011148
 Sum of electronic and zero-point Energies=           -100.880844
 Sum of electronic and thermal Energies=              -100.877768
 Sum of electronic and thermal Enthalpies=            -100.876824
 Sum of electronic and thermal Free Energies=         -100.901650

                     E (Thermal)             CV                S
                      KCal/Mol        Cal/Mol-Kelvin    Cal/Mol-Kelvin
 Total                    7.991              7.367             52.251
 Electronic               0.000              0.000              1.377
 Translational            0.889              2.981             35.068
 Rotational               0.592              1.987             12.792
 Vibrational              6.509              2.399              3.014
 Vibration     1          0.613              1.921              2.911

 Normal termination of Gaussian 16 at Fri Aug 22 18:00:58 2025.
