 Gaussian 16, Revision C.01,
 Gaussian 16:  ES64L-G16RevC.01  3-Jul-2019

 -----------------------------------------
 # sp b3lyp/6-311g** Force nosymm scf=(qc)
 -----------------------------------------

 -------------------
 Title Card Required
 -------------------
 Symbolic Z-matrix:
 Charge =  0 Multiplicity = 2

                          Input orientation:
 ---------------------------------------------------------------------
 Center     Atomic      Atomic             Coordinates (Angstroms)
 Number     Number       Type             X           Y           Z
 ---------------------------------------------------------------------
      1          1           0        0.000000    0.000000    0.000000
      2          1           0       -3.350000    0.000000    0.000000
      3          9           0        2.550000    0.000000    0.000000
 ---------------------------------------------------------------------

 SCF Done:  E(UB3LYP) =  -100.766635747     a.u. after   20 cycles

 Alpha  occ. eigenvalues --  -24.72026  -1.18225  -0.51132  -0.42951  -0.42951
 Alpha  occ. eigenvalues --   -0.32926
 Alpha virt. eigenvalues --   -0.10149   0.23683   0.35248   0.89839   0.93462
 Alpha virt. eigenvalues --    0.93462   1.06208   1.24590   1.24590   1.24887
 Alpha virt. eigenvalues --    1.41008   1.41008   1.44164   2.14711   2.36523

  Beta  occ. eigenvalues --  -24.69159  -1.10056  -0.40091  -0.40091  -0.35160
  Beta virt. eigenvalues --   -0.23528  -0.07013   0.24124   0.37642   0.94844
  Beta virt. eigenvalues --    0.94844   0.96674   1.08740   1.22255   1.22255
  Beta virt. eigenvalues --    1.28371   1.45397   1.45654   1.45654   2.13398

 Mulliken charges and spin densities:
               1          2
     1  H    0.082058  -0.903360
     2  H    0.001231   0.996979
     3  F   -0.083290   0.906381
 Sum of Mulliken charges =  -0.00000   1.00000

 Dipole moment (field-independent basis, Debye):
    X=             -1.1021    Y=             -0.0000    Z=              0.0000  Tot=              1.1021
 Quadrupole moment (field-independent basis, Debye-Ang):
   XX=             -9.1775   YY=             -7.5793   ZZ=             -7.5793
   XY=             -0.0000   XZ=              0.0000   YZ=              0.0000

  Exact polarizability:      31.971      -0.000       2.024       0.000       0.000       2.024
 Approx polarizability:      39.163      -0.000       1.920       0.000      -0.000       1.920

 ******    2 imaginary frequencies (negative Signs) ******

                      1                      2                      3
                      A                      A                      A
 Frequencies --   -594.6742              -143.5459               229.7649
 Red. masses --      1.0517                 1.0599                 1.0216
 Frc consts  --      0.2191                 0.0129                 0.0318
 IR Inten    --     75.2966                 0.6416                 6.3546

                      4
                      A
 Frequencies --    229.7649
 Red. masses --      1.0216
 Frc consts  --      0.0318
 IR Inten    --      6.3546

 - Thermochemistry -
 -------------------
 Temperature   298.150 Kelvin.  Pressure   1.00000 Atm.
 Atom     1 has atomic number  1 and mass   1.00783

 Molecular mass:    21.01405 amu.
 Principal axes and moments of inertia in atomic units:
                           1         2         3
     Eigenvalues --     0.00000 136.35948 136.35948
           X            1.00000  -0.00000   0.00000
           Y            0.00000   1.00000   0.00000
           Z            0.00000   0.00000   1.00000
 This molecule is a prolate symmetric top.
 Rotational symmetry number  1.
 Rotational temperature (Kelvin)      0.63519
 Rotational constant (GHZ):          13.235173
    2 imaginary frequencies ignored.
 Zero-point vibrational energy       2748.6 (Joules/Mol)
                                    0.65693 (Kcal/Mol)
 Warning -- explicit consideration of   2 degrees of freedom as
           vibrations may cause significant error
 Vibrational temperatures:    330.58   330.58
          (Kelvin)

 Zero-point correction=                           0.001047 (Hartree/Particle)
 Thermal correction to Energy=                    0.004438
 Thermal correction to Enthalpy=                  0.005383
 Thermal correction to Gibbs Free Energy=        -0.020473
 Sum of electronic and zero-point Energies=           -100.765589
 Sum of electronic and thermal Energies=              -100.762197
 Sum of electronic and thermal Enthalpies=            -100.761253
 Sum of electronic and thermal Free Energies=         -100.787109

                     E (Thermal)             CV                S
                      KCal/Mol        Cal/Mol-Kelvin    Cal/Mol-Kelvin
 Total                    2.785              8.559             54.418
 Electronic               0.000              0.000              1.377
 Translational            0.889              2.981             35.068
 Rotational               0.592              1.987             14.211
 Vibrational              1.304              3.591              3.762
 Vibration     1          0.652              1.796              1.881
 Vibration     2          0.652              1.796              1.881

 Normal termination of Gaussian 16 at Fri Aug 22 17:55:10 2025.
