 Gaussian 16, Revision C.01,
 Gaussian 16:  ES64L-G16RevC.01  3-Jul-2019

 -----------------------------------------
 # sp b3lyp/6-311g** Force nosymm scf=(qc)
 -----------------------------------------

 -------------------
 Title Card Required
 -------------------
 Symbolic Z-matrix:
 Charge =  0 Multiplicity = 2

                          Input orientation:
 ---------------------------------------------------------------------
 Center     Atomic      Atomic             Coordinates (Angstroms)
 Number     Number       Type             X           Y           Z
 ---------------------------------------------------------------------
      1          1           0        0.000000    0.000000    0.000000
      2          1           0       -0.900000    0.000000    0.000000
      3          9           0        1.800000    0.000000    0.000000
 ---------------------------------------------------------------------

 SCF Done:  E(UB3LYP) =  -100.926619151     a.u. after    8 cycles

 Alpha  occ. eigenvalues --  -24.72795  -1.19167  -0.53579  -0.43764  -0.43764
 Alpha  occ. eigenvalues --   -0.42459
 Alpha virt. eigenvalues --    0.04038   0.20605   0.38890   0.90504   0.90504
 Alpha virt. eigenvalues --    0.94164   1.06867   1.06867   1.13452   1.62020
 Alpha virt. eigenvalues --    1.70336   1.70336   2.15943   2.35621   2.75533

  Beta  occ. eigenvalues --  -24.69964  -1.11193  -0.43248  -0.40963  -0.40963
  Beta virt. eigenvalues --   -0.24823   0.05429   0.21451   0.39798   0.91713
  Beta virt. eigenvalues --    0.91713   1.01509   1.08289   1.08289   1.16412
  Beta virt. eigenvalues --    1.64523   1.71183   1.71183   2.17288   2.37129

 Mulliken charges and spin densities:
               1          2
     1  H    0.051091  -0.056294
     2  H    0.040221   0.175648
     3  F   -0.091312   0.880646
 Sum of Mulliken charges =   0.00000   1.00000

 Dipole moment (field-independent basis, Debye):
    X=             -0.9551    Y=             -0.0000    Z=             -0.0000  Tot=              0.9551
 Quadrupole moment (field-independent basis, Debye-Ang):
   XX=             -6.6396   YY=             -7.0469   ZZ=             -7.0469
   XY=             -0.0000   XZ=             -0.0000   YZ=              0.0000

  Exact polarizability:      26.218      -0.000       2.212       0.000      -0.000       2.212
 Approx polarizability:      33.720      -0.000       2.242       0.000      -0.000       2.242

 ******    1 imaginary frequencies (negative Signs) ******

                      1                      2                      3
                      A                      A                      A
 Frequencies --   -475.1352              1289.5571              1289.5571
 Red. masses --      1.1071                 1.0117                 1.0117
 Frc consts  --      0.1473                 0.9913                 0.9913
 IR Inten    --    124.7929                 0.0211                 0.0211

                      4
                      A
 Frequencies --   2353.2902
 Red. masses --      1.0090
 Frc consts  --      3.2922
 IR Inten    --    632.1937

 - Thermochemistry -
 -------------------
 Temperature   298.150 Kelvin.  Pressure   1.00000 Atm.
 Atom     1 has atomic number  1 and mass   1.00783

 Molecular mass:    21.01405 amu.
 Principal axes and moments of inertia in atomic units:
                           1         2         3
     Eigenvalues --     0.00000  34.40227  34.40227
           X            1.00000  -0.00000   0.00000
           Y            0.00000   1.00000   0.00000
           Z            0.00000   0.00000   1.00000
 This molecule is a prolate symmetric top.
 Rotational symmetry number  1.
 Rotational temperature (Kelvin)      2.51768
 Rotational constant (GHZ):          52.459945
    1 imaginary frequencies ignored.
 Zero-point vibrational energy      29502.3 (Joules/Mol)
                                    7.05123 (Kcal/Mol)
 Vibrational temperatures:   1855.39  1855.39  3385.86
          (Kelvin)

 Zero-point correction=                           0.011237 (Hartree/Particle)
 Thermal correction to Energy=                    0.013621
 Thermal correction to Enthalpy=                  0.014565
 Thermal correction to Gibbs Free Energy=        -0.008231
 Sum of electronic and zero-point Energies=           -100.915382
 Sum of electronic and thermal Energies=              -100.912998
 Sum of electronic and thermal Enthalpies=            -100.912054
 Sum of electronic and thermal Free Energies=         -100.934850

                     E (Thermal)             CV                S
                      KCal/Mol        Cal/Mol-Kelvin    Cal/Mol-Kelvin
 Total                    8.547              5.277             47.977
 Electronic               0.000              0.000              1.377
 Translational            0.889              2.981             35.068
 Rotational               0.592              1.987             11.475
 Vibrational              7.066              0.309              0.057

 Normal termination of Gaussian 16 at Fri Aug 22 16:42:29 2025.
