 Gaussian 16, Revision C.01,
 Gaussian 16:  ES64L-G16RevC.01  3-Jul-2019

 -----------------------------------------
 # sp b3lyp/6-311g** Force nosymm scf=(qc)
 -----------------------------------------

 -------------------
 Title Card Required
 -------------------
 Symbolic Z-matrix:
 Charge =  0 Multiplicity = 2

                          Input orientation:
 ---------------------------------------------------------------------
 Center     Atomic      Atomic             Coordinates (Angstroms)
 Number     Number       Type             X           Y           Z
 ---------------------------------------------------------------------
      1          1           0        0.000000    0.000000    0.000000
      2          1           0       -2.250000    0.000000    0.000000
      3          9           0        0.550000    0.000000    0.000000
 ---------------------------------------------------------------------

 SCF Done:  E(UB3LYP) =  -100.519126169     a.u. after    6 cycles

 Alpha  occ. eigenvalues --  -24.62658  -1.38395  -0.62273  -0.43591  -0.43591
 Alpha  occ. eigenvalues --   -0.34594
 Alpha virt. eigenvalues --    0.10166   0.25216   0.58140   0.91260   0.91260
 Alpha virt. eigenvalues --    0.91513   1.17803   1.22957   1.22957   1.53002
 Alpha virt. eigenvalues --    1.54162   1.54162   1.96383   2.18008   3.65815

  Beta  occ. eigenvalues --  -24.62645  -1.38355  -0.62235  -0.43585  -0.43585
  Beta virt. eigenvalues --   -0.08617   0.11566   0.37531   0.58088   0.91242
  Beta virt. eigenvalues --    0.91242   0.91644   1.29920   1.44531   1.44531
  Beta virt. eigenvalues --    1.54143   1.54143   1.62774   1.99171   2.45507

 Mulliken charges and spin densities:
               1          2
     1  H    0.187731   0.006288
     2  H    0.006601   0.991327
     3  F   -0.194332   0.002384
 Sum of Mulliken charges =   0.00000   1.00000

 Dipole moment (field-independent basis, Debye):
    X=             -1.4227    Y=              0.0000    Z=              0.0000  Tot=              1.4227
 Quadrupole moment (field-independent basis, Debye-Ang):
   XX=             -6.6185   YY=             -6.4809   ZZ=             -6.4809
   XY=              0.0000   XZ=              0.0000   YZ=             -0.0000

  Exact polarizability:       5.026      -0.000       2.458      -0.000      -0.000       2.458
 Approx polarizability:       4.925      -0.000       2.445      -0.000      -0.000       2.445

 ******    2 imaginary frequencies (negative Signs) ******

                      1                      2                      3
                      A                      A                      A
 Frequencies --  -7437.8943             -7437.8943               241.2735
 Red. masses --      1.0392                 1.0392                 1.0533
 Frc consts  --     33.8742                33.8742                 0.0361
 IR Inten    --    232.7202               232.7202                 0.0842

                      4
                      A
 Frequencies --  15777.6668
 Red. masses --      1.0583
 Frc consts  --    155.2190
 IR Inten    --    100.6271

 - Thermochemistry -
 -------------------
 Temperature   298.150 Kelvin.  Pressure   1.00000 Atm.
 Atom     1 has atomic number  1 and mass   1.00783

 Molecular mass:    21.01405 amu.
 Principal axes and moments of inertia in atomic units:
                           1         2         3
     Eigenvalues --     0.00000  27.36785  27.36785
           X            1.00000  -0.00000   0.00000
           Y            0.00000   1.00000   0.00000
           Z            0.00000   0.00000   1.00000
 This molecule is a prolate symmetric top.
 Rotational symmetry number  1.
 Rotational temperature (Kelvin)      3.16481
 Rotational constant (GHZ):          65.943853
    2 imaginary frequencies ignored.
 Zero-point vibrational energy      95814.5 (Joules/Mol)
                                   22.90022 (Kcal/Mol)
 Warning -- explicit consideration of   1 degrees of freedom as
           vibrations may cause significant error
 Vibrational temperatures:    347.14 22700.54
          (Kelvin)

 Zero-point correction=                           0.036494 (Hartree/Particle)
 Thermal correction to Energy=                    0.039353
 Thermal correction to Enthalpy=                  0.040297
 Thermal correction to Gibbs Free Energy=         0.016893
 Sum of electronic and zero-point Energies=           -100.482632
 Sum of electronic and thermal Energies=              -100.479773
 Sum of electronic and thermal Enthalpies=            -100.478829
 Sum of electronic and thermal Free Energies=         -100.502233

                     E (Thermal)             CV                S
                      KCal/Mol        Cal/Mol-Kelvin    Cal/Mol-Kelvin
 Total                   24.694              6.745             49.259
 Electronic               0.000              0.000              1.377
 Translational            0.889              2.981             35.068
 Rotational               0.592              1.987             11.020
 Vibrational             23.213              1.777              1.793
 Vibration     1          0.658              1.777              1.793

 Normal termination of Gaussian 16 at Fri Aug 22 15:39:30 2025.
