 Gaussian 16, Revision C.01,
 Gaussian 16:  ES64L-G16RevC.01  3-Jul-2019

 -----------------------------------------
 # sp b3lyp/6-311g** Force nosymm scf=(qc)
 -----------------------------------------

 -------------------
 Title Card Required
 -------------------
 Symbolic Z-matrix:
 Charge =  0 Multiplicity = 2

                          Input orientation:
 ---------------------------------------------------------------------
 Center     Atomic      Atomic             Coordinates (Angstroms)
 Number     Number       Type             X           Y           Z
 ---------------------------------------------------------------------
      1          1           0        0.000000    0.000000    0.000000
      2          1           0       -1.850000    0.000000    0.000000
      3          9           0        2.350000    0.000000    0.000000
 ---------------------------------------------------------------------

 SCF Done:  E(UB3LYP) =  -100.792888942     a.u. after   16 cycles

 Alpha  occ. eigenvalues --  -24.71110  -1.17350  -0.50232  -0.42169  -0.42169
 Alpha  occ. eigenvalues --   -0.35643
 Alpha virt. eigenvalues --   -0.12863   0.24313   0.31528   0.88440   0.93925
 Alpha virt. eigenvalues --    0.93925   1.04229   1.20268   1.22086   1.22086
 Alpha virt. eigenvalues --    1.34541   1.34541   1.56727   2.11792   2.36405

  Beta  occ. eigenvalues --  -24.68336  -1.09474  -0.39408  -0.39408  -0.35683
  Beta virt. eigenvalues --   -0.23307  -0.11871   0.26527   0.31034   0.93782
  Beta virt. eigenvalues --    0.95221   0.95221   1.07456   1.22529   1.22529
  Beta virt. eigenvalues --    1.24583   1.35832   1.35832   1.57074   2.12541

 Mulliken charges and spin densities:
               1          2
     1  H    0.064219  -0.672703
     2  H    0.040200   0.797159
     3  F   -0.104419   0.875545
 Sum of Mulliken charges =  -0.00000   1.00000

 Dipole moment (field-independent basis, Debye):
    X=             -1.5995    Y=             -0.0000    Z=              0.0000  Tot=              1.5995
 Quadrupole moment (field-independent basis, Debye-Ang):
   XX=             -8.0768   YY=             -7.6481   ZZ=             -7.6481
   XY=             -0.0000   XZ=              0.0000   YZ=              0.0000

  Exact polarizability:      60.004      -0.000       2.021       0.000      -0.000       2.021
 Approx polarizability:      71.362       0.000       1.949      -0.000      -0.000       1.949

 ******    2 imaginary frequencies (negative Signs) ******

                      1                      2                      3
                      A                      A                      A
 Frequencies --  -1675.2437              -440.7946               705.0930
 Red. masses --      1.0094                 1.1066                 1.0153
 Frc consts  --      1.6691                 0.1267                 0.2974
 IR Inten    --    153.3955                52.0953                 1.8167

                      4
                      A
 Frequencies --    705.0930
 Red. masses --      1.0153
 Frc consts  --      0.2974
 IR Inten    --      1.8167

 - Thermochemistry -
 -------------------
 Temperature   298.150 Kelvin.  Pressure   1.00000 Atm.
 Atom     1 has atomic number  1 and mass   1.00783

 Molecular mass:    21.01405 amu.
 Principal axes and moments of inertia in atomic units:
                           1         2         3
     Eigenvalues --     0.00000  75.95677  75.95677
           X            1.00000  -0.00000   0.00000
           Y            0.00000   1.00000   0.00000
           Z            0.00000   0.00000   1.00000
 This molecule is a prolate symmetric top.
 Rotational symmetry number  1.
 Rotational temperature (Kelvin)      1.14031
 Rotational constant (GHZ):          23.760111
    2 imaginary frequencies ignored.
 Zero-point vibrational energy       8434.8 (Joules/Mol)
                                    2.01596 (Kcal/Mol)
 Vibrational temperatures:   1014.47  1014.47
          (Kelvin)

 Zero-point correction=                           0.003213 (Hartree/Particle)
 Thermal correction to Energy=                    0.005794
 Thermal correction to Enthalpy=                  0.006739
 Thermal correction to Gibbs Free Energy=        -0.017063
 Sum of electronic and zero-point Energies=           -100.789676
 Sum of electronic and thermal Energies=              -100.787095
 Sum of electronic and thermal Enthalpies=            -100.786150
 Sum of electronic and thermal Free Energies=         -100.809952

                     E (Thermal)             CV                S
                      KCal/Mol        Cal/Mol-Kelvin    Cal/Mol-Kelvin
 Total                    3.636              6.607             50.094
 Electronic               0.000              0.000              1.377
 Translational            0.889              2.981             35.068
 Rotational               0.592              1.987             13.049
 Vibrational              2.155              1.639              0.600

 Normal termination of Gaussian 16 at Fri Aug 22 17:26:11 2025.
