 Gaussian 16, Revision C.01,
 Gaussian 16:  ES64L-G16RevC.01  3-Jul-2019

 -----------------------------------------
 # sp b3lyp/6-311g** Force nosymm scf=(qc)
 -----------------------------------------

 -------------------
 Title Card Required
 -------------------
 Symbolic Z-matrix:
 Charge =  0 Multiplicity = 2

                          Input orientation:
 ---------------------------------------------------------------------
 Center     Atomic      Atomic             Coordinates (Angstroms)
 Number     Number       Type             X           Y           Z
 ---------------------------------------------------------------------
      1          1           0        0.000000    0.000000    0.000000
      2          1           0       -0.750000    0.000000    0.000000
      3          9           0        1.450000    0.000000    0.000000
 ---------------------------------------------------------------------

 SCF Done:  E(UB3LYP) =  -100.938368378     a.u. after    7 cycles

 Alpha  occ. eigenvalues --  -24.70624  -1.17935  -0.56547  -0.42393  -0.42393
 Alpha  occ. eigenvalues --   -0.42250
 Alpha virt. eigenvalues --    0.09331   0.19691   0.43647   0.88553   0.88553
 Alpha virt. eigenvalues --    0.97302   1.08515   1.08515   1.32340   1.67082
 Alpha virt. eigenvalues --    1.80609   1.80609   1.98651   2.41755   3.03263

  Beta  occ. eigenvalues --  -24.68064  -1.10958  -0.48182  -0.39916  -0.39916
  Beta virt. eigenvalues --   -0.23055   0.10750   0.20662   0.46216   0.89742
  Beta virt. eigenvalues --    0.89742   1.03174   1.11010   1.11010   1.36160
  Beta virt. eigenvalues --    1.70304   1.82124   1.82124   1.99643   2.44975

 Mulliken charges and spin densities:
               1          2
     1  H    0.150176  -0.044822
     2  H    0.014934   0.276605
     3  F   -0.165110   0.768217
 Sum of Mulliken charges =   0.00000   1.00000

 Dipole moment (field-independent basis, Debye):
    X=             -1.2460    Y=              0.0000    Z=              0.0000  Tot=              1.2460
 Quadrupole moment (field-independent basis, Debye-Ang):
   XX=             -6.9654   YY=             -6.7636   ZZ=             -6.7636
   XY=              0.0000   XZ=             -0.0000   YZ=             -0.0000

  Exact polarizability:      19.845       0.000       2.333      -0.000      -0.000       2.333
 Approx polarizability:      25.674       0.000       2.368      -0.000      -0.000       2.368

 ******    3 imaginary frequencies (negative Signs) ******

                      1                      2                      3
                      A                      A                      A
 Frequencies --   -947.8032              -947.8032              -435.1315
 Red. masses --      1.0119                 1.0119                 1.1076
 Frc consts  --      0.5356                 0.5356                 0.1236
 IR Inten    --      1.4420                 1.4420               107.1192

                      4
                      A
 Frequencies --   3930.3286
 Red. masses --      1.0086
 Frc consts  --      9.1798
 IR Inten    --    689.7381

 - Thermochemistry -
 -------------------
 Temperature   298.150 Kelvin.  Pressure   1.00000 Atm.
 Atom     1 has atomic number  1 and mass   1.00783

 Molecular mass:    21.01405 amu.
 Principal axes and moments of inertia in atomic units:
                           1         2         3
     Eigenvalues --     0.00000  22.68656  22.68656
           X            1.00000  -0.00000   0.00000
           Y            0.00000   1.00000   0.00000
           Z            0.00000   0.00000   1.00000
 This molecule is a prolate symmetric top.
 Rotational symmetry number  1.
 Rotational temperature (Kelvin)      3.81785
 Rotational constant (GHZ):          79.551114
    3 imaginary frequencies ignored.
 Zero-point vibrational energy      23508.6 (Joules/Mol)
                                    5.61869 (Kcal/Mol)
 Vibrational temperatures:   5654.87
          (Kelvin)

 Zero-point correction=                           0.008954 (Hartree/Particle)
 Thermal correction to Energy=                    0.011314
 Thermal correction to Enthalpy=                  0.012259
 Thermal correction to Gibbs Free Energy=        -0.010117
 Sum of electronic and zero-point Energies=           -100.929414
 Sum of electronic and thermal Energies=              -100.927054
 Sum of electronic and thermal Enthalpies=            -100.926110
 Sum of electronic and thermal Free Energies=         -100.948485

                     E (Thermal)             CV                S
                      KCal/Mol        Cal/Mol-Kelvin    Cal/Mol-Kelvin
 Total                    7.100              4.968             47.093
 Electronic               0.000              0.000              1.377
 Translational            0.889              2.981             35.068
 Rotational               0.592              1.987             10.647
 Vibrational              5.619              0.000              0.000

 Normal termination of Gaussian 16 at Fri Aug 22 16:21:44 2025.
