 Gaussian 16, Revision C.01,
 Gaussian 16:  ES64L-G16RevC.01  3-Jul-2019

 -----------------------------------------
 # sp b3lyp/6-311g** Force nosymm scf=(qc)
 -----------------------------------------

 -------------------
 Title Card Required
 -------------------
 Symbolic Z-matrix:
 Charge =  0 Multiplicity = 2

                          Input orientation:
 ---------------------------------------------------------------------
 Center     Atomic      Atomic             Coordinates (Angstroms)
 Number     Number       Type             X           Y           Z
 ---------------------------------------------------------------------
      1          1           0        0.000000    0.000000    0.000000
      2          1           0       -1.300000    0.000000    0.000000
      3          9           0        1.550000    0.000000    0.000000
 ---------------------------------------------------------------------

 SCF Done:  E(UB3LYP) =  -100.887470112     a.u. after   14 cycles

 Alpha  occ. eigenvalues --  -24.66823  -1.13643  -0.49182  -0.39345  -0.38880
 Alpha  occ. eigenvalues --   -0.38880
 Alpha virt. eigenvalues --   -0.04148   0.20468   0.30461   0.92336   0.92336
 Alpha virt. eigenvalues --    0.97993   1.04798   1.11603   1.11603   1.47148
 Alpha virt. eigenvalues --    1.47148   1.51728   1.99604   2.22760   2.49069

  Beta  occ. eigenvalues --  -24.64891  -1.08388  -0.41586  -0.37011  -0.37011
  Beta virt. eigenvalues --   -0.22898  -0.01078   0.22925   0.31585   0.92800
  Beta virt. eigenvalues --    0.92800   1.03421   1.07736   1.16028   1.16028
  Beta virt. eigenvalues --    1.48911   1.48911   1.56072   2.03358   2.26368

 Mulliken charges and spin densities:
               1          2
     1  H    0.189478  -0.195168
     2  H    0.070446   0.598932
     3  F   -0.259924   0.596237
 Sum of Mulliken charges =   0.00000   1.00000

 Dipole moment (field-independent basis, Debye):
    X=             -2.4048    Y=              0.0000    Z=              0.0000  Tot=              2.4048
 Quadrupole moment (field-independent basis, Debye-Ang):
   XX=             -7.8292   YY=             -7.2123   ZZ=             -7.2123
   XY=              0.0000   XZ=              0.0000   YZ=              0.0000

  Exact polarizability:      36.097      -0.000       2.320      -0.000       0.000       2.320
 Approx polarizability:      55.343      -0.000       2.275      -0.000       0.000       2.275

 ******    2 imaginary frequencies (negative Signs) ******

                      1                      2                      3
                      A                      A                      A
 Frequencies --  -2596.5653              -212.4139              1180.9190
 Red. masses --      1.0216                 1.0923                 1.0160
 Frc consts  --      4.0581                 0.0290                 0.8348
 IR Inten    --    858.0987                10.9932                12.0264

                      4
                      A
 Frequencies --   1180.9190
 Red. masses --      1.0160
 Frc consts  --      0.8348
 IR Inten    --     12.0264

 - Thermochemistry -
 -------------------
 Temperature   298.150 Kelvin.  Pressure   1.00000 Atm.
 Atom     1 has atomic number  1 and mass   1.00783

 Molecular mass:    21.01405 amu.
 Principal axes and moments of inertia in atomic units:
                           1         2         3
     Eigenvalues --     0.00000  34.53790  34.53790
           X            1.00000  -0.00000   0.00000
           Y            0.00000   1.00000   0.00000
           Z            0.00000   0.00000   1.00000
 This molecule is a prolate symmetric top.
 Rotational symmetry number  1.
 Rotational temperature (Kelvin)      2.50779
 Rotational constant (GHZ):          52.253943
    2 imaginary frequencies ignored.
 Zero-point vibrational energy      14126.9 (Joules/Mol)
                                    3.37642 (Kcal/Mol)
 Vibrational temperatures:   1699.08  1699.08
          (Kelvin)

 Zero-point correction=                           0.005381 (Hartree/Particle)
 Thermal correction to Energy=                    0.007777
 Thermal correction to Enthalpy=                  0.008721
 Thermal correction to Gibbs Free Energy=        -0.014093
 Sum of electronic and zero-point Energies=           -100.882089
 Sum of electronic and thermal Energies=              -100.879693
 Sum of electronic and thermal Enthalpies=            -100.878749
 Sum of electronic and thermal Free Energies=         -100.901563

                     E (Thermal)             CV                S
                      KCal/Mol        Cal/Mol-Kelvin    Cal/Mol-Kelvin
 Total                    4.880              5.403             48.017
 Electronic               0.000              0.000              1.377
 Translational            0.889              2.981             35.068
 Rotational               0.592              1.987             11.482
 Vibrational              3.399              0.435              0.089

 Normal termination of Gaussian 16 at Fri Aug 22 16:27:38 2025.
