 Gaussian 16, Revision C.01,
 Gaussian 16:  ES64L-G16RevC.01  3-Jul-2019

 -----------------------------------------
 # sp b3lyp/6-311g** Force nosymm scf=(qc)
 -----------------------------------------

 -------------------
 Title Card Required
 -------------------
 Symbolic Z-matrix:
 Charge =  0 Multiplicity = 2

                          Input orientation:
 ---------------------------------------------------------------------
 Center     Atomic      Atomic             Coordinates (Angstroms)
 Number     Number       Type             X           Y           Z
 ---------------------------------------------------------------------
      1          1           0        0.000000    0.000000    0.000000
      2          1           0       -3.200000    0.000000    0.000000
      3          9           0        1.050000    0.000000    0.000000
 ---------------------------------------------------------------------

 SCF Done:  E(UB3LYP) =  -100.958339170     a.u. after    6 cycles

 Alpha  occ. eigenvalues --  -24.64229  -1.14861  -0.50600  -0.38418  -0.38418
 Alpha  occ. eigenvalues --   -0.34028
 Alpha virt. eigenvalues --   -0.00783   0.24099   0.32549   0.93825   0.93825
 Alpha virt. eigenvalues --    0.99075   1.23297   1.23495   1.23495   1.30132
 Alpha virt. eigenvalues --    1.35547   1.35547   1.84793   2.14267   2.33165

  Beta  occ. eigenvalues --  -24.64225  -1.14849  -0.50585  -0.38414  -0.38414
  Beta virt. eigenvalues --   -0.07142   0.00287   0.31705   0.38700   0.93825
  Beta virt. eigenvalues --    0.93825   0.99080   1.29608   1.35541   1.35541
  Beta virt. eigenvalues --    1.48519   1.48519   1.49020   1.84860   2.33113

 Mulliken charges and spin densities:
               1          2
     1  H    0.330055   0.000817
     2  H    0.001962   0.997622
     3  F   -0.332017   0.001561
 Sum of Mulliken charges =   0.00000   1.00000

 Dipole moment (field-independent basis, Debye):
    X=             -2.1204    Y=              0.0000    Z=              0.0000  Tot=              2.1204
 Quadrupole moment (field-independent basis, Debye-Ang):
   XX=             -8.3255   YY=             -7.0059   ZZ=             -7.0059
   XY=              0.0000   XZ=              0.0000   YZ=             -0.0000

  Exact polarizability:       7.796      -0.000       2.387       0.000      -0.000       2.387
 Approx polarizability:       9.679       0.000       2.356       0.000      -0.000       2.356

 ******    1 imaginary frequencies (negative Signs) ******

                      1                      2                      3
                      A                      A                      A
 Frequencies --    -66.7993              1116.7504              1116.7504
 Red. masses --      1.0531                 1.0348                 1.0348
 Frc consts  --      0.0028                 0.7604                 0.7604
 IR Inten    --      0.1676               160.2609               160.2609

                      4
                      A
 Frequencies --   2450.4045
 Red. masses --      1.0584
 Frc consts  --      3.7445
 IR Inten    --     89.5971

 - Thermochemistry -
 -------------------
 Temperature   298.150 Kelvin.  Pressure   1.00000 Atm.
 Atom     1 has atomic number  1 and mass   1.00783

 Molecular mass:    21.01405 amu.
 Principal axes and moments of inertia in atomic units:
                           1         2         3
     Eigenvalues --     0.00000  64.12647  64.12647
           X            1.00000  -0.00000   0.00000
           Y            0.00000   1.00000   0.00000
           Z            0.00000   0.00000   1.00000
 This molecule is a prolate symmetric top.
 Rotational symmetry number  1.
 Rotational temperature (Kelvin)      1.35067
 Rotational constant (GHZ):          28.143467
    1 imaginary frequencies ignored.
 Zero-point vibrational energy      28016.0 (Joules/Mol)
                                    6.69598 (Kcal/Mol)
 Vibrational temperatures:   1606.75  1606.75  3525.59
          (Kelvin)

 Zero-point correction=                           0.010671 (Hartree/Particle)
 Thermal correction to Energy=                    0.013078
 Thermal correction to Enthalpy=                  0.014022
 Thermal correction to Gibbs Free Energy=        -0.009390
 Sum of electronic and zero-point Energies=           -100.947668
 Sum of electronic and thermal Energies=              -100.945261
 Sum of electronic and thermal Enthalpies=            -100.944317
 Sum of electronic and thermal Free Energies=         -100.967729

                     E (Thermal)             CV                S
                      KCal/Mol        Cal/Mol-Kelvin    Cal/Mol-Kelvin
 Total                    8.207              5.502             49.274
 Electronic               0.000              0.000              1.377
 Translational            0.889              2.981             35.068
 Rotational               0.592              1.987             12.712
 Vibrational              6.725              0.534              0.117

 Normal termination of Gaussian 16 at Fri Aug 22 16:03:44 2025.
