 Gaussian 16, Revision C.01,
 Gaussian 16:  ES64L-G16RevC.01  3-Jul-2019

 -----------------------------------------
 # sp b3lyp/6-311g** Force nosymm scf=(qc)
 -----------------------------------------

 -------------------
 Title Card Required
 -------------------
 Symbolic Z-matrix:
 Charge =  0 Multiplicity = 2

                          Input orientation:
 ---------------------------------------------------------------------
 Center     Atomic      Atomic             Coordinates (Angstroms)
 Number     Number       Type             X           Y           Z
 ---------------------------------------------------------------------
      1          1           0        0.000000    0.000000    0.000000
      2          1           0       -2.300000    0.000000    0.000000
      3          9           0        3.850000    0.000000    0.000000
 ---------------------------------------------------------------------

 SCF Done:  E(UB3LYP) =  -100.765438974     a.u. after   34 cycles

 Alpha  occ. eigenvalues --  -24.75855  -1.21785  -0.54980  -0.46165  -0.46165
 Alpha  occ. eigenvalues --   -0.32676
 Alpha virt. eigenvalues --   -0.09914   0.25948   0.34015   0.86743   0.91179
 Alpha virt. eigenvalues --    0.91179   1.01162   1.25090   1.25090   1.25385
 Alpha virt. eigenvalues --    1.40334   1.40334   1.44210   2.14916   2.35583

  Beta  occ. eigenvalues --  -24.72713  -1.12751  -0.43015  -0.43015  -0.32795
  Beta virt. eigenvalues --   -0.25739  -0.09708   0.25790   0.34316   0.92677
  Beta virt. eigenvalues --    0.92677   0.96091   1.05280   1.24956   1.24956
  Beta virt. eigenvalues --    1.25259   1.40626   1.40626   1.44468   2.15114

 Mulliken charges and spin densities:
               1          2
     1  H    0.001569  -0.940775
     2  H    0.001775   0.944631
     3  F   -0.003344   0.996144
 Sum of Mulliken charges =   0.00000   1.00000

 Dipole moment (field-independent basis, Debye):
    X=             -0.0854    Y=             -0.0000    Z=             -0.0000  Tot=              0.0854
 Quadrupole moment (field-independent basis, Debye-Ang):
   XX=             -6.6301   YY=             -7.6878   ZZ=             -7.6878
   XY=             -0.0000   XZ=             -0.0000   YZ=              0.0000

  Exact polarizability:      26.290      -0.000       2.016      -0.000       0.000       2.016
 Approx polarizability:      20.781      -0.000       1.931      -0.000       0.000       1.931

 ******    2 imaginary frequencies (negative Signs) ******

                      1                      2                      3
                      A                      A                      A
 Frequencies --   -882.1972               -86.7592               336.6735
 Red. masses --      1.0078                 1.1085                 1.0129
 Frc consts  --      0.4621                 0.0049                 0.0676
 IR Inten    --      1.2250                 1.3763                 0.0008

                      4
                      A
 Frequencies --    336.6735
 Red. masses --      1.0129
 Frc consts  --      0.0676
 IR Inten    --      0.0008

 - Thermochemistry -
 -------------------
 Temperature   298.150 Kelvin.  Pressure   1.00000 Atm.
 Atom     1 has atomic number  1 and mass   1.00783

 Molecular mass:    21.01405 amu.
 Principal axes and moments of inertia in atomic units:
                           1         2         3
     Eigenvalues --     0.00000 172.20911 172.20911
           X            1.00000  -0.00000   0.00000
           Y            0.00000   1.00000   0.00000
           Z            0.00000   0.00000   1.00000
 This molecule is a prolate symmetric top.
 Rotational symmetry number  1.
 Rotational temperature (Kelvin)      0.50296
 Rotational constant (GHZ):          10.479940
    2 imaginary frequencies ignored.
 Zero-point vibrational energy       4027.5 (Joules/Mol)
                                    0.96260 (Kcal/Mol)
 Warning -- explicit consideration of   2 degrees of freedom as
           vibrations may cause significant error
 Vibrational temperatures:    484.40   484.40
          (Kelvin)

 Zero-point correction=                           0.001534 (Hartree/Particle)
 Thermal correction to Energy=                    0.004647
 Thermal correction to Enthalpy=                  0.005591
 Thermal correction to Gibbs Free Energy=        -0.019865
 Sum of electronic and zero-point Energies=           -100.763905
 Sum of electronic and thermal Energies=              -100.760792
 Sum of electronic and thermal Enthalpies=            -100.759848
 Sum of electronic and thermal Free Energies=         -100.785304

                     E (Thermal)             CV                S
                      KCal/Mol        Cal/Mol-Kelvin    Cal/Mol-Kelvin
 Total                    2.916              8.173             53.576
 Electronic               0.000              0.000              1.377
 Translational            0.889              2.981             35.068
 Rotational               0.592              1.987             14.675
 Vibrational              1.435              3.204              2.456
 Vibration     1          0.717              1.602              1.228
 Vibration     2          0.717              1.602              1.228

 Normal termination of Gaussian 16 at Sat Aug 23 01:08:41 2025.
