 Gaussian 16, Revision C.01,
 Gaussian 16:  ES64L-G16RevC.01  3-Jul-2019

 -----------------------------------------
 # sp b3lyp/6-311g** Force nosymm scf=(qc)
 -----------------------------------------

 -------------------
 Title Card Required
 -------------------
 Symbolic Z-matrix:
 Charge =  0 Multiplicity = 2

                          Input orientation:
 ---------------------------------------------------------------------
 Center     Atomic      Atomic             Coordinates (Angstroms)
 Number     Number       Type             X           Y           Z
 ---------------------------------------------------------------------
      1          1           0        0.000000    0.000000    0.000000
      2          1           0       -2.850000    0.000000    0.000000
      3          9           0        3.250000    0.000000    0.000000
 ---------------------------------------------------------------------

 SCF Done:  E(UB3LYP) =  -100.761190618     a.u. after   24 cycles

 Alpha  occ. eigenvalues --  -24.74887  -1.20886  -0.54008  -0.45346  -0.45346
 Alpha  occ. eigenvalues --   -0.32621
 Alpha virt. eigenvalues --   -0.08852   0.25079   0.35000   0.88515   0.91789
 Alpha virt. eigenvalues --    0.91789   1.02657   1.24937   1.24937   1.26015
 Alpha virt. eigenvalues --    1.42637   1.42637   1.42953   2.15778   2.38822

  Beta  occ. eigenvalues --  -24.71806  -1.12043  -0.42260  -0.42260  -0.33257
  Beta virt. eigenvalues --   -0.25226  -0.07975   0.24920   0.36215   0.93267
  Beta virt. eigenvalues --    0.93267   0.97495   1.06593   1.24185   1.24185
  Beta virt. eigenvalues --    1.25183   1.44044   1.44044   1.44262   2.16368

 Mulliken charges and spin densities:
               1          2
     1  H    0.019592  -0.965506
     2  H    0.001557   0.988880
     3  F   -0.021149   0.976626
 Sum of Mulliken charges =  -0.00000   1.00000

 Dipole moment (field-independent basis, Debye):
    X=             -0.3743    Y=             -0.0000    Z=             -0.0000  Tot=              0.3743
 Quadrupole moment (field-independent basis, Debye-Ang):
   XX=             -7.6696   YY=             -7.6369   ZZ=             -7.6369
   XY=             -0.0000   XZ=             -0.0000   YZ=             -0.0000

  Exact polarizability:      33.714      -0.000       2.024      -0.000      -0.000       2.024
 Approx polarizability:      28.604      -0.000       1.927      -0.000       0.000       1.927

 ******    2 imaginary frequencies (negative Signs) ******

                      1                      2                      3
                      A                      A                      A
 Frequencies --   -449.8716              -171.8417               161.9718
 Red. masses --      1.0123                 1.1031                 1.0164
 Frc consts  --      0.1207                 0.0192                 0.0157
 IR Inten    --     16.2327                 8.1274                 0.3228

                      4
                      A
 Frequencies --    161.9718
 Red. masses --      1.0164
 Frc consts  --      0.0157
 IR Inten    --      0.3228

 - Thermochemistry -
 -------------------
 Temperature   298.150 Kelvin.  Pressure   1.00000 Atm.
 Atom     1 has atomic number  1 and mass   1.00783

 Molecular mass:    21.01405 amu.
 Principal axes and moments of inertia in atomic units:
                           1         2         3
     Eigenvalues --     0.00000 156.84391 156.84391
           X            1.00000  -0.00000   0.00000
           Y            0.00000   1.00000   0.00000
           Z            0.00000   0.00000   1.00000
 This molecule is a prolate symmetric top.
 Rotational symmetry number  1.
 Rotational temperature (Kelvin)      0.55223
 Rotational constant (GHZ):          11.506607
    2 imaginary frequencies ignored.
 Zero-point vibrational energy       1937.6 (Joules/Mol)
                                    0.46310 (Kcal/Mol)
 Warning -- explicit consideration of   2 degrees of freedom as
           vibrations may cause significant error
 Vibrational temperatures:    233.04   233.04
          (Kelvin)

 Zero-point correction=                           0.000738 (Hartree/Particle)
 Thermal correction to Energy=                    0.004344
 Thermal correction to Enthalpy=                  0.005288
 Thermal correction to Gibbs Free Energy=        -0.021314
 Sum of electronic and zero-point Energies=           -100.760453
 Sum of electronic and thermal Energies=              -100.756847
 Sum of electronic and thermal Enthalpies=            -100.755902
 Sum of electronic and thermal Free Energies=         -100.782504

                     E (Thermal)             CV                S
                      KCal/Mol        Cal/Mol-Kelvin    Cal/Mol-Kelvin
 Total                    2.726              8.746             55.988
 Electronic               0.000              0.000              1.377
 Translational            0.889              2.981             35.068
 Rotational               0.592              1.987             14.489
 Vibrational              1.245              3.778              5.053
 Vibration     1          0.622              1.889              2.527
 Vibration     2          0.622              1.889              2.527

 Normal termination of Gaussian 16 at Fri Aug 22 20:35:27 2025.
