 Gaussian 16, Revision C.01,
 Gaussian 16:  ES64L-G16RevC.01  3-Jul-2019

 -----------------------------------------
 # sp b3lyp/6-311g** Force nosymm scf=(qc)
 -----------------------------------------

 -------------------
 Title Card Required
 -------------------
 Symbolic Z-matrix:
 Charge =  0 Multiplicity = 2

                          Input orientation:
 ---------------------------------------------------------------------
 Center     Atomic      Atomic             Coordinates (Angstroms)
 Number     Number       Type             X           Y           Z
 ---------------------------------------------------------------------
      1          1           0        0.000000    0.000000    0.000000
      2          1           0       -0.600000    0.000000    0.000000
      3          9           0        1.300000    0.000000    0.000000
 ---------------------------------------------------------------------

 SCF Done:  E(UB3LYP) =  -100.908239828     a.u. after    7 cycles

 Alpha  occ. eigenvalues --  -24.70107  -1.18479  -0.60991  -0.42425  -0.42425
 Alpha  occ. eigenvalues --   -0.41233
 Alpha virt. eigenvalues --    0.12121   0.19172   0.53618   0.87624   0.87624
 Alpha virt. eigenvalues --    0.95993   1.11647   1.11647   1.47207   1.61040
 Alpha virt. eigenvalues --    1.86893   1.89574   1.89574   2.43910   3.76050

  Beta  occ. eigenvalues --  -24.67587  -1.11790  -0.52835  -0.40030  -0.40030
  Beta virt. eigenvalues --   -0.21300   0.13309   0.19925   0.56893   0.88960
  Beta virt. eigenvalues --    0.88960   1.01486   1.14369   1.14369   1.50923
  Beta virt. eigenvalues --    1.64767   1.87973   1.91481   1.91481   2.48215

 Mulliken charges and spin densities:
               1          2
     1  H    0.201854  -0.021539
     2  H   -0.023143   0.293389
     3  F   -0.178711   0.728150
 Sum of Mulliken charges =   0.00000   1.00000

 Dipole moment (field-independent basis, Debye):
    X=             -1.1676    Y=              0.0000    Z=             -0.0000  Tot=              1.1676
 Quadrupole moment (field-independent basis, Debye-Ang):
   XX=             -6.9584   YY=             -6.5379   ZZ=             -6.5379
   XY=              0.0000   XZ=             -0.0000   YZ=             -0.0000

  Exact polarizability:      14.907       0.000       2.353       0.000       0.000       2.353
 Approx polarizability:      18.319       0.000       2.407       0.000       0.000       2.407

 ******    2 imaginary frequencies (negative Signs) ******

                      1                      2                      3
                      A                      A                      A
 Frequencies --  -3045.9565             -3045.9565               845.1778
 Red. masses --      1.0113                 1.0113                 1.1084
 Frc consts  --      5.5279                 5.5279                 0.4665
 IR Inten    --      2.0753                 2.0753                47.9392

                      4
                      A
 Frequencies --   6727.5755
 Red. masses --      1.0079
 Frc consts  --     26.8778
 IR Inten    --    501.5411

 - Thermochemistry -
 -------------------
 Temperature   298.150 Kelvin.  Pressure   1.00000 Atm.
 Atom     1 has atomic number  1 and mass   1.00783

 Molecular mass:    21.01405 amu.
 Principal axes and moments of inertia in atomic units:
                           1         2         3
     Eigenvalues --     0.00000  17.30725  17.30725
           X            1.00000  -0.00000   0.00000
           Y            0.00000   1.00000   0.00000
           Z            0.00000   0.00000   1.00000
 This molecule is a prolate symmetric top.
 Rotational symmetry number  1.
 Rotational temperature (Kelvin)      5.00449
 Rotational constant (GHZ):         104.276598
    2 imaginary frequencies ignored.
 Zero-point vibrational energy      45295.1 (Joules/Mol)
                                   10.82579 (Kcal/Mol)
 Vibrational temperatures:   1216.02  9679.48
          (Kelvin)

 Zero-point correction=                           0.017252 (Hartree/Particle)
 Thermal correction to Energy=                    0.019679
 Thermal correction to Enthalpy=                  0.020623
 Thermal correction to Gibbs Free Energy=        -0.001579
 Sum of electronic and zero-point Energies=           -100.890988
 Sum of electronic and thermal Energies=              -100.888561
 Sum of electronic and thermal Enthalpies=            -100.887617
 Sum of electronic and thermal Free Energies=         -100.909819

                     E (Thermal)             CV                S
                      KCal/Mol        Cal/Mol-Kelvin    Cal/Mol-Kelvin
 Total                   12.349              5.547             46.728
 Electronic               0.000              0.000              1.377
 Translational            0.889              2.981             35.068
 Rotational               0.592              1.987             10.109
 Vibrational             10.867              0.579              0.174

 Normal termination of Gaussian 16 at Fri Aug 22 16:14:01 2025.
