 Gaussian 16, Revision C.01,
 Gaussian 16:  ES64L-G16RevC.01  3-Jul-2019

 -----------------------------------------
 # sp b3lyp/6-311g** Force nosymm scf=(qc)
 -----------------------------------------

 -------------------
 Title Card Required
 -------------------
 Symbolic Z-matrix:
 Charge =  0 Multiplicity = 2

                          Input orientation:
 ---------------------------------------------------------------------
 Center     Atomic      Atomic             Coordinates (Angstroms)
 Number     Number       Type             X           Y           Z
 ---------------------------------------------------------------------
      1          1           0        0.000000    0.000000    0.000000
      2          1           0       -3.650000    0.000000    0.000000
      3          9           0        3.800000    0.000000    0.000000
 ---------------------------------------------------------------------

 SCF Done:  E(UB3LYP) =  -100.758642095     a.u. after   33 cycles

 Alpha  occ. eigenvalues --  -24.75751  -1.21687  -0.54875  -0.46074  -0.46074
 Alpha  occ. eigenvalues --   -0.32265
 Alpha virt. eigenvalues --   -0.06498   0.24256   0.37614   0.86855   0.91252
 Alpha virt. eigenvalues --    0.91252   1.01265   1.25234   1.25234   1.25321
 Alpha virt. eigenvalues --    1.45757   1.45943   1.45943   2.14886   2.41625

  Beta  occ. eigenvalues --  -24.72614  -1.12667  -0.42929  -0.42929  -0.32544
  Beta virt. eigenvalues --   -0.25668  -0.06219   0.24064   0.38105   0.92749
  Beta virt. eigenvalues --    0.92749   0.96158   1.05360   1.24926   1.24926
  Beta virt. eigenvalues --    1.24997   1.46196   1.46392   1.46392   2.14920

 Mulliken charges and spin densities:
               1          2
     1  H    0.004683  -0.993269
     2  H    0.000066   0.998522
     3  F   -0.004749   0.994747
 Sum of Mulliken charges =  -0.00000   1.00000

 Dipole moment (field-independent basis, Debye):
    X=             -0.0943    Y=             -0.0000    Z=              0.0000  Tot=              0.0943
 Quadrupole moment (field-independent basis, Debye-Ang):
   XX=             -7.0550   YY=             -7.6215   ZZ=             -7.6215
   XY=              0.0000   XZ=             -0.0000   YZ=              0.0000

  Exact polarizability:      15.117      -0.000       2.031      -0.000       0.000       2.031
 Approx polarizability:      11.167       0.000       1.936      -0.000      -0.000       1.936

 ******    2 imaginary frequencies (negative Signs) ******

                      1                      2                      3
                      A                      A                      A
 Frequencies --   -184.9463               -78.6786                59.5843
 Red. masses --      1.0196                 1.0946                 1.0175
 Frc consts  --      0.0205                 0.0040                 0.0021
 IR Inten    --      2.7501                 0.6315                 0.0214

                      4
                      A
 Frequencies --     59.5843
 Red. masses --      1.0175
 Frc consts  --      0.0021
 IR Inten    --      0.0214

 - Thermochemistry -
 -------------------
 Temperature   298.150 Kelvin.  Pressure   1.00000 Atm.
 Atom     1 has atomic number  1 and mass   1.00783

 Molecular mass:    21.01405 amu.
 Principal axes and moments of inertia in atomic units:
                           1         2         3
     Eigenvalues --     0.00000 229.87809 229.87809
           X            1.00000  -0.00000   0.00000
           Y            0.00000   1.00000   0.00000
           Z            0.00000   0.00000   1.00000
 This molecule is a prolate symmetric top.
 Rotational symmetry number  1.
 Rotational temperature (Kelvin)      0.37678
 Rotational constant (GHZ):           7.850862
    2 imaginary frequencies ignored.
 Zero-point vibrational energy        712.8 (Joules/Mol)
                                    0.17036 (Kcal/Mol)
 Warning -- explicit consideration of   2 degrees of freedom as
           vibrations may cause significant error
 Vibrational temperatures:     85.73    85.73
          (Kelvin)

 Zero-point correction=                           0.000271 (Hartree/Particle)
 Thermal correction to Energy=                    0.004262
 Thermal correction to Enthalpy=                  0.005206
 Thermal correction to Gibbs Free Energy=        -0.023604
 Sum of electronic and zero-point Energies=           -100.758371
 Sum of electronic and thermal Energies=              -100.754380
 Sum of electronic and thermal Enthalpies=            -100.753436
 Sum of electronic and thermal Free Energies=         -100.782246

                     E (Thermal)             CV                S
                      KCal/Mol        Cal/Mol-Kelvin    Cal/Mol-Kelvin
 Total                    2.674              8.915             60.636
 Electronic               0.000              0.000              1.377
 Translational            0.889              2.981             35.068
 Rotational               0.592              1.987             15.249
 Vibrational              1.193              3.947              8.942
 Vibration     1          0.597              1.974              4.471
 Vibration     2          0.597              1.974              4.471

 Normal termination of Gaussian 16 at Sat Aug 23 00:52:31 2025.
