 Gaussian 16, Revision C.01,
 Gaussian 16:  ES64L-G16RevC.01  3-Jul-2019

 -----------------------------------------
 # sp b3lyp/6-311g** Force nosymm scf=(qc)
 -----------------------------------------

 -------------------
 Title Card Required
 -------------------
 Symbolic Z-matrix:
 Charge =  0 Multiplicity = 2

                          Input orientation:
 ---------------------------------------------------------------------
 Center     Atomic      Atomic             Coordinates (Angstroms)
 Number     Number       Type             X           Y           Z
 ---------------------------------------------------------------------
      1          1           0        0.000000    0.000000    0.000000
      2          1           0       -1.300000    0.000000    0.000000
      3          9           0        1.800000    0.000000    0.000000
 ---------------------------------------------------------------------

 SCF Done:  E(UB3LYP) =  -100.869975528     a.u. after   13 cycles

 Alpha  occ. eigenvalues --  -24.69473  -1.15959  -0.49800  -0.40946  -0.40946
 Alpha  occ. eigenvalues --   -0.39367
 Alpha virt. eigenvalues --   -0.06257   0.21331   0.31623   0.90585   0.92707
 Alpha virt. eigenvalues --    0.92707   1.04326   1.11904   1.11904   1.42187
 Alpha virt. eigenvalues --    1.46587   1.46587   2.00506   2.24587   2.50821

  Beta  occ. eigenvalues --  -24.67005  -1.09073  -0.39470  -0.38517  -0.38517
  Beta virt. eigenvalues --   -0.23810  -0.03934   0.23116   0.32107   0.93571
  Beta virt. eigenvalues --    0.93571   0.95733   1.07819   1.14441   1.14441
  Beta virt. eigenvalues --    1.46327   1.47820   1.47820   2.03135   2.26209

 Mulliken charges and spin densities:
               1          2
     1  H    0.104765  -0.210872
     2  H    0.065661   0.440888
     3  F   -0.170426   0.769983
 Sum of Mulliken charges =   0.00000   1.00000

 Dipole moment (field-independent basis, Debye):
    X=             -1.9013    Y=             -0.0000    Z=              0.0000  Tot=              1.9013
 Quadrupole moment (field-independent basis, Debye-Ang):
   XX=             -7.4967   YY=             -7.3605   ZZ=             -7.3605
   XY=             -0.0000   XZ=              0.0000   YZ=             -0.0000

  Exact polarizability:      42.835      -0.000       2.218       0.000      -0.000       2.218
 Approx polarizability:      66.749       0.000       2.183      -0.000       0.000       2.183

 ******    2 imaginary frequencies (negative Signs) ******

                      1                      2                      3
                      A                      A                      A
 Frequencies --  -2152.8532              -336.0640              1247.1347
 Red. masses --      1.0169                 1.0978                 1.0145
 Frc consts  --      2.7768                 0.0730                 0.9297
 IR Inten    --   1163.2549                 0.0662                 2.3401

                      4
                      A
 Frequencies --   1247.1347
 Red. masses --      1.0145
 Frc consts  --      0.9297
 IR Inten    --      2.3401

 - Thermochemistry -
 -------------------
 Temperature   298.150 Kelvin.  Pressure   1.00000 Atm.
 Atom     1 has atomic number  1 and mass   1.00783

 Molecular mass:    21.01405 amu.
 Principal axes and moments of inertia in atomic units:
                           1         2         3
     Eigenvalues --     0.00000  42.10297  42.10297
           X            1.00000  -0.00000   0.00000
           Y            0.00000   1.00000   0.00000
           Z            0.00000   0.00000   1.00000
 This molecule is a prolate symmetric top.
 Rotational symmetry number  1.
 Rotational temperature (Kelvin)      2.05719
 Rotational constant (GHZ):          42.864940
    2 imaginary frequencies ignored.
 Zero-point vibrational energy      14919.0 (Joules/Mol)
                                    3.56574 (Kcal/Mol)
 Vibrational temperatures:   1794.35  1794.35
          (Kelvin)

 Zero-point correction=                           0.005682 (Hartree/Particle)
 Thermal correction to Energy=                    0.008071
 Thermal correction to Enthalpy=                  0.009015
 Thermal correction to Gibbs Free Energy=        -0.013977
 Sum of electronic and zero-point Energies=           -100.864293
 Sum of electronic and thermal Energies=              -100.861905
 Sum of electronic and thermal Enthalpies=            -100.860961
 Sum of electronic and thermal Free Energies=         -100.883952

                     E (Thermal)             CV                S
                      KCal/Mol        Cal/Mol-Kelvin    Cal/Mol-Kelvin
 Total                    5.064              5.320             48.390
 Electronic               0.000              0.000              1.377
 Translational            0.889              2.981             35.068
 Rotational               0.592              1.987             11.876
 Vibrational              3.583              0.352              0.068

 Normal termination of Gaussian 16 at Fri Aug 22 16:42:52 2025.
