 Gaussian 16, Revision C.01,
 Gaussian 16:  ES64L-G16RevC.01  3-Jul-2019

 -----------------------------------------
 # sp b3lyp/6-311g** Force nosymm scf=(qc)
 -----------------------------------------

 -------------------
 Title Card Required
 -------------------
 Symbolic Z-matrix:
 Charge =  0 Multiplicity = 2

                          Input orientation:
 ---------------------------------------------------------------------
 Center     Atomic      Atomic             Coordinates (Angstroms)
 Number     Number       Type             X           Y           Z
 ---------------------------------------------------------------------
      1          1           0        0.000000    0.000000    0.000000
      2          1           0       -0.950000    0.000000    0.000000
      3          9           0        0.650000    0.000000    0.000000
 ---------------------------------------------------------------------

 SCF Done:  E(UB3LYP) =  -100.748253422     a.u. after    6 cycles

 Alpha  occ. eigenvalues --  -24.65130  -1.35003  -0.65259  -0.44501  -0.44501
 Alpha  occ. eigenvalues --   -0.33454
 Alpha virt. eigenvalues --    0.16483   0.19551   0.75061   0.88029   0.88029
 Alpha virt. eigenvalues --    0.92008   1.09443   1.09443   1.47844   1.73481
 Alpha virt. eigenvalues --    1.73481   1.74652   2.17198   2.40312   3.76372

  Beta  occ. eigenvalues --  -24.64671  -1.33573  -0.62766  -0.44127  -0.44127
  Beta virt. eigenvalues --   -0.12539   0.17207   0.25819   0.80184   0.89487
  Beta virt. eigenvalues --    0.89487   0.93432   1.16798   1.16798   1.48860
  Beta virt. eigenvalues --    1.79308   1.79308   1.80941   2.26693   2.53496

 Mulliken charges and spin densities:
               1          2
     1  H    0.258171  -0.010103
     2  H   -0.035923   0.947172
     3  F   -0.222248   0.062931
 Sum of Mulliken charges =   0.00000   1.00000

 Dipole moment (field-independent basis, Debye):
    X=             -1.0827    Y=              0.0000    Z=              0.0000  Tot=              1.0827
 Quadrupole moment (field-independent basis, Debye-Ang):
   XX=             -7.3500   YY=             -6.4485   ZZ=             -6.4485
   XY=              0.0000   XZ=              0.0000   YZ=              0.0000

  Exact polarizability:       7.583      -0.000       2.533      -0.000      -0.000       2.533
 Approx polarizability:       7.418      -0.000       2.595       0.000      -0.000       2.595

 ******    2 imaginary frequencies (negative Signs) ******

                      1                      2                      3
                      A                      A                      A
 Frequencies --  -4584.7937             -4584.7937              2324.5220
 Red. masses --      1.0231                 1.0231                 1.0556
 Frc consts  --     12.6713                12.6713                 3.3605
 IR Inten    --    133.9976               133.9976               104.5304

                      4
                      A
 Frequencies --  10855.5038
 Red. masses --      1.0560
 Frc consts  --     73.3179
 IR Inten    --     59.2792

 - Thermochemistry -
 -------------------
 Temperature   298.150 Kelvin.  Pressure   1.00000 Atm.
 Atom     1 has atomic number  1 and mass   1.00783

 Molecular mass:    21.01405 amu.
 Principal axes and moments of inertia in atomic units:
                           1         2         3
     Eigenvalues --     0.00000   9.86022   9.86022
           X            1.00000  -0.00000   0.00000
           Y            0.00000   1.00000   0.00000
           Z            0.00000   0.00000   1.00000
 This molecule is a prolate symmetric top.
 Rotational symmetry number  1.
 Rotational temperature (Kelvin)      8.78418
 Rotational constant (GHZ):         183.032541
    2 imaginary frequencies ignored.
 Zero-point vibrational energy      78834.1 (Joules/Mol)
                                   18.84179 (Kcal/Mol)
 Vibrational temperatures:   3344.47 15618.65
          (Kelvin)

 Zero-point correction=                           0.030026 (Hartree/Particle)
 Thermal correction to Energy=                    0.032387
 Thermal correction to Enthalpy=                  0.033331
 Thermal correction to Gibbs Free Energy=         0.011742
 Sum of electronic and zero-point Energies=           -100.718227
 Sum of electronic and thermal Energies=              -100.715867
 Sum of electronic and thermal Enthalpies=            -100.714922
 Sum of electronic and thermal Free Energies=         -100.736511

                     E (Thermal)             CV                S
                      KCal/Mol        Cal/Mol-Kelvin    Cal/Mol-Kelvin
 Total                   20.323              4.971             45.437
 Electronic               0.000              0.000              1.377
 Translational            0.889              2.981             35.068
 Rotational               0.592              1.987              8.991
 Vibrational             18.842              0.003              0.000

 Normal termination of Gaussian 16 at Fri Aug 22 15:43:20 2025.
