 Gaussian 16, Revision C.01,
 Gaussian 16:  ES64L-G16RevC.01  3-Jul-2019

 -----------------------------------------
 # sp b3lyp/6-311g** Force nosymm scf=(qc)
 -----------------------------------------

 -------------------
 Title Card Required
 -------------------
 Symbolic Z-matrix:
 Charge =  0 Multiplicity = 2

                          Input orientation:
 ---------------------------------------------------------------------
 Center     Atomic      Atomic             Coordinates (Angstroms)
 Number     Number       Type             X           Y           Z
 ---------------------------------------------------------------------
      1          1           0        0.000000    0.000000    0.000000
      2          1           0       -2.850000    0.000000    0.000000
      3          9           0        3.050000    0.000000    0.000000
 ---------------------------------------------------------------------

 SCF Done:  E(UB3LYP) =  -100.762129720     a.u. after   22 cycles

 Alpha  occ. eigenvalues --  -24.74291  -1.20334  -0.53410  -0.44846  -0.44846
 Alpha  occ. eigenvalues --   -0.32758
 Alpha virt. eigenvalues --   -0.09292   0.24945   0.34696   0.89293   0.92152
 Alpha virt. eigenvalues --    0.92152   1.03654   1.24801   1.24801   1.25941
 Alpha virt. eigenvalues --    1.42016   1.42016   1.42550   2.15659   2.38524

  Beta  occ. eigenvalues --  -24.71250  -1.11617  -0.41802  -0.41802  -0.33655
  Beta virt. eigenvalues --   -0.24898  -0.08041   0.24931   0.36179   0.93618
  Beta virt. eigenvalues --    0.93618   0.98091   1.07507   1.23747   1.23747
  Beta virt. eigenvalues --    1.24879   1.44004   1.44004   1.44233   2.16280

 Mulliken charges and spin densities:
               1          2
     1  H    0.030750  -0.952576
     2  H    0.002185   0.988967
     3  F   -0.032935   0.963608
 Sum of Mulliken charges =  -0.00000   1.00000

 Dipole moment (field-independent basis, Debye):
    X=             -0.5456    Y=             -0.0000    Z=             -0.0000  Tot=              0.5456
 Quadrupole moment (field-independent basis, Debye-Ang):
   XX=             -8.0425   YY=             -7.6307   ZZ=             -7.6307
   XY=             -0.0000   XZ=             -0.0000   YZ=             -0.0000

  Exact polarizability:      36.466      -0.000       2.021      -0.000      -0.000       2.021
 Approx polarizability:      34.068      -0.000       1.924      -0.000       0.000       1.924

 ******    2 imaginary frequencies (negative Signs) ******

                      1                      2                      3
                      A                      A                      A
 Frequencies --   -481.8176              -199.8050               178.0543
 Red. masses --      1.0171                 1.0975                 1.0171
 Frc consts  --      0.1391                 0.0258                 0.0190
 IR Inten    --     27.6291                 9.4142                 0.8152

                      4
                      A
 Frequencies --    178.0543
 Red. masses --      1.0171
 Frc consts  --      0.0190
 IR Inten    --      0.8152

 - Thermochemistry -
 -------------------
 Temperature   298.150 Kelvin.  Pressure   1.00000 Atm.
 Atom     1 has atomic number  1 and mass   1.00783

 Molecular mass:    21.01405 amu.
 Principal axes and moments of inertia in atomic units:
                           1         2         3
     Eigenvalues --     0.00000 144.93502 144.93502
           X            1.00000  -0.00000   0.00000
           Y            0.00000   1.00000   0.00000
           Z            0.00000   0.00000   1.00000
 This molecule is a prolate symmetric top.
 Rotational symmetry number  1.
 Rotational temperature (Kelvin)      0.59761
 Rotational constant (GHZ):          12.452071
    2 imaginary frequencies ignored.
 Zero-point vibrational energy       2130.0 (Joules/Mol)
                                    0.50908 (Kcal/Mol)
 Warning -- explicit consideration of   2 degrees of freedom as
           vibrations may cause significant error
 Vibrational temperatures:    256.18   256.18
          (Kelvin)

 Zero-point correction=                           0.000811 (Hartree/Particle)
 Thermal correction to Energy=                    0.004364
 Thermal correction to Enthalpy=                  0.005308
 Thermal correction to Gibbs Free Energy=        -0.021050
 Sum of electronic and zero-point Energies=           -100.761318
 Sum of electronic and thermal Energies=              -100.757766
 Sum of electronic and thermal Enthalpies=            -100.756822
 Sum of electronic and thermal Free Energies=         -100.783180

                     E (Thermal)             CV                S
                      KCal/Mol        Cal/Mol-Kelvin    Cal/Mol-Kelvin
 Total                    2.738              8.707             55.475
 Electronic               0.000              0.000              1.377
 Translational            0.889              2.981             35.068
 Rotational               0.592              1.987             14.333
 Vibrational              1.257              3.739              4.697
 Vibration     1          0.628              1.869              2.349
 Vibration     2          0.628              1.869              2.349

 Normal termination of Gaussian 16 at Fri Aug 22 19:44:37 2025.
