 Gaussian 16, Revision C.01,
 Gaussian 16:  ES64L-G16RevC.01  3-Jul-2019

 -----------------------------------------
 # sp b3lyp/6-311g** Force nosymm scf=(qc)
 -----------------------------------------

 -------------------
 Title Card Required
 -------------------
 Symbolic Z-matrix:
 Charge =  0 Multiplicity = 2

                          Input orientation:
 ---------------------------------------------------------------------
 Center     Atomic      Atomic             Coordinates (Angstroms)
 Number     Number       Type             X           Y           Z
 ---------------------------------------------------------------------
      1          1           0        0.000000    0.000000    0.000000
      2          1           0       -2.450000    0.000000    0.000000
      3          9           0        3.850000    0.000000    0.000000
 ---------------------------------------------------------------------

 SCF Done:  E(UB3LYP) =  -100.763148557     a.u. after   35 cycles

 Alpha  occ. eigenvalues --  -24.75837  -1.21768  -0.54962  -0.46149  -0.46149
 Alpha  occ. eigenvalues --   -0.32579
 Alpha virt. eigenvalues --   -0.09404   0.25832   0.34559   0.86751   0.91193
 Alpha virt. eigenvalues --    0.91193   1.01174   1.25096   1.25096   1.26520
 Alpha virt. eigenvalues --    1.41406   1.41406   1.43401   2.15711   2.36425

  Beta  occ. eigenvalues --  -24.72696  -1.12736  -0.43000  -0.43000  -0.32729
  Beta virt. eigenvalues --   -0.25724  -0.09168   0.25665   0.34888   0.92690
  Beta virt. eigenvalues --    0.92690   0.96097   1.05291   1.24929   1.24929
  Beta virt. eigenvalues --    1.26334   1.41745   1.41745   1.43730   2.15880

 Mulliken charges and spin densities:
               1          2
     1  H    0.002242  -0.960781
     2  H    0.001280   0.964799
     3  F   -0.003522   0.995981
 Sum of Mulliken charges =  -0.00000   1.00000

 Dipole moment (field-independent basis, Debye):
    X=             -0.0846    Y=             -0.0000    Z=             -0.0000  Tot=              0.0846
 Quadrupole moment (field-independent basis, Debye-Ang):
   XX=             -6.7316   YY=             -7.6718   ZZ=             -7.6718
   XY=             -0.0000   XZ=             -0.0000   YZ=             -0.0000

  Exact polarizability:      23.396      -0.000       2.018      -0.000      -0.000       2.018
 Approx polarizability:      17.770      -0.000       1.931      -0.000      -0.000       1.931

 ******    2 imaginary frequencies (negative Signs) ******

                      1                      2                      3
                      A                      A                      A
 Frequencies --   -710.1987               -87.4774               264.7943
 Red. masses --      1.0079                 1.1085                 1.0134
 Frc consts  --      0.2995                 0.0050                 0.0419
 IR Inten    --      1.1851                 1.3708                 0.0029

                      4
                      A
 Frequencies --    264.7943
 Red. masses --      1.0134
 Frc consts  --      0.0419
 IR Inten    --      0.0029

 - Thermochemistry -
 -------------------
 Temperature   298.150 Kelvin.  Pressure   1.00000 Atm.
 Atom     1 has atomic number  1 and mass   1.00783

 Molecular mass:    21.01405 amu.
 Principal axes and moments of inertia in atomic units:
                           1         2         3
     Eigenvalues --     0.00000 178.40856 178.40856
           X            1.00000  -0.00000   0.00000
           Y            0.00000   1.00000   0.00000
           Z            0.00000   0.00000   1.00000
 This molecule is a prolate symmetric top.
 Rotational symmetry number  1.
 Rotational temperature (Kelvin)      0.48548
 Rotational constant (GHZ):          10.115777
    2 imaginary frequencies ignored.
 Zero-point vibrational energy       3167.6 (Joules/Mol)
                                    0.75708 (Kcal/Mol)
 Warning -- explicit consideration of   2 degrees of freedom as
           vibrations may cause significant error
 Vibrational temperatures:    380.98   380.98
          (Kelvin)

 Zero-point correction=                           0.001206 (Hartree/Particle)
 Thermal correction to Energy=                    0.004499
 Thermal correction to Enthalpy=                  0.005443
 Thermal correction to Gibbs Free Energy=        -0.020428
 Sum of electronic and zero-point Energies=           -100.761942
 Sum of electronic and thermal Energies=              -100.758650
 Sum of electronic and thermal Enthalpies=            -100.757705
 Sum of electronic and thermal Free Energies=         -100.783577

                     E (Thermal)             CV                S
                      KCal/Mol        Cal/Mol-Kelvin    Cal/Mol-Kelvin
 Total                    2.823              8.443             54.451
 Electronic               0.000              0.000              1.377
 Translational            0.889              2.981             35.068
 Rotational               0.592              1.987             14.745
 Vibrational              1.342              3.475              3.260
 Vibration     1          0.671              1.738              1.630
 Vibration     2          0.671              1.738              1.630

 Normal termination of Gaussian 16 at Sat Aug 23 01:08:58 2025.
