 Gaussian 16, Revision C.01,
 Gaussian 16:  ES64L-G16RevC.01  3-Jul-2019

 -----------------------------------------
 # sp b3lyp/6-311g** Force nosymm scf=(qc)
 -----------------------------------------

 -------------------
 Title Card Required
 -------------------
 Symbolic Z-matrix:
 Charge =  0 Multiplicity = 2

                          Input orientation:
 ---------------------------------------------------------------------
 Center     Atomic      Atomic             Coordinates (Angstroms)
 Number     Number       Type             X           Y           Z
 ---------------------------------------------------------------------
      1          1           0        0.000000    0.000000    0.000000
      2          1           0       -3.700000    0.000000    0.000000
      3          9           0        3.750000    0.000000    0.000000
 ---------------------------------------------------------------------

 SCF Done:  E(UB3LYP) =  -100.758654141     a.u. after   32 cycles

 Alpha  occ. eigenvalues --  -24.75706  -1.21645  -0.54830  -0.46036  -0.46036
 Alpha  occ. eigenvalues --   -0.32268
 Alpha virt. eigenvalues --   -0.06450   0.24222   0.37569   0.86952   0.91281
 Alpha virt. eigenvalues --    0.91281   1.01330   1.25231   1.25231   1.25302
 Alpha virt. eigenvalues --    1.45865   1.45972   1.45972   2.14822   2.41771

  Beta  occ. eigenvalues --  -24.72571  -1.12634  -0.42893  -0.42893  -0.32576
  Beta virt. eigenvalues --   -0.25645  -0.06153   0.24017   0.38134   0.92777
  Beta virt. eigenvalues --    0.92777   0.96230   1.05414   1.24887   1.24887
  Beta virt. eigenvalues --    1.24942   1.46282   1.46465   1.46465   2.14873

 Mulliken charges and spin densities:
               1          2
     1  H    0.005512  -0.992537
     2  H    0.000064   0.998695
     3  F   -0.005576   0.993843
 Sum of Mulliken charges =   0.00000   1.00000

 Dipole moment (field-independent basis, Debye):
    X=             -0.1090    Y=              0.0000    Z=             -0.0000  Tot=              0.1090
 Quadrupole moment (field-independent basis, Debye-Ang):
   XX=             -7.1056   YY=             -7.6208   ZZ=             -7.6208
   XY=             -0.0000   XZ=              0.0000   YZ=             -0.0000

  Exact polarizability:      16.359      -0.000       2.030      -0.000      -0.000       2.030
 Approx polarizability:      12.128      -0.000       1.936       0.000       0.000       1.936

 ******    2 imaginary frequencies (negative Signs) ******

                      1                      2                      3
                      A                      A                      A
 Frequencies --   -185.5759               -79.1666                59.5419
 Red. masses --      1.0239                 1.0896                 1.0178
 Frc consts  --      0.0208                 0.0040                 0.0021
 IR Inten    --      3.6593                 0.5898                 0.0301

                      4
                      A
 Frequencies --     59.5419
 Red. masses --      1.0178
 Frc consts  --      0.0021
 IR Inten    --      0.0301

 - Thermochemistry -
 -------------------
 Temperature   298.150 Kelvin.  Pressure   1.00000 Atm.
 Atom     1 has atomic number  1 and mass   1.00783

 Molecular mass:    21.01405 amu.
 Principal axes and moments of inertia in atomic units:
                           1         2         3
     Eigenvalues --     0.00000 228.71322 228.71322
           X            1.00000  -0.00000   0.00000
           Y            0.00000   1.00000   0.00000
           Z            0.00000   0.00000   1.00000
 This molecule is a prolate symmetric top.
 Rotational symmetry number  1.
 Rotational temperature (Kelvin)      0.37870
 Rotational constant (GHZ):           7.890848
    2 imaginary frequencies ignored.
 Zero-point vibrational energy        712.3 (Joules/Mol)
                                    0.17024 (Kcal/Mol)
 Warning -- explicit consideration of   2 degrees of freedom as
           vibrations may cause significant error
 Vibrational temperatures:     85.67    85.67
          (Kelvin)

 Zero-point correction=                           0.000271 (Hartree/Particle)
 Thermal correction to Energy=                    0.004262
 Thermal correction to Enthalpy=                  0.005206
 Thermal correction to Gibbs Free Energy=        -0.023601
 Sum of electronic and zero-point Energies=           -100.758383
 Sum of electronic and thermal Energies=              -100.754392
 Sum of electronic and thermal Enthalpies=            -100.753448
 Sum of electronic and thermal Free Energies=         -100.782255

                     E (Thermal)             CV                S
                      KCal/Mol        Cal/Mol-Kelvin    Cal/Mol-Kelvin
 Total                    2.674              8.915             60.629
 Electronic               0.000              0.000              1.377
 Translational            0.889              2.981             35.068
 Rotational               0.592              1.987             15.239
 Vibrational              1.193              3.947              8.945
 Vibration     1          0.597              1.974              4.472
 Vibration     2          0.597              1.974              4.472

 Normal termination of Gaussian 16 at Sat Aug 23 00:28:09 2025.
