 Gaussian 16, Revision C.01,
 Gaussian 16:  ES64L-G16RevC.01  3-Jul-2019

 -----------------------------------------
 # sp b3lyp/6-311g** Force nosymm scf=(qc)
 -----------------------------------------

 -------------------
 Title Card Required
 -------------------
 Symbolic Z-matrix:
 Charge =  0 Multiplicity = 2

                          Input orientation:
 ---------------------------------------------------------------------
 Center     Atomic      Atomic             Coordinates (Angstroms)
 Number     Number       Type             X           Y           Z
 ---------------------------------------------------------------------
      1          1           0        0.000000    0.000000    0.000000
      2          1           0       -1.800000    0.000000    0.000000
      3          9           0        3.700000    0.000000    0.000000
 ---------------------------------------------------------------------

 SCF Done:  E(UB3LYP) =  -100.786110461     a.u. after  251 cycles

 Alpha  occ. eigenvalues --  -24.76221  -1.22116  -0.55320  -0.46495  -0.46476
 Alpha  occ. eigenvalues --   -0.32905
 Alpha virt. eigenvalues --   -0.10650   0.25963   0.31536   0.86051   0.90928
 Alpha virt. eigenvalues --    0.91596   1.01036   1.10172   1.24731   1.24732
 Alpha virt. eigenvalues --    1.37844   1.37847   1.61529   2.15084   2.39617

  Beta  occ. eigenvalues --  -24.73067  -1.13044  -0.43339  -0.43313  -0.32887
  Beta virt. eigenvalues --   -0.25969  -0.10698   0.25939   0.31599   0.92430
  Beta virt. eigenvalues --    0.93047   0.95519   1.05153   1.10155   1.24731
  Beta virt. eigenvalues --    1.24735   1.37823   1.37824   1.61547   2.15338

 Mulliken charges and spin densities:
               1          2
     1  H    0.000517  -0.720936
     2  H   -0.001881   0.720965
     3  F    0.001364   0.999970
 Sum of Mulliken charges =   0.00000   1.00000

 Dipole moment (field-independent basis, Debye):
    X=              0.0312    Y=              0.0000    Z=             -0.0000  Tot=              0.0312
 Quadrupole moment (field-independent basis, Debye-Ang):
   XX=             -6.7307   YY=             -6.8955   ZZ=             -7.7600
   XY=             -0.0000   XZ=             -0.0000   YZ=              0.0011

  Exact polarizability:      23.598      -0.000       2.478       0.000       0.001       2.013
 Approx polarizability:      33.572      -0.000       2.544       0.000       0.001       1.961

 ******    2 imaginary frequencies (negative Signs) ******

                      1                      2                      3
                      A                      A                      A
 Frequencies --  -1727.0163               -44.4456               773.8565
 Red. masses --      1.0078                 1.1085                 1.0116
 Frc consts  --      1.7710                 0.0013                 0.3569
 IR Inten    --      0.0114                 0.0766                 0.0014

                      4
                      A
 Frequencies --    774.4017
 Red. masses --      1.0116
 Frc consts  --      0.3574
 IR Inten    --      0.0009

 - Thermochemistry -
 -------------------
 Temperature   298.150 Kelvin.  Pressure   1.00000 Atm.
 Atom     1 has atomic number  1 and mass   1.00783

 Molecular mass:    21.01405 amu.
 Principal axes and moments of inertia in atomic units:
                           1         2         3
     Eigenvalues --     0.00000 143.53099 143.53099
           X            1.00000  -0.00000   0.00000
           Y            0.00000   1.00000   0.00000
           Z            0.00000   0.00000   1.00000
 This molecule is a prolate symmetric top.
 Rotational symmetry number  1.
 Rotational temperature (Kelvin)      0.60345
 Rotational constant (GHZ):          12.573879
    2 imaginary frequencies ignored.
 Zero-point vibrational energy       9260.6 (Joules/Mol)
                                    2.21335 (Kcal/Mol)
 Vibrational temperatures:   1113.41  1114.19
          (Kelvin)

 Zero-point correction=                           0.003527 (Hartree/Particle)
 Thermal correction to Energy=                    0.006060
 Thermal correction to Enthalpy=                  0.007004
 Thermal correction to Gibbs Free Energy=        -0.017331
 Sum of electronic and zero-point Energies=           -100.782583
 Sum of electronic and thermal Energies=              -100.780050
 Sum of electronic and thermal Enthalpies=            -100.779106
 Sum of electronic and thermal Free Energies=         -100.803441

                     E (Thermal)             CV                S
                      KCal/Mol        Cal/Mol-Kelvin    Cal/Mol-Kelvin
 Total                    3.803              6.357             51.217
 Electronic               0.000              0.000              1.377
 Translational            0.889              2.981             35.068
 Rotational               0.592              1.987             14.313
 Vibrational              2.322              1.389              0.459

 Normal termination of Gaussian 16 at Sat Aug 23 00:01:09 2025.
