 Gaussian 16, Revision C.01,
 Gaussian 16:  ES64L-G16RevC.01  3-Jul-2019

 -----------------------------------------
 # sp b3lyp/6-311g** Force nosymm scf=(qc)
 -----------------------------------------

 -------------------
 Title Card Required
 -------------------
 Symbolic Z-matrix:
 Charge =  0 Multiplicity = 2

                          Input orientation:
 ---------------------------------------------------------------------
 Center     Atomic      Atomic             Coordinates (Angstroms)
 Number     Number       Type             X           Y           Z
 ---------------------------------------------------------------------
      1          1           0        0.000000    0.000000    0.000000
      2          1           0       -2.650000    0.000000    0.000000
      3          9           0        2.250000    0.000000    0.000000
 ---------------------------------------------------------------------

 SCF Done:  E(UB3LYP) =  -100.776976410     a.u. after   14 cycles

 Alpha  occ. eigenvalues --  -24.70096  -1.16386  -0.49162  -0.41326  -0.41326
 Alpha  occ. eigenvalues --   -0.34007
 Alpha virt. eigenvalues --   -0.12623   0.24223   0.32692   0.89065   0.94400
 Alpha virt. eigenvalues --    0.94400   1.06523   1.23597   1.23597   1.25831
 Alpha virt. eigenvalues --    1.37161   1.37161   1.49404   2.14638   2.31591

  Beta  occ. eigenvalues --  -24.67427  -1.08839  -0.38676  -0.38676  -0.36429
  Beta virt. eigenvalues --   -0.22254  -0.09185   0.25159   0.35320   0.93311
  Beta virt. eigenvalues --    0.95562   0.95562   1.08814   1.21744   1.21744
  Beta virt. eigenvalues --    1.39128   1.42493   1.42493   1.44108   2.13380

 Mulliken charges and spin densities:
               1          2
     1  H    0.122715  -0.821676
     2  H    0.010064   0.980308
     3  F   -0.132779   0.841368
 Sum of Mulliken charges =   0.00000   1.00000

 Dipole moment (field-independent basis, Debye):
    X=             -1.6295    Y=             -0.0000    Z=             -0.0000  Tot=              1.6295
 Quadrupole moment (field-independent basis, Debye-Ang):
   XX=             -9.3183   YY=             -7.5645   ZZ=             -7.5645
   XY=             -0.0000   XZ=             -0.0000   YZ=              0.0000

  Exact polarizability:      37.588       0.000       2.030       0.000       0.000       2.030
 Approx polarizability:      44.665       0.000       1.925       0.000       0.000       1.925

 ******    2 imaginary frequencies (negative Signs) ******

                      1                      2                      3
                      A                      A                      A
 Frequencies --   -897.7757              -326.6843               369.8954
 Red. masses --      1.0392                 1.0729                 1.0200
 Frc consts  --      0.4935                 0.0675                 0.0822
 IR Inten    --     83.9042                11.7313                12.9476

                      4
                      A
 Frequencies --    369.8954
 Red. masses --      1.0200
 Frc consts  --      0.0822
 IR Inten    --     12.9476

 - Thermochemistry -
 -------------------
 Temperature   298.150 Kelvin.  Pressure   1.00000 Atm.
 Atom     1 has atomic number  1 and mass   1.00783

 Molecular mass:    21.01405 amu.
 Principal axes and moments of inertia in atomic units:
                           1         2         3
     Eigenvalues --     0.00000  95.80808  95.80808
           X            1.00000  -0.00000   0.00000
           Y            0.00000   1.00000   0.00000
           Z            0.00000   0.00000   1.00000
 This molecule is a prolate symmetric top.
 Rotational symmetry number  1.
 Rotational temperature (Kelvin)      0.90404
 Rotational constant (GHZ):          18.837046
    2 imaginary frequencies ignored.
 Zero-point vibrational energy       4424.9 (Joules/Mol)
                                    1.05758 (Kcal/Mol)
 Warning -- explicit consideration of   2 degrees of freedom as
           vibrations may cause significant error
 Vibrational temperatures:    532.20   532.20
          (Kelvin)

 Zero-point correction=                           0.001685 (Hartree/Particle)
 Thermal correction to Energy=                    0.004725
 Thermal correction to Enthalpy=                  0.005670
 Thermal correction to Gibbs Free Energy=        -0.019092
 Sum of electronic and zero-point Energies=           -100.775291
 Sum of electronic and thermal Energies=              -100.772251
 Sum of electronic and thermal Enthalpies=            -100.771307
 Sum of electronic and thermal Free Energies=         -100.796069

                     E (Thermal)             CV                S
                      KCal/Mol        Cal/Mol-Kelvin    Cal/Mol-Kelvin
 Total                    2.965              8.036             52.116
 Electronic               0.000              0.000              1.377
 Translational            0.889              2.981             35.068
 Rotational               0.592              1.987             13.510
 Vibrational              1.484              3.068              2.160
 Vibration     1          0.742              1.534              1.080
 Vibration     2          0.742              1.534              1.080

 Normal termination of Gaussian 16 at Fri Aug 22 17:17:00 2025.
