 Gaussian 16, Revision C.01,
 Gaussian 16:  ES64L-G16RevC.01  3-Jul-2019

 -----------------------------------------
 # sp b3lyp/6-311g** Force nosymm scf=(qc)
 -----------------------------------------

 -------------------
 Title Card Required
 -------------------
 Symbolic Z-matrix:
 Charge =  0 Multiplicity = 2

                          Input orientation:
 ---------------------------------------------------------------------
 Center     Atomic      Atomic             Coordinates (Angstroms)
 Number     Number       Type             X           Y           Z
 ---------------------------------------------------------------------
      1          1           0        0.000000    0.000000    0.000000
      2          1           0       -3.500000    0.000000    0.000000
      3          9           0        3.350000    0.000000    0.000000
 ---------------------------------------------------------------------

 SCF Done:  E(UB3LYP) =  -100.759484808     a.u. after   23 cycles

 Alpha  occ. eigenvalues --  -24.75093  -1.21078  -0.54215  -0.45520  -0.45520
 Alpha  occ. eigenvalues --   -0.32387
 Alpha virt. eigenvalues --   -0.07248   0.24231   0.36713   0.88105   0.91662
 Alpha virt. eigenvalues --    0.91662   1.02271   1.25118   1.25118   1.25271
 Alpha virt. eigenvalues --    1.44958   1.44958   1.45061   2.14973   2.41123

  Beta  occ. eigenvalues --  -24.71998  -1.12190  -0.42419  -0.42419  -0.33035
  Beta virt. eigenvalues --   -0.25330  -0.06498   0.24003   0.37907   0.93145
  Beta virt. eigenvalues --    0.93145   0.97136   1.06216   1.24370   1.24370
  Beta virt. eigenvalues --    1.24514   1.45872   1.46112   1.46112   2.15255

 Mulliken charges and spin densities:
               1          2
     1  H    0.016838  -0.979159
     2  H    0.000244   0.997902
     3  F   -0.017081   0.981257
 Sum of Mulliken charges =  -0.00000   1.00000

 Dipole moment (field-independent basis, Debye):
    X=             -0.2983    Y=             -0.0000    Z=              0.0000  Tot=              0.2983
 Quadrupole moment (field-independent basis, Debye-Ang):
   XX=             -7.6365   YY=             -7.6197   ZZ=             -7.6197
   XY=             -0.0000   XZ=              0.0000   YZ=             -0.0000

  Exact polarizability:      27.221      -0.000       2.031       0.000       0.000       2.031
 Approx polarizability:      23.038      -0.000       1.932       0.000      -0.000       1.932

 ******    2 imaginary frequencies (negative Signs) ******

                      1                      2                      3
                      A                      A                      A
 Frequencies --   -276.8287              -109.7024                89.2947
 Red. masses --      1.0346                 1.0779                 1.0185
 Frc consts  --      0.0467                 0.0076                 0.0048
 IR Inten    --     17.3070                 1.1443                 0.2570

                      4
                      A
 Frequencies --     89.2947
 Red. masses --      1.0185
 Frc consts  --      0.0048
 IR Inten    --      0.2570

 - Thermochemistry -
 -------------------
 Temperature   298.150 Kelvin.  Pressure   1.00000 Atm.
 Atom     1 has atomic number  1 and mass   1.00783

 Molecular mass:    21.01405 amu.
 Principal axes and moments of inertia in atomic units:
                           1         2         3
     Eigenvalues --     0.00000 191.30633 191.30633
           X            1.00000  -0.00000   0.00000
           Y            0.00000   1.00000   0.00000
           Z            0.00000   0.00000   1.00000
 This molecule is a prolate symmetric top.
 Rotational symmetry number  1.
 Rotational temperature (Kelvin)      0.45275
 Rotational constant (GHZ):           9.433777
    2 imaginary frequencies ignored.
 Zero-point vibrational energy       1068.2 (Joules/Mol)
                                    0.25531 (Kcal/Mol)
 Warning -- explicit consideration of   2 degrees of freedom as
           vibrations may cause significant error
 Vibrational temperatures:    128.48   128.48
          (Kelvin)

 Zero-point correction=                           0.000407 (Hartree/Particle)
 Thermal correction to Energy=                    0.004278
 Thermal correction to Enthalpy=                  0.005222
 Thermal correction to Gibbs Free Energy=        -0.022659
 Sum of electronic and zero-point Energies=           -100.759078
 Sum of electronic and thermal Energies=              -100.755207
 Sum of electronic and thermal Enthalpies=            -100.754263
 Sum of electronic and thermal Free Energies=         -100.782144

                     E (Thermal)             CV                S
                      KCal/Mol        Cal/Mol-Kelvin    Cal/Mol-Kelvin
 Total                    2.684              8.881             58.681
 Electronic               0.000              0.000              1.377
 Translational            0.889              2.981             35.068
 Rotational               0.592              1.987             14.884
 Vibrational              1.203              3.913              7.351
 Vibration     1          0.602              1.957              3.675
 Vibration     2          0.602              1.957              3.675

 Normal termination of Gaussian 16 at Fri Aug 22 21:03:12 2025.
