 Gaussian 16, Revision C.01,
 Gaussian 16:  ES64L-G16RevC.01  3-Jul-2019

 -----------------------------------------
 # sp b3lyp/6-311g** Force nosymm scf=(qc)
 -----------------------------------------

 -------------------
 Title Card Required
 -------------------
 Symbolic Z-matrix:
 Charge =  0 Multiplicity = 2

                          Input orientation:
 ---------------------------------------------------------------------
 Center     Atomic      Atomic             Coordinates (Angstroms)
 Number     Number       Type             X           Y           Z
 ---------------------------------------------------------------------
      1          1           0        0.000000    0.000000    0.000000
      2          1           0       -3.800000    0.000000    0.000000
      3          9           0        3.700000    0.000000    0.000000
 ---------------------------------------------------------------------

 SCF Done:  E(UB3LYP) =  -100.758652305     a.u. after   29 cycles

 Alpha  occ. eigenvalues --  -24.75654  -1.21597  -0.54778  -0.45992  -0.45992
 Alpha  occ. eigenvalues --   -0.32267
 Alpha virt. eigenvalues --   -0.06320   0.24179   0.37536   0.87057   0.91314
 Alpha virt. eigenvalues --    0.91314   1.01404   1.25230   1.25230   1.25278
 Alpha virt. eigenvalues --    1.46093   1.46093   1.46247   2.14712   2.42072

  Beta  occ. eigenvalues --  -24.72523  -1.12596  -0.42853  -0.42853  -0.32611
  Beta virt. eigenvalues --   -0.25619  -0.06025   0.23956   0.38176   0.92808
  Beta virt. eigenvalues --    0.92808   0.96311   1.05475   1.24845   1.24845
  Beta virt. eigenvalues --    1.24876   1.46445   1.46599   1.46599   2.14778

 Mulliken charges and spin densities:
               1          2
     1  H    0.006469  -0.991790
     2  H    0.000054   0.998980
     3  F   -0.006522   0.992810
 Sum of Mulliken charges =  -0.00000   1.00000

 Dipole moment (field-independent basis, Debye):
    X=             -0.1254    Y=              0.0000    Z=             -0.0000  Tot=              0.1254
 Quadrupole moment (field-independent basis, Debye-Ang):
   XX=             -7.1636   YY=             -7.6197   ZZ=             -7.6197
   XY=              0.0000   XZ=              0.0000   YZ=              0.0000

  Exact polarizability:      17.556      -0.000       2.029      -0.000      -0.000       2.029
 Approx polarizability:      13.116       0.000       1.936       0.000      -0.000       1.936

 ******    2 imaginary frequencies (negative Signs) ******

                      1                      2                      3
                      A                      A                      A
 Frequencies --   -184.1861               -75.6995                59.4083
 Red. masses --      1.0312                 1.0815                 1.0183
 Frc consts  --      0.0206                 0.0037                 0.0021
 IR Inten    --      4.8623                 0.4250                 0.0430

                      4
                      A
 Frequencies --     59.4084
 Red. masses --      1.0183
 Frc consts  --      0.0021
 IR Inten    --      0.0430

 - Thermochemistry -
 -------------------
 Temperature   298.150 Kelvin.  Pressure   1.00000 Atm.
 Atom     1 has atomic number  1 and mass   1.00783

 Molecular mass:    21.01405 amu.
 Principal axes and moments of inertia in atomic units:
                           1         2         3
     Eigenvalues --     0.00000 230.06285 230.06285
           X            1.00000  -0.00000   0.00000
           Y            0.00000   1.00000   0.00000
           Z            0.00000   0.00000   1.00000
 This molecule is a prolate symmetric top.
 Rotational symmetry number  1.
 Rotational temperature (Kelvin)      0.37648
 Rotational constant (GHZ):           7.844557
    2 imaginary frequencies ignored.
 Zero-point vibrational energy        710.7 (Joules/Mol)
                                    0.16986 (Kcal/Mol)
 Warning -- explicit consideration of   2 degrees of freedom as
           vibrations may cause significant error
 Vibrational temperatures:     85.48    85.48
          (Kelvin)

 Zero-point correction=                           0.000271 (Hartree/Particle)
 Thermal correction to Energy=                    0.004262
 Thermal correction to Enthalpy=                  0.005206
 Thermal correction to Gibbs Free Energy=        -0.023611
 Sum of electronic and zero-point Energies=           -100.758382
 Sum of electronic and thermal Energies=              -100.754391
 Sum of electronic and thermal Enthalpies=            -100.753446
 Sum of electronic and thermal Free Energies=         -100.782263

                     E (Thermal)             CV                S
                      KCal/Mol        Cal/Mol-Kelvin    Cal/Mol-Kelvin
 Total                    2.674              8.915             60.650
 Electronic               0.000              0.000              1.377
 Translational            0.889              2.981             35.068
 Rotational               0.592              1.987             15.251
 Vibrational              1.193              3.947              8.953
 Vibration     1          0.597              1.974              4.477
 Vibration     2          0.597              1.974              4.477

 Normal termination of Gaussian 16 at Sat Aug 23 00:05:20 2025.
