 Gaussian 16, Revision C.01,
 Gaussian 16:  ES64L-G16RevC.01  3-Jul-2019

 -----------------------------------------
 # sp b3lyp/6-311g** Force nosymm scf=(qc)
 -----------------------------------------

 -------------------
 Title Card Required
 -------------------
 Symbolic Z-matrix:
 Charge =  0 Multiplicity = 2

                          Input orientation:
 ---------------------------------------------------------------------
 Center     Atomic      Atomic             Coordinates (Angstroms)
 Number     Number       Type             X           Y           Z
 ---------------------------------------------------------------------
      1          1           0        0.000000    0.000000    0.000000
      2          1           0       -2.600000    0.000000    0.000000
      3          9           0        1.400000    0.000000    0.000000
 ---------------------------------------------------------------------

 SCF Done:  E(UB3LYP) =  -100.878221671     a.u. after    7 cycles

 Alpha  occ. eigenvalues --  -24.64135  -1.10151  -0.44537  -0.36517  -0.36517
 Alpha  occ. eigenvalues --   -0.35344
 Alpha virt. eigenvalues --   -0.11219   0.23086   0.26947   0.93329   0.93329
 Alpha virt. eigenvalues --    1.03253   1.15854   1.22162   1.22162   1.24641
 Alpha virt. eigenvalues --    1.32974   1.32974   1.72871   2.13324   2.22233

  Beta  occ. eigenvalues --  -24.64039  -1.09898  -0.44208  -0.36426  -0.36426
  Beta virt. eigenvalues --   -0.13865  -0.06643   0.25660   0.36184   0.93304
  Beta virt. eigenvalues --    0.93304   1.03492   1.16679   1.32636   1.32636
  Beta virt. eigenvalues --    1.43261   1.43261   1.43902   1.73077   2.21665

 Mulliken charges and spin densities:
               1          2
     1  H    0.347163  -0.015633
     2  H    0.012749   0.985260
     3  F   -0.359913   0.030373
 Sum of Mulliken charges =  -0.00000   1.00000

 Dipole moment (field-independent basis, Debye):
    X=             -2.6652    Y=             -0.0000    Z=             -0.0000  Tot=              2.6652
 Quadrupole moment (field-independent basis, Debye-Ang):
   XX=             -9.1566   YY=             -7.2641   ZZ=             -7.2641
   XY=             -0.0000   XZ=             -0.0000   YZ=             -0.0000

  Exact polarizability:      17.556       0.000       2.248       0.000       0.000       2.248
 Approx polarizability:      26.482      -0.000       2.185       0.000       0.000       2.185

 ******    2 imaginary frequencies (negative Signs) ******

                      1                      2                      3
                      A                      A                      A
 Frequencies --  -1096.7911              -196.1698              1072.1868
 Red. masses --      1.0504                 1.0612                 1.0269
 Frc consts  --      0.7445                 0.0241                 0.6955
 IR Inten    --    115.4731                 1.4779               111.9591

                      4
                      A
 Frequencies --   1072.1868
 Red. masses --      1.0269
 Frc consts  --      0.6955
 IR Inten    --    111.9591

 - Thermochemistry -
 -------------------
 Temperature   298.150 Kelvin.  Pressure   1.00000 Atm.
 Atom     1 has atomic number  1 and mass   1.00783

 Molecular mass:    21.01405 amu.
 Principal axes and moments of inertia in atomic units:
                           1         2         3
     Eigenvalues --     0.00000  59.60498  59.60498
           X            1.00000  -0.00000   0.00000
           Y            0.00000   1.00000   0.00000
           Z            0.00000   0.00000   1.00000
 This molecule is a prolate symmetric top.
 Rotational symmetry number  1.
 Rotational temperature (Kelvin)      1.45313
 Rotational constant (GHZ):          30.278365
    2 imaginary frequencies ignored.
 Zero-point vibrational energy      12826.2 (Joules/Mol)
                                    3.06554 (Kcal/Mol)
 Vibrational temperatures:   1542.64  1542.64
          (Kelvin)

 Zero-point correction=                           0.004885 (Hartree/Particle)
 Thermal correction to Energy=                    0.007301
 Thermal correction to Enthalpy=                  0.008246
 Thermal correction to Gibbs Free Energy=        -0.015108
 Sum of electronic and zero-point Energies=           -100.873336
 Sum of electronic and thermal Energies=              -100.870920
 Sum of electronic and thermal Enthalpies=            -100.869976
 Sum of electronic and thermal Free Energies=         -100.893330

                     E (Thermal)             CV                S
                      KCal/Mol        Cal/Mol-Kelvin    Cal/Mol-Kelvin
 Total                    4.582              5.577             49.152
 Electronic               0.000              0.000              1.377
 Translational            0.889              2.981             35.068
 Rotational               0.592              1.987             12.567
 Vibrational              3.100              0.609              0.140

 Normal termination of Gaussian 16 at Fri Aug 22 16:20:36 2025.
