 Gaussian 16, Revision C.01,
 Gaussian 16:  ES64L-G16RevC.01  3-Jul-2019

 -----------------------------------------
 # sp b3lyp/6-311g** Force nosymm scf=(qc)
 -----------------------------------------

 -------------------
 Title Card Required
 -------------------
 Symbolic Z-matrix:
 Charge =  0 Multiplicity = 2

                          Input orientation:
 ---------------------------------------------------------------------
 Center     Atomic      Atomic             Coordinates (Angstroms)
 Number     Number       Type             X           Y           Z
 ---------------------------------------------------------------------
      1          1           0        0.000000    0.000000    0.000000
      2          1           0       -2.250000    0.000000    0.000000
      3          9           0        1.650000    0.000000    0.000000
 ---------------------------------------------------------------------

 SCF Done:  E(UB3LYP) =  -100.830112020     a.u. after   13 cycles

 Alpha  occ. eigenvalues --  -24.64981  -1.11004  -0.43995  -0.36938  -0.36938
 Alpha  occ. eigenvalues --   -0.36471
 Alpha virt. eigenvalues --   -0.13895   0.23533   0.28037   0.94693   0.94693
 Alpha virt. eigenvalues --    0.98383   1.06614   1.21144   1.21144   1.26758
 Alpha virt. eigenvalues --    1.33297   1.33297   1.74183   2.11200   2.24349

  Beta  occ. eigenvalues --  -24.63644  -1.07384  -0.40217  -0.35648  -0.35648
  Beta virt. eigenvalues --   -0.18651  -0.09710   0.24910   0.33569   0.94442
  Beta virt. eigenvalues --    0.94442   1.00017   1.08256   1.26995   1.26995
  Beta virt. eigenvalues --    1.39112   1.39112   1.42605   1.71655   2.13493

 Mulliken charges and spin densities:
               1          2
     1  H    0.276046  -0.372139
     2  H    0.033502   0.951483
     3  F   -0.309548   0.420656
 Sum of Mulliken charges =   0.00000   1.00000

 Dipole moment (field-independent basis, Debye):
    X=             -2.8526    Y=             -0.0000    Z=              0.0000  Tot=              2.8526
 Quadrupole moment (field-independent basis, Debye-Ang):
   XX=             -9.2235   YY=             -7.4052   ZZ=             -7.4052
   XY=              0.0000   XZ=             -0.0000   YZ=             -0.0000

  Exact polarizability:      33.402       0.000       2.151      -0.000       0.000       2.151
 Approx polarizability:      45.089      -0.000       2.061       0.000       0.000       2.061

 ******    2 imaginary frequencies (negative Signs) ******

                      1                      2                      3
                      A                      A                      A
 Frequencies --  -1898.8069              -434.2695               830.0840
 Red. masses --      1.0455                 1.0663                 1.0221
 Frc consts  --      2.2209                 0.1185                 0.4149
 IR Inten    --     44.6471                11.4647                59.4378

                      4
                      A
 Frequencies --    830.0840
 Red. masses --      1.0221
 Frc consts  --      0.4149
 IR Inten    --     59.4378

 - Thermochemistry -
 -------------------
 Temperature   298.150 Kelvin.  Pressure   1.00000 Atm.
 Atom     1 has atomic number  1 and mass   1.00783

 Molecular mass:    21.01405 amu.
 Principal axes and moments of inertia in atomic units:
                           1         2         3
     Eigenvalues --     0.00000  59.22250  59.22250
           X            1.00000  -0.00000   0.00000
           Y            0.00000   1.00000   0.00000
           Z            0.00000   0.00000   1.00000
 This molecule is a prolate symmetric top.
 Rotational symmetry number  1.
 Rotational temperature (Kelvin)      1.46252
 Rotational constant (GHZ):          30.473913
    2 imaginary frequencies ignored.
 Zero-point vibrational energy       9930.0 (Joules/Mol)
                                    2.37333 (Kcal/Mol)
 Vibrational temperatures:   1194.31  1194.31
          (Kelvin)

 Zero-point correction=                           0.003782 (Hartree/Particle)
 Thermal correction to Energy=                    0.006283
 Thermal correction to Enthalpy=                  0.007227
 Thermal correction to Gibbs Free Energy=        -0.016229
 Sum of electronic and zero-point Energies=           -100.826330
 Sum of electronic and thermal Energies=              -100.823829
 Sum of electronic and thermal Enthalpies=            -100.822885
 Sum of electronic and thermal Free Energies=         -100.846341

                     E (Thermal)             CV                S
                      KCal/Mol        Cal/Mol-Kelvin    Cal/Mol-Kelvin
 Total                    3.943              6.173             49.368
 Electronic               0.000              0.000              1.377
 Translational            0.889              2.981             35.068
 Rotational               0.592              1.987             12.554
 Vibrational              2.461              1.205              0.368

 Normal termination of Gaussian 16 at Fri Aug 22 16:34:32 2025.
