 Gaussian 16, Revision C.01,
 Gaussian 16:  ES64L-G16RevC.01  3-Jul-2019

 -----------------------------------------
 # sp b3lyp/6-311g** Force nosymm scf=(qc)
 -----------------------------------------

 -------------------
 Title Card Required
 -------------------
 Symbolic Z-matrix:
 Charge =  0 Multiplicity = 2

                          Input orientation:
 ---------------------------------------------------------------------
 Center     Atomic      Atomic             Coordinates (Angstroms)
 Number     Number       Type             X           Y           Z
 ---------------------------------------------------------------------
      1          1           0        0.000000    0.000000    0.000000
      2          1           0       -0.900000    0.000000    0.000000
      3          9           0        0.600000    0.000000    0.000000
 ---------------------------------------------------------------------

 SCF Done:  E(UB3LYP) =  -100.618920289     a.u. after    7 cycles

 Alpha  occ. eigenvalues --  -24.65687  -1.39720  -0.67142  -0.45851  -0.45851
 Alpha  occ. eigenvalues --   -0.32399
 Alpha virt. eigenvalues --    0.16654   0.19827   0.81094   0.86749   0.86749
 Alpha virt. eigenvalues --    0.91138   1.09940   1.09940   1.48500   1.70189
 Alpha virt. eigenvalues --    1.79939   1.79939   2.28074   2.46631   3.75066

  Beta  occ. eigenvalues --  -24.65217  -1.38169  -0.64847  -0.45475  -0.45475
  Beta virt. eigenvalues --   -0.11507   0.17335   0.26439   0.84820   0.88192
  Beta virt. eigenvalues --    0.88192   0.93862   1.17271   1.17271   1.49533
  Beta virt. eigenvalues --    1.76343   1.85731   1.85731   2.40286   2.57119

 Mulliken charges and spin densities:
               1          2
     1  H    0.256362  -0.018027
     2  H   -0.057619   0.967505
     3  F   -0.198743   0.050523
 Sum of Mulliken charges =   0.00000   1.00000

 Dipole moment (field-independent basis, Debye):
    X=             -0.8672    Y=             -0.0000    Z=             -0.0000  Tot=              0.8672
 Quadrupole moment (field-independent basis, Debye-Ang):
   XX=             -7.3425   YY=             -6.4110   ZZ=             -6.4110
   XY=             -0.0000   XZ=             -0.0000   YZ=              0.0000

  Exact polarizability:       7.074      -0.000       2.501       0.000      -0.000       2.501
 Approx polarizability:       6.833      -0.000       2.573      -0.000      -0.000       2.573

 ******    2 imaginary frequencies (negative Signs) ******

                      1                      2                      3
                      A                      A                      A
 Frequencies --  -5799.3512             -5799.3512              2663.0686
 Red. masses --      1.0235                 1.0235                 1.0556
 Frc consts  --     20.2818                20.2818                 4.4106
 IR Inten    --    147.9054               147.9054               144.2914

                      4
                      A
 Frequencies --  13096.9769
 Red. masses --      1.0560
 Frc consts  --    106.7206
 IR Inten    --     40.5072

 - Thermochemistry -
 -------------------
 Temperature   298.150 Kelvin.  Pressure   1.00000 Atm.
 Atom     1 has atomic number  1 and mass   1.00783

 Molecular mass:    21.01405 amu.
 Principal axes and moments of inertia in atomic units:
                           1         2         3
     Eigenvalues --     0.00000   8.63222   8.63222
           X            1.00000  -0.00000   0.00000
           Y            0.00000   1.00000   0.00000
           Z            0.00000   0.00000   1.00000
 This molecule is a prolate symmetric top.
 Rotational symmetry number  1.
 Rotational temperature (Kelvin)     10.03380
 Rotational constant (GHZ):         209.070446
    2 imaginary frequencies ignored.
 Zero-point vibrational energy      94266.0 (Joules/Mol)
                                   22.53012 (Kcal/Mol)
 Vibrational temperatures:   3831.56 18843.63
          (Kelvin)

 Zero-point correction=                           0.035904 (Hartree/Particle)
 Thermal correction to Energy=                    0.038265
 Thermal correction to Enthalpy=                  0.039209
 Thermal correction to Gibbs Free Energy=         0.017746
 Sum of electronic and zero-point Energies=           -100.583016
 Sum of electronic and thermal Energies=              -100.580656
 Sum of electronic and thermal Enthalpies=            -100.579712
 Sum of electronic and thermal Free Energies=         -100.601175

                     E (Thermal)             CV                S
                      KCal/Mol        Cal/Mol-Kelvin    Cal/Mol-Kelvin
 Total                   24.011              4.969             45.173
 Electronic               0.000              0.000              1.377
 Translational            0.889              2.981             35.068
 Rotational               0.592              1.987              8.727
 Vibrational             22.530              0.001              0.000

 Normal termination of Gaussian 16 at Fri Aug 22 15:40:56 2025.
