 Gaussian 16, Revision C.01,
 Gaussian 16:  ES64L-G16RevC.01  3-Jul-2019

 -----------------------------------------
 # sp b3lyp/6-311g** Force nosymm scf=(qc)
 -----------------------------------------

 -------------------
 Title Card Required
 -------------------
 Symbolic Z-matrix:
 Charge =  0 Multiplicity = 2

                          Input orientation:
 ---------------------------------------------------------------------
 Center     Atomic      Atomic             Coordinates (Angstroms)
 Number     Number       Type             X           Y           Z
 ---------------------------------------------------------------------
      1          1           0        0.000000    0.000000    0.000000
      2          1           0       -2.500000    0.000000    0.000000
      3          9           0        3.400000    0.000000    0.000000
 ---------------------------------------------------------------------

 SCF Done:  E(UB3LYP) =  -100.763174669     a.u. after   30 cycles

 Alpha  occ. eigenvalues --  -24.75271  -1.21241  -0.54392  -0.45669  -0.45669
 Alpha  occ. eigenvalues --   -0.32733
 Alpha virt. eigenvalues --   -0.09673   0.25632   0.34144   0.87951   0.91550
 Alpha virt. eigenvalues --    0.91550   1.02071   1.24919   1.24919   1.26522
 Alpha virt. eigenvalues --    1.41101   1.41101   1.42724   2.15689   2.36811

  Beta  occ. eigenvalues --  -24.72166  -1.12322  -0.42558  -0.42558  -0.33095
  Beta virt. eigenvalues --   -0.25438  -0.09084   0.25463   0.34986   0.93036
  Beta virt. eigenvalues --    0.93036   0.97058   1.06083   1.24483   1.24483
  Beta virt. eigenvalues --    1.25989   1.42024   1.42024   1.43648   2.16335

 Mulliken charges and spin densities:
               1          2
     1  H    0.011171  -0.954440
     2  H    0.002787   0.970053
     3  F   -0.013958   0.984387
 Sum of Mulliken charges =  -0.00000   1.00000

 Dipole moment (field-independent basis, Debye):
    X=             -0.2768    Y=              0.0000    Z=             -0.0000  Tot=              0.2768
 Quadrupole moment (field-independent basis, Debye-Ang):
   XX=             -7.2462   YY=             -7.6638   ZZ=             -7.6638
   XY=              0.0000   XZ=             -0.0000   YZ=             -0.0000

  Exact polarizability:      36.153       0.000       2.021      -0.000       0.000       2.021
 Approx polarizability:      27.892       0.000       1.928      -0.000       0.000       1.928

 ******    2 imaginary frequencies (negative Signs) ******

                      1                      2                      3
                      A                      A                      A
 Frequencies --   -674.1665              -155.1878               247.7265
 Red. masses --      1.0082                 1.1081                 1.0146
 Frc consts  --      0.2700                 0.0157                 0.0367
 IR Inten    --      8.4844                 8.4303                 0.0873

                      4
                      A
 Frequencies --    247.7265
 Red. masses --      1.0146
 Frc consts  --      0.0367
 IR Inten    --      0.0873

 - Thermochemistry -
 -------------------
 Temperature   298.150 Kelvin.  Pressure   1.00000 Atm.
 Atom     1 has atomic number  1 and mass   1.00783

 Molecular mass:    21.01405 amu.
 Principal axes and moments of inertia in atomic units:
                           1         2         3
     Eigenvalues --     0.00000 151.95725 151.95725
           X            1.00000  -0.00000   0.00000
           Y            0.00000   1.00000   0.00000
           Z            0.00000   0.00000   1.00000
 This molecule is a prolate symmetric top.
 Rotational symmetry number  1.
 Rotational temperature (Kelvin)      0.56999
 Rotational constant (GHZ):          11.876637
    2 imaginary frequencies ignored.
 Zero-point vibrational energy       2963.5 (Joules/Mol)
                                    0.70829 (Kcal/Mol)
 Warning -- explicit consideration of   2 degrees of freedom as
           vibrations may cause significant error
 Vibrational temperatures:    356.42   356.42
          (Kelvin)

 Zero-point correction=                           0.001129 (Hartree/Particle)
 Thermal correction to Energy=                    0.004469
 Thermal correction to Enthalpy=                  0.005413
 Thermal correction to Gibbs Free Energy=        -0.020418
 Sum of electronic and zero-point Energies=           -100.762046
 Sum of electronic and thermal Energies=              -100.758706
 Sum of electronic and thermal Enthalpies=            -100.757762
 Sum of electronic and thermal Free Energies=         -100.783593

                     E (Thermal)             CV                S
                      KCal/Mol        Cal/Mol-Kelvin    Cal/Mol-Kelvin
 Total                    2.804              8.501             54.365
 Electronic               0.000              0.000              1.377
 Translational            0.889              2.981             35.068
 Rotational               0.592              1.987             14.427
 Vibrational              1.323              3.533              3.493
 Vibration     1          0.661              1.767              1.747
 Vibration     2          0.661              1.767              1.747

 Normal termination of Gaussian 16 at Fri Aug 22 21:17:24 2025.
