 Gaussian 16, Revision C.01,
 Gaussian 16:  ES64L-G16RevC.01  3-Jul-2019

 -----------------------------------------
 # sp b3lyp/6-311g** Force nosymm scf=(qc)
 -----------------------------------------

 -------------------
 Title Card Required
 -------------------
 Symbolic Z-matrix:
 Charge =  0 Multiplicity = 2

                          Input orientation:
 ---------------------------------------------------------------------
 Center     Atomic      Atomic             Coordinates (Angstroms)
 Number     Number       Type             X           Y           Z
 ---------------------------------------------------------------------
      1          1           0        0.000000    0.000000    0.000000
      2          1           0       -3.050000    0.000000    0.000000
      3          9           0        1.950000    0.000000    0.000000
 ---------------------------------------------------------------------

 SCF Done:  E(UB3LYP) =  -100.791469866     a.u. after   13 cycles

 Alpha  occ. eigenvalues --  -24.67812  -1.14116  -0.46761  -0.39401  -0.39401
 Alpha  occ. eigenvalues --   -0.33962
 Alpha virt. eigenvalues --   -0.14036   0.22722   0.31272   0.89795   0.94899
 Alpha virt. eigenvalues --    0.94899   1.05894   1.23578   1.23578   1.24205
 Alpha virt. eigenvalues --    1.34894   1.34894   1.62895   2.14208   2.28830

  Beta  occ. eigenvalues --  -24.65530  -1.07756  -0.38220  -0.37157  -0.37157
  Beta virt. eigenvalues --   -0.20424  -0.08064   0.23184   0.36908   0.91103
  Beta virt. eigenvalues --    0.95390   0.95390   1.08285   1.22337   1.22337
  Beta virt. eigenvalues --    1.43987   1.44463   1.44463   1.56771   2.12666

 Mulliken charges and spin densities:
               1          2
     1  H    0.202665  -0.710197
     2  H    0.005236   0.992499
     3  F   -0.207901   0.717698
 Sum of Mulliken charges =   0.00000   1.00000

 Dipole moment (field-independent basis, Debye):
    X=             -2.0733    Y=              0.0000    Z=             -0.0000  Tot=              2.0733
 Quadrupole moment (field-independent basis, Debye-Ang):
   XX=             -9.8875   YY=             -7.4870   ZZ=             -7.4870
   XY=             -0.0000   XZ=             -0.0000   YZ=             -0.0000

  Exact polarizability:      28.403      -0.000       2.068       0.000      -0.000       2.068
 Approx polarizability:      39.149      -0.000       1.956       0.000       0.000       1.956

 ******    2 imaginary frequencies (negative Signs) ******

                      1                      2                      3
                      A                      A                      A
 Frequencies --  -1226.3173              -205.2168               517.8173
 Red. masses --      1.0551                 1.0564                 1.0242
 Frc consts  --      0.9349                 0.0262                 0.1618
 IR Inten    --    119.1849                 1.8945                37.0473

                      4
                      A
 Frequencies --    517.8173
 Red. masses --      1.0242
 Frc consts  --      0.1618
 IR Inten    --     37.0473

 - Thermochemistry -
 -------------------
 Temperature   298.150 Kelvin.  Pressure   1.00000 Atm.
 Atom     1 has atomic number  1 and mass   1.00783

 Molecular mass:    21.01405 amu.
 Principal axes and moments of inertia in atomic units:
                           1         2         3
     Eigenvalues --     0.00000  95.32310  95.32310
           X            1.00000  -0.00000   0.00000
           Y            0.00000   1.00000   0.00000
           Z            0.00000   0.00000   1.00000
 This molecule is a prolate symmetric top.
 Rotational symmetry number  1.
 Rotational temperature (Kelvin)      0.90864
 Rotational constant (GHZ):          18.932884
    2 imaginary frequencies ignored.
 Zero-point vibrational energy       6194.5 (Joules/Mol)
                                    1.48051 (Kcal/Mol)
 Warning -- explicit consideration of   2 degrees of freedom as
           vibrations may cause significant error
 Vibrational temperatures:    745.02   745.02
          (Kelvin)

 Zero-point correction=                           0.002359 (Hartree/Particle)
 Thermal correction to Energy=                    0.005142
 Thermal correction to Enthalpy=                  0.006087
 Thermal correction to Gibbs Free Energy=        -0.018229
 Sum of electronic and zero-point Energies=           -100.789111
 Sum of electronic and thermal Energies=              -100.786328
 Sum of electronic and thermal Enthalpies=            -100.785383
 Sum of electronic and thermal Free Energies=         -100.809698

                     E (Thermal)             CV                S
                      KCal/Mol        Cal/Mol-Kelvin    Cal/Mol-Kelvin
 Total                    3.227              7.389             51.175
 Electronic               0.000              0.000              1.377
 Translational            0.889              2.981             35.068
 Rotational               0.592              1.987             13.500
 Vibrational              1.746              2.421              1.230
 Vibration     1          0.873              1.211              0.615
 Vibration     2          0.873              1.211              0.615

 Normal termination of Gaussian 16 at Fri Aug 22 16:54:11 2025.
