 Gaussian 16, Revision C.01,
 Gaussian 16:  ES64L-G16RevC.01  3-Jul-2019

 -----------------------------------------
 # sp b3lyp/6-311g** Force nosymm scf=(qc)
 -----------------------------------------

 -------------------
 Title Card Required
 -------------------
 Symbolic Z-matrix:
 Charge =  0 Multiplicity = 2

                          Input orientation:
 ---------------------------------------------------------------------
 Center     Atomic      Atomic             Coordinates (Angstroms)
 Number     Number       Type             X           Y           Z
 ---------------------------------------------------------------------
      1          1           0        0.000000    0.000000    0.000000
      2          1           0       -1.600000    0.000000    0.000000
      3          9           0        2.200000    0.000000    0.000000
 ---------------------------------------------------------------------

 SCF Done:  E(UB3LYP) =  -100.817313166     a.u. after   14 cycles

 Alpha  occ. eigenvalues --  -24.70851  -1.17125  -0.50088  -0.41978  -0.41978
 Alpha  occ. eigenvalues --   -0.36817
 Alpha virt. eigenvalues --   -0.11710   0.23272   0.31213   0.85957   0.93828
 Alpha virt. eigenvalues --    0.93828   1.02731   1.18893   1.18893   1.22210
 Alpha virt. eigenvalues --    1.36707   1.36707   1.73186   2.16754   2.41972

  Beta  occ. eigenvalues --  -24.68129  -1.09416  -0.39273  -0.39273  -0.36366
  Beta virt. eigenvalues --   -0.23647  -0.10597   0.25325   0.30796   0.90420
  Beta virt. eigenvalues --    0.95042   0.95042   1.06625   1.20170   1.20170
  Beta virt. eigenvalues --    1.26504   1.37436   1.37436   1.74105   2.17716

 Mulliken charges and spin densities:
               1          2
     1  H    0.062221  -0.455439
     2  H    0.053245   0.597739
     3  F   -0.115466   0.857700
 Sum of Mulliken charges =  -0.00000   1.00000

 Dipole moment (field-independent basis, Debye):
    X=             -1.6836    Y=              0.0000    Z=              0.0000  Tot=              1.6836
 Quadrupole moment (field-independent basis, Debye-Ang):
   XX=             -7.6743   YY=             -7.6108   ZZ=             -7.6108
   XY=             -0.0000   XZ=             -0.0000   YZ=             -0.0000

  Exact polarizability:      57.645      -0.000       2.062      -0.000       0.000       2.062
 Approx polarizability:      81.830      -0.000       2.013      -0.000      -0.000       2.013

 ******    2 imaginary frequencies (negative Signs) ******

                      1                      2                      3
                      A                      A                      A
 Frequencies --  -2063.0605              -448.4964               982.6135
 Red. masses --      1.0097                 1.1062                 1.0145
 Frc consts  --      2.5321                 0.1311                 0.5771
 IR Inten    --    497.8848                37.0858                 1.0046

                      4
                      A
 Frequencies --    982.6135
 Red. masses --      1.0145
 Frc consts  --      0.5771
 IR Inten    --      1.0046

 - Thermochemistry -
 -------------------
 Temperature   298.150 Kelvin.  Pressure   1.00000 Atm.
 Atom     1 has atomic number  1 and mass   1.00783

 Molecular mass:    21.01405 amu.
 Principal axes and moments of inertia in atomic units:
                           1         2         3
     Eigenvalues --     0.00000  63.17504  63.17504
           X            1.00000  -0.00000   0.00000
           Y            0.00000   1.00000   0.00000
           Z            0.00000   0.00000   1.00000
 This molecule is a prolate symmetric top.
 Rotational symmetry number  1.
 Rotational temperature (Kelvin)      1.37102
 Rotational constant (GHZ):          28.567316
    2 imaginary frequencies ignored.
 Zero-point vibrational energy      11754.7 (Joules/Mol)
                                    2.80943 (Kcal/Mol)
 Vibrational temperatures:   1413.76  1413.76
          (Kelvin)

 Zero-point correction=                           0.004477 (Hartree/Particle)
 Thermal correction to Energy=                    0.006916
 Thermal correction to Enthalpy=                  0.007861
 Thermal correction to Gibbs Free Energy=        -0.015577
 Sum of electronic and zero-point Energies=           -100.812836
 Sum of electronic and thermal Energies=              -100.810397
 Sum of electronic and thermal Enthalpies=            -100.809453
 Sum of electronic and thermal Free Energies=         -100.832890

                     E (Thermal)             CV                S
                      KCal/Mol        Cal/Mol-Kelvin    Cal/Mol-Kelvin
 Total                    4.340              5.761             49.329
 Electronic               0.000              0.000              1.377
 Translational            0.889              2.981             35.068
 Rotational               0.592              1.987             12.682
 Vibrational              2.859              0.793              0.201

 Normal termination of Gaussian 16 at Fri Aug 22 17:11:17 2025.
