 Gaussian 16, Revision C.01,
 Gaussian 16:  ES64L-G16RevC.01  3-Jul-2019

 -----------------------------------------
 # sp b3lyp/6-311g** Force nosymm scf=(qc)
 -----------------------------------------

 -------------------
 Title Card Required
 -------------------
 Symbolic Z-matrix:
 Charge =  0 Multiplicity = 2

                          Input orientation:
 ---------------------------------------------------------------------
 Center     Atomic      Atomic             Coordinates (Angstroms)
 Number     Number       Type             X           Y           Z
 ---------------------------------------------------------------------
      1          1           0        0.000000    0.000000    0.000000
      2          1           0       -3.600000    0.000000    0.000000
      3          9           0        2.400000    0.000000    0.000000
 ---------------------------------------------------------------------

 SCF Done:  E(UB3LYP) =  -100.769821333     a.u. after   19 cycles

 Alpha  occ. eigenvalues --  -24.71126  -1.17377  -0.50219  -0.42199  -0.42199
 Alpha  occ. eigenvalues --   -0.32949
 Alpha virt. eigenvalues --   -0.10857   0.23274   0.34821   0.89235   0.93924
 Alpha virt. eigenvalues --    0.93924   1.06282   1.24559   1.24559   1.24661
 Alpha virt. eigenvalues --    1.39569   1.39569   1.46228   2.14277   2.35507

  Beta  occ. eigenvalues --  -24.68343  -1.09476  -0.39429  -0.39429  -0.35789
  Beta virt. eigenvalues --   -0.22929  -0.06623   0.23694   0.37989   0.94483
  Beta virt. eigenvalues --    0.95230   0.95230   1.08400   1.21817   1.21817
  Beta virt. eigenvalues --    1.33013   1.45885   1.46144   1.46144   2.12228

 Mulliken charges and spin densities:
               1          2
     1  H    0.105386  -0.876768
     2  H    0.000785   0.998357
     3  F   -0.106172   0.878411
 Sum of Mulliken charges =  -0.00000   1.00000

 Dipole moment (field-independent basis, Debye):
    X=             -1.3041    Y=             -0.0000    Z=             -0.0000  Tot=              1.3041
 Quadrupole moment (field-independent basis, Debye-Ang):
   XX=             -9.4951   YY=             -7.5575   ZZ=             -7.5575
   XY=             -0.0000   XZ=             -0.0000   YZ=             -0.0000

  Exact polarizability:      29.794      -0.000       2.029      -0.000       0.000       2.029
 Approx polarizability:      38.901      -0.000       1.921      -0.000      -0.000       1.921

 ******    2 imaginary frequencies (negative Signs) ******

                      1                      2                      3
                      A                      A                      A
 Frequencies --   -685.5042              -107.8643               274.9102
 Red. masses --      1.0557                 1.0559                 1.0235
 Frc consts  --      0.2923                 0.0072                 0.0456
 IR Inten    --     89.1020                 0.1722                10.6565

                      4
                      A
 Frequencies --    274.9102
 Red. masses --      1.0235
 Frc consts  --      0.0456
 IR Inten    --     10.6565

 - Thermochemistry -
 -------------------
 Temperature   298.150 Kelvin.  Pressure   1.00000 Atm.
 Atom     1 has atomic number  1 and mass   1.00783

 Molecular mass:    21.01405 amu.
 Principal axes and moments of inertia in atomic units:
                           1         2         3
     Eigenvalues --     0.00000 138.11545 138.11545
           X            1.00000  -0.00000   0.00000
           Y            0.00000   1.00000   0.00000
           Z            0.00000   0.00000   1.00000
 This molecule is a prolate symmetric top.
 Rotational symmetry number  1.
 Rotational temperature (Kelvin)      0.62711
 Rotational constant (GHZ):          13.066903
    2 imaginary frequencies ignored.
 Zero-point vibrational energy       3288.7 (Joules/Mol)
                                    0.78601 (Kcal/Mol)
 Warning -- explicit consideration of   2 degrees of freedom as
           vibrations may cause significant error
 Vibrational temperatures:    395.53   395.53
          (Kelvin)

 Zero-point correction=                           0.001253 (Hartree/Particle)
 Thermal correction to Energy=                    0.004518
 Thermal correction to Enthalpy=                  0.005462
 Thermal correction to Gibbs Free Energy=        -0.020106
 Sum of electronic and zero-point Energies=           -100.768569
 Sum of electronic and thermal Energies=              -100.765303
 Sum of electronic and thermal Enthalpies=            -100.764359
 Sum of electronic and thermal Free Energies=         -100.789927

                     E (Thermal)             CV                S
                      KCal/Mol        Cal/Mol-Kelvin    Cal/Mol-Kelvin
 Total                    2.835              8.407             53.812
 Electronic               0.000              0.000              1.377
 Translational            0.889              2.981             35.068
 Rotational               0.592              1.987             14.237
 Vibrational              1.354              3.439              3.130
 Vibration     1          0.677              1.720              1.565
 Vibration     2          0.677              1.720              1.565

 Normal termination of Gaussian 16 at Fri Aug 22 17:33:39 2025.
