 Gaussian 16, Revision C.01,
 Gaussian 16:  ES64L-G16RevC.01  3-Jul-2019

 -----------------------------------------
 # sp b3lyp/6-311g** Force nosymm scf=(qc)
 -----------------------------------------

 -------------------
 Title Card Required
 -------------------
 Symbolic Z-matrix:
 Charge =  0 Multiplicity = 2

                          Input orientation:
 ---------------------------------------------------------------------
 Center     Atomic      Atomic             Coordinates (Angstroms)
 Number     Number       Type             X           Y           Z
 ---------------------------------------------------------------------
      1          1           0        0.000000    0.000000    0.000000
      2          1           0       -3.100000    0.000000    0.000000
      3          9           0        3.000000    0.000000    0.000000
 ---------------------------------------------------------------------

 SCF Done:  E(UB3LYP) =  -100.761663802     a.u. after   22 cycles

 Alpha  occ. eigenvalues --  -24.74099  -1.20157  -0.53218  -0.44686  -0.44686
 Alpha  occ. eigenvalues --   -0.32672
 Alpha virt. eigenvalues --   -0.08822   0.24508   0.35368   0.89437   0.92267
 Alpha virt. eigenvalues --    0.92267   1.03932   1.24857   1.24857   1.25462
 Alpha virt. eigenvalues --    1.42856   1.42856   1.43238   2.15366   2.39175

  Beta  occ. eigenvalues --  -24.71071  -1.11480  -0.41655  -0.41655  -0.33754
  Beta virt. eigenvalues --   -0.24786  -0.07386   0.24504   0.37012   0.93729
  Beta virt. eigenvalues --    0.93729   0.98148   1.07708   1.23606   1.23606
  Beta virt. eigenvalues --    1.24406   1.44880   1.45022   1.45022   2.15742

 Mulliken charges and spin densities:
               1          2
     1  H    0.035590  -0.953734
     2  H    0.001253   0.994315
     3  F   -0.036843   0.959419
 Sum of Mulliken charges =  -0.00000   1.00000

 Dipole moment (field-independent basis, Debye):
    X=             -0.5862    Y=             -0.0000    Z=             -0.0000  Tot=              0.5862
 Quadrupole moment (field-independent basis, Debye-Ang):
   XX=             -8.2258   YY=             -7.6185   ZZ=             -7.6185
   XY=             -0.0000   XZ=             -0.0000   YZ=             -0.0000

  Exact polarizability:      34.124      -0.000       2.023      -0.000      -0.000       2.023
 Approx polarizability:      33.721      -0.000       1.925      -0.000       0.000       1.925

 ******    2 imaginary frequencies (negative Signs) ******

                      1                      2                      3
                      A                      A                      A
 Frequencies --   -422.7928              -172.8807               154.3083
 Red. masses --      1.0308                 1.0820                 1.0183
 Frc consts  --      0.1086                 0.0191                 0.0143
 IR Inten    --     36.2005                 3.8979                 1.1414

                      4
                      A
 Frequencies --    154.3083
 Red. masses --      1.0183
 Frc consts  --      0.0143
 IR Inten    --      1.1414

 - Thermochemistry -
 -------------------
 Temperature   298.150 Kelvin.  Pressure   1.00000 Atm.
 Atom     1 has atomic number  1 and mass   1.00783

 Molecular mass:    21.01405 amu.
 Principal axes and moments of inertia in atomic units:
                           1         2         3
     Eigenvalues --     0.00000 152.01661 152.01661
           X            1.00000  -0.00000   0.00000
           Y            0.00000   1.00000   0.00000
           Z            0.00000   0.00000   1.00000
 This molecule is a prolate symmetric top.
 Rotational symmetry number  1.
 Rotational temperature (Kelvin)      0.56977
 Rotational constant (GHZ):          11.872000
    2 imaginary frequencies ignored.
 Zero-point vibrational energy       1845.9 (Joules/Mol)
                                    0.44119 (Kcal/Mol)
 Warning -- explicit consideration of   2 degrees of freedom as
           vibrations may cause significant error
 Vibrational temperatures:    222.02   222.02
          (Kelvin)

 Zero-point correction=                           0.000703 (Hartree/Particle)
 Thermal correction to Energy=                    0.004335
 Thermal correction to Enthalpy=                  0.005279
 Thermal correction to Gibbs Free Energy=        -0.021380
 Sum of electronic and zero-point Energies=           -100.760961
 Sum of electronic and thermal Energies=              -100.757329
 Sum of electronic and thermal Enthalpies=            -100.756384
 Sum of electronic and thermal Free Energies=         -100.783044

                     E (Thermal)             CV                S
                      KCal/Mol        Cal/Mol-Kelvin    Cal/Mol-Kelvin
 Total                    2.720              8.764             56.110
 Electronic               0.000              0.000              1.377
 Translational            0.889              2.981             35.068
 Rotational               0.592              1.987             14.427
 Vibrational              1.239              3.796              5.237
 Vibration     1          0.620              1.898              2.618
 Vibration     2          0.620              1.898              2.618

 Normal termination of Gaussian 16 at Fri Aug 22 19:32:44 2025.
