 Gaussian 16, Revision C.01,
 Gaussian 16:  ES64L-G16RevC.01  3-Jul-2019

 -----------------------------------------
 # sp b3lyp/6-311g** Force nosymm scf=(qc)
 -----------------------------------------

 -------------------
 Title Card Required
 -------------------
 Symbolic Z-matrix:
 Charge =  0 Multiplicity = 2

                          Input orientation:
 ---------------------------------------------------------------------
 Center     Atomic      Atomic             Coordinates (Angstroms)
 Number     Number       Type             X           Y           Z
 ---------------------------------------------------------------------
      1          1           0        0.000000    0.000000    0.000000
      2          1           0       -3.550000    0.000000    0.000000
      3          9           0        2.000000    0.000000    0.000000
 ---------------------------------------------------------------------

 SCF Done:  E(UB3LYP) =  -100.787245576     a.u. after   16 cycles

 Alpha  occ. eigenvalues --  -24.68245  -1.14563  -0.47224  -0.39776  -0.39776
 Alpha  occ. eigenvalues --   -0.33406
 Alpha virt. eigenvalues --   -0.13725   0.22334   0.31891   0.88916   0.94844
 Alpha virt. eigenvalues --    0.94844   1.05687   1.24107   1.24107   1.24189
 Alpha virt. eigenvalues --    1.35439   1.35439   1.60455   2.13924   2.29563

  Beta  occ. eigenvalues --  -24.65873  -1.07933  -0.37940  -0.37438  -0.37438
  Beta virt. eigenvalues --   -0.20751  -0.06902   0.22565   0.37913   0.90284
  Beta virt. eigenvalues --    0.95480   0.95480   1.08124   1.21957   1.21957
  Beta virt. eigenvalues --    1.45496   1.45948   1.45948   1.53433   2.11840

 Mulliken charges and spin densities:
               1          2
     1  H    0.192246  -0.743888
     2  H    0.001429   0.997927
     3  F   -0.193675   0.745961
 Sum of Mulliken charges =  -0.00000   1.00000

 Dipole moment (field-independent basis, Debye):
    X=             -1.9382    Y=             -0.0000    Z=              0.0000  Tot=              1.9382
 Quadrupole moment (field-independent basis, Debye-Ang):
   XX=            -10.0336   YY=             -7.4889   ZZ=             -7.4889
   XY=             -0.0000   XZ=              0.0000   YZ=             -0.0000

  Exact polarizability:      25.810      -0.000       2.061       0.000      -0.000       2.061
 Approx polarizability:      37.264      -0.000       1.947       0.000      -0.000       1.947

 ******    2 imaginary frequencies (negative Signs) ******

                      1                      2                      3
                      A                      A                      A
 Frequencies --  -1130.7859              -113.0129               480.0034
 Red. masses --      1.0572                 1.0544                 1.0261
 Frc consts  --      0.7965                 0.0079                 0.1393
 IR Inten    --    121.5218                 0.2185                34.6898

                      4
                      A
 Frequencies --    480.0034
 Red. masses --      1.0261
 Frc consts  --      0.1393
 IR Inten    --     34.6898

 - Thermochemistry -
 -------------------
 Temperature   298.150 Kelvin.  Pressure   1.00000 Atm.
 Atom     1 has atomic number  1 and mass   1.00783

 Molecular mass:    21.01405 amu.
 Principal axes and moments of inertia in atomic units:
                           1         2         3
     Eigenvalues --     0.00000 115.41547 115.41547
           X            1.00000  -0.00000   0.00000
           Y            0.00000   1.00000   0.00000
           Z            0.00000   0.00000   1.00000
 This molecule is a prolate symmetric top.
 Rotational symmetry number  1.
 Rotational temperature (Kelvin)      0.75045
 Rotational constant (GHZ):          15.636909
    2 imaginary frequencies ignored.
 Zero-point vibrational energy       5742.1 (Joules/Mol)
                                    1.37240 (Kcal/Mol)
 Warning -- explicit consideration of   2 degrees of freedom as
           vibrations may cause significant error
 Vibrational temperatures:    690.62   690.62
          (Kelvin)

 Zero-point correction=                           0.002187 (Hartree/Particle)
 Thermal correction to Energy=                    0.005026
 Thermal correction to Enthalpy=                  0.005970
 Thermal correction to Gibbs Free Energy=        -0.018616
 Sum of electronic and zero-point Energies=           -100.785059
 Sum of electronic and thermal Energies=              -100.782219
 Sum of electronic and thermal Enthalpies=            -100.781275
 Sum of electronic and thermal Free Energies=         -100.805861

                     E (Thermal)             CV                S
                      KCal/Mol        Cal/Mol-Kelvin    Cal/Mol-Kelvin
 Total                    3.154              7.557             51.746
 Electronic               0.000              0.000              1.377
 Translational            0.889              2.981             35.068
 Rotational               0.592              1.987             13.880
 Vibrational              1.673              2.589              1.420
 Vibration     1          0.836              1.294              0.710
 Vibration     2          0.836              1.294              0.710

 Normal termination of Gaussian 16 at Fri Aug 22 16:57:50 2025.
