 Gaussian 16, Revision C.01,
 Gaussian 16:  ES64L-G16RevC.01  3-Jul-2019

 -----------------------------------------
 # sp b3lyp/6-311g** Force nosymm scf=(qc)
 -----------------------------------------

 -------------------
 Title Card Required
 -------------------
 Symbolic Z-matrix:
 Charge =  0 Multiplicity = 2

                          Input orientation:
 ---------------------------------------------------------------------
 Center     Atomic      Atomic             Coordinates (Angstroms)
 Number     Number       Type             X           Y           Z
 ---------------------------------------------------------------------
      1          1           0        0.000000    0.000000    0.000000
      2          1           0       -1.550000    0.000000    0.000000
      3          9           0        0.600000    0.000000    0.000000
 ---------------------------------------------------------------------

 SCF Done:  E(UB3LYP) =  -100.682013343     a.u. after    7 cycles

 Alpha  occ. eigenvalues --  -24.62859  -1.35057  -0.61690  -0.43132  -0.43132
 Alpha  occ. eigenvalues --   -0.35631
 Alpha virt. eigenvalues --    0.13702   0.22115   0.58354   0.91735   0.91735
 Alpha virt. eigenvalues --    0.92777   1.19029   1.19029   1.38208   1.53107
 Alpha virt. eigenvalues --    1.53107   1.62915   1.97719   2.20327   3.51639

  Beta  occ. eigenvalues --  -24.62769  -1.34778  -0.61251  -0.43071  -0.43071
  Beta virt. eigenvalues --   -0.11391   0.14870   0.30976   0.62700   0.91858
  Beta virt. eigenvalues --    0.91858   0.92973   1.34527   1.34527   1.42751
  Beta virt. eigenvalues --    1.56194   1.56194   1.73537   1.97741   2.44443

 Mulliken charges and spin densities:
               1          2
     1  H    0.218877   0.015635
     2  H    0.010913   0.976585
     3  F   -0.229790   0.007780
 Sum of Mulliken charges =   0.00000   1.00000

 Dipole moment (field-independent basis, Debye):
    X=             -1.4579    Y=              0.0000    Z=              0.0000  Tot=              1.4579
 Quadrupole moment (field-independent basis, Debye-Ang):
   XX=             -6.8300   YY=             -6.4786   ZZ=             -6.4786
   XY=              0.0000   XZ=              0.0000   YZ=             -0.0000

  Exact polarizability:       6.253      -0.000       2.511       0.000       0.000       2.511
 Approx polarizability:       5.976       0.000       2.521       0.000       0.000       2.521

 ******    2 imaginary frequencies (negative Signs) ******

                      1                      2                      3
                      A                      A                      A
 Frequencies --  -5746.8997             -5746.8997               831.3344
 Red. masses --      1.0322                 1.0322                 1.0534
 Frc consts  --     20.0855                20.0855                 0.4289
 IR Inten    --    177.7146               177.7146                 4.0266

                      4
                      A
 Frequencies --  13069.2592
 Red. masses --      1.0581
 Frc consts  --    106.4857
 IR Inten    --    112.9360

 - Thermochemistry -
 -------------------
 Temperature   298.150 Kelvin.  Pressure   1.00000 Atm.
 Atom     1 has atomic number  1 and mass   1.00783

 Molecular mass:    21.01405 amu.
 Principal axes and moments of inertia in atomic units:
                           1         2         3
     Eigenvalues --     0.00000  16.62672  16.62672
           X            1.00000  -0.00000   0.00000
           Y            0.00000   1.00000   0.00000
           Z            0.00000   0.00000   1.00000
 This molecule is a prolate symmetric top.
 Rotational symmetry number  1.
 Rotational temperature (Kelvin)      5.20932
 Rotational constant (GHZ):         108.544630
    2 imaginary frequencies ignored.
 Zero-point vibrational energy      83144.0 (Joules/Mol)
                                   19.87190 (Kcal/Mol)
 Vibrational temperatures:   1196.10 18803.75
          (Kelvin)

 Zero-point correction=                           0.031668 (Hartree/Particle)
 Thermal correction to Energy=                    0.034098
 Thermal correction to Enthalpy=                  0.035042
 Thermal correction to Gibbs Free Energy=         0.012873
 Sum of electronic and zero-point Energies=           -100.650345
 Sum of electronic and thermal Energies=              -100.647915
 Sum of electronic and thermal Enthalpies=            -100.646971
 Sum of electronic and thermal Free Energies=         -100.669140

                     E (Thermal)             CV                S
                      KCal/Mol        Cal/Mol-Kelvin    Cal/Mol-Kelvin
 Total                   21.397              5.568             46.658
 Electronic               0.000              0.000              1.377
 Translational            0.889              2.981             35.068
 Rotational               0.592              1.987             10.030
 Vibrational             19.916              0.600              0.183

 Normal termination of Gaussian 16 at Fri Aug 22 15:41:23 2025.
