 Gaussian 16, Revision C.01,
 Gaussian 16:  ES64L-G16RevC.01  3-Jul-2019

 -----------------------------------------
 # sp b3lyp/6-311g** Force nosymm scf=(qc)
 -----------------------------------------

 -------------------
 Title Card Required
 -------------------
 Symbolic Z-matrix:
 Charge =  0 Multiplicity = 2

                          Input orientation:
 ---------------------------------------------------------------------
 Center     Atomic      Atomic             Coordinates (Angstroms)
 Number     Number       Type             X           Y           Z
 ---------------------------------------------------------------------
      1          1           0        0.000000    0.000000    0.000000
      2          1           0       -3.150000    0.000000    0.000000
      3          9           0        2.800000    0.000000    0.000000
 ---------------------------------------------------------------------

 SCF Done:  E(UB3LYP) =  -100.763289008     a.u. after   21 cycles

 Alpha  occ. eigenvalues --  -24.73291  -1.19407  -0.52407  -0.44009  -0.44009
 Alpha  occ. eigenvalues --   -0.32802
 Alpha virt. eigenvalues --   -0.09380   0.24246   0.35254   0.89952   0.92747
 Alpha virt. eigenvalues --    0.92747   1.05124   1.24724   1.24724   1.25278
 Alpha virt. eigenvalues --    1.42253   1.42253   1.43064   2.15168   2.38063

  Beta  occ. eigenvalues --  -24.70322  -1.10914  -0.41040  -0.41040  -0.34298
  Beta virt. eigenvalues --   -0.24314  -0.07341   0.24464   0.37149   0.94187
  Beta virt. eigenvalues --    0.94187   0.98230   1.08602   1.23042   1.23042
  Beta virt. eigenvalues --    1.24820   1.44970   1.45147   1.45147   2.15053

 Mulliken charges and spin densities:
               1          2
     1  H    0.052511  -0.935264
     2  H    0.001481   0.995014
     3  F   -0.053992   0.940250
 Sum of Mulliken charges =  -0.00000   1.00000

 Dipole moment (field-independent basis, Debye):
    X=             -0.7973    Y=             -0.0000    Z=              0.0000  Tot=              0.7973
 Quadrupole moment (field-independent basis, Debye-Ang):
   XX=             -8.6405   YY=             -7.6058   ZZ=             -7.6058
   XY=             -0.0000   XZ=              0.0000   YZ=              0.0000

  Exact polarizability:      34.261      -0.000       2.022       0.000       0.000       2.022
 Approx polarizability:      37.345      -0.000       1.922       0.000      -0.000       1.922

 ******    2 imaginary frequencies (negative Signs) ******

                      1                      2                      3
                      A                      A                      A
 Frequencies --   -486.0731              -173.9583               180.6246
 Red. masses --      1.0408                 1.0712                 1.0194
 Frc consts  --      0.1449                 0.0191                 0.0196
 IR Inten    --     52.7156                 2.3700                 2.5329

                      4
                      A
 Frequencies --    180.6246
 Red. masses --      1.0194
 Frc consts  --      0.0196
 IR Inten    --      2.5329

 - Thermochemistry -
 -------------------
 Temperature   298.150 Kelvin.  Pressure   1.00000 Atm.
 Atom     1 has atomic number  1 and mass   1.00783

 Molecular mass:    21.01405 amu.
 Principal axes and moments of inertia in atomic units:
                           1         2         3
     Eigenvalues --     0.00000 142.41491 142.41491
           X            1.00000  -0.00000   0.00000
           Y            0.00000   1.00000   0.00000
           Z            0.00000   0.00000   1.00000
 This molecule is a prolate symmetric top.
 Rotational symmetry number  1.
 Rotational temperature (Kelvin)      0.60818
 Rotational constant (GHZ):          12.672418
    2 imaginary frequencies ignored.
 Zero-point vibrational energy       2160.8 (Joules/Mol)
                                    0.51643 (Kcal/Mol)
 Warning -- explicit consideration of   2 degrees of freedom as
           vibrations may cause significant error
 Vibrational temperatures:    259.88   259.88
          (Kelvin)

 Zero-point correction=                           0.000823 (Hartree/Particle)
 Thermal correction to Energy=                    0.004367
 Thermal correction to Enthalpy=                  0.005311
 Thermal correction to Gibbs Free Energy=        -0.021005
 Sum of electronic and zero-point Energies=           -100.762466
 Sum of electronic and thermal Energies=              -100.758922
 Sum of electronic and thermal Enthalpies=            -100.757978
 Sum of electronic and thermal Free Energies=         -100.784294

                     E (Thermal)             CV                S
                      KCal/Mol        Cal/Mol-Kelvin    Cal/Mol-Kelvin
 Total                    2.740              8.700             55.387
 Electronic               0.000              0.000              1.377
 Translational            0.889              2.981             35.068
 Rotational               0.592              1.987             14.298
 Vibrational              1.259              3.732              4.644
 Vibration     1          0.630              1.866              2.322
 Vibration     2          0.630              1.866              2.322

 Normal termination of Gaussian 16 at Fri Aug 22 18:44:15 2025.
