 Gaussian 16, Revision C.01,
 Gaussian 16:  ES64L-G16RevC.01  3-Jul-2019

 -----------------------------------------
 # sp b3lyp/6-311g** Force nosymm scf=(qc)
 -----------------------------------------

 -------------------
 Title Card Required
 -------------------
 Symbolic Z-matrix:
 Charge =  0 Multiplicity = 2

                          Input orientation:
 ---------------------------------------------------------------------
 Center     Atomic      Atomic             Coordinates (Angstroms)
 Number     Number       Type             X           Y           Z
 ---------------------------------------------------------------------
      1          1           0        0.000000    0.000000    0.000000
      2          1           0       -2.750000    0.000000    0.000000
      3          9           0        0.600000    0.000000    0.000000
 ---------------------------------------------------------------------

 SCF Done:  E(UB3LYP) =  -100.688029028     a.u. after    6 cycles

 Alpha  occ. eigenvalues --  -24.62712  -1.34702  -0.61017  -0.42956  -0.42956
 Alpha  occ. eigenvalues --   -0.33990
 Alpha virt. eigenvalues --    0.08180   0.25665   0.58331   0.92149   0.92149
 Alpha virt. eigenvalues --    0.93168   1.20562   1.23547   1.23547   1.41290
 Alpha virt. eigenvalues --    1.50287   1.50287   1.95531   2.14716   3.36519

  Beta  occ. eigenvalues --  -24.62708  -1.34690  -0.61009  -0.42954  -0.42954
  Beta virt. eigenvalues --   -0.06944   0.09342   0.38774   0.58245   0.92143
  Beta virt. eigenvalues --    0.92143   0.93217   1.32473   1.48689   1.48689
  Beta virt. eigenvalues --    1.50288   1.50288   1.54067   1.95223   2.44299

 Mulliken charges and spin densities:
               1          2
     1  H    0.234952   0.002008
     2  H    0.002918   0.996109
     3  F   -0.237870   0.001883
 Sum of Mulliken charges =   0.00000   1.00000

 Dipole moment (field-independent basis, Debye):
    X=             -1.4693    Y=             -0.0000    Z=             -0.0000  Tot=              1.4693
 Quadrupole moment (field-independent basis, Debye-Ang):
   XX=             -6.8583   YY=             -6.5495   ZZ=             -6.5495
   XY=             -0.0000   XZ=             -0.0000   YZ=              0.0000

  Exact polarizability:       4.376       0.000       2.453      -0.000      -0.000       2.453
 Approx polarizability:       4.473       0.000       2.436       0.000      -0.000       2.436

 ******    2 imaginary frequencies (negative Signs) ******

                      1                      2                      3
                      A                      A                      A
 Frequencies --  -5855.2641             -5855.2641                60.8572
 Red. masses --      1.0408                 1.0408                 1.0532
 Frc consts  --     21.0242                21.0242                 0.0023
 IR Inten    --    230.9100               230.9100                 0.1273

                      4
                      A
 Frequencies --  13070.7311
 Red. masses --      1.0583
 Frc consts  --    106.5280
 IR Inten    --    104.6353

 - Thermochemistry -
 -------------------
 Temperature   298.150 Kelvin.  Pressure   1.00000 Atm.
 Atom     1 has atomic number  1 and mass   1.00783

 Molecular mass:    21.01405 amu.
 Principal axes and moments of inertia in atomic units:
                           1         2         3
     Eigenvalues --     0.00000  38.99242  38.99242
           X            1.00000  -0.00000   0.00000
           Y            0.00000   1.00000   0.00000
           Z            0.00000   0.00000   1.00000
 This molecule is a prolate symmetric top.
 Rotational symmetry number  1.
 Rotational temperature (Kelvin)      2.22130
 Rotational constant (GHZ):          46.284415
    2 imaginary frequencies ignored.
 Zero-point vibrational energy      78544.3 (Joules/Mol)
                                   18.77255 (Kcal/Mol)
 Warning -- explicit consideration of   1 degrees of freedom as
           vibrations may cause significant error
 Vibrational temperatures:     87.56 18805.87
          (Kelvin)

 Zero-point correction=                           0.029916 (Hartree/Particle)
 Thermal correction to Energy=                    0.033089
 Thermal correction to Enthalpy=                  0.034033
 Thermal correction to Gibbs Free Energy=         0.009042
 Sum of electronic and zero-point Energies=           -100.658113
 Sum of electronic and thermal Energies=              -100.654940
 Sum of electronic and thermal Enthalpies=            -100.653996
 Sum of electronic and thermal Free Energies=         -100.678987

                     E (Thermal)             CV                S
                      KCal/Mol        Cal/Mol-Kelvin    Cal/Mol-Kelvin
 Total                   20.763              6.941             52.598
 Electronic               0.000              0.000              1.377
 Translational            0.889              2.981             35.068
 Rotational               0.592              1.987             11.724
 Vibrational             19.282              1.973              4.429
 Vibration     1          0.597              1.973              4.429

 Normal termination of Gaussian 16 at Fri Aug 22 15:42:12 2025.
