 Gaussian 16, Revision C.01,
 Gaussian 16:  ES64L-G16RevC.01  3-Jul-2019

 -----------------------------------------
 # sp b3lyp/6-311g** Force nosymm scf=(qc)
 -----------------------------------------

 -------------------
 Title Card Required
 -------------------
 Symbolic Z-matrix:
 Charge =  0 Multiplicity = 2

                          Input orientation:
 ---------------------------------------------------------------------
 Center     Atomic      Atomic             Coordinates (Angstroms)
 Number     Number       Type             X           Y           Z
 ---------------------------------------------------------------------
      1          1           0        0.000000    0.000000    0.000000
      2          1           0       -2.900000    0.000000    0.000000
      3          9           0        2.700000    0.000000    0.000000
 ---------------------------------------------------------------------

 SCF Done:  E(UB3LYP) =  -100.765187810     a.u. after   20 cycles

 Alpha  occ. eigenvalues --  -24.72833  -1.18978  -0.51944  -0.43623  -0.43623
 Alpha  occ. eigenvalues --   -0.33050
 Alpha virt. eigenvalues --   -0.10247   0.24525   0.34473   0.90126   0.93014
 Alpha virt. eigenvalues --    0.93014   1.05732   1.24503   1.24503   1.25663
 Alpha virt. eigenvalues --    1.40880   1.40880   1.42520   2.15334   2.36728

  Beta  occ. eigenvalues --  -24.69899  -1.10598  -0.40693  -0.40693  -0.34622
  Beta virt. eigenvalues --   -0.24041  -0.08050   0.24948   0.36324   0.94438
  Beta virt. eigenvalues --    0.94438   0.98085   1.09035   1.22764   1.22764
  Beta virt. eigenvalues --    1.25968   1.44139   1.44139   1.44311   2.15122

 Mulliken charges and spin densities:
               1          2
     1  H    0.060942  -0.918798
     2  H    0.003200   0.990370
     3  F   -0.064142   0.928428
 Sum of Mulliken charges =  -0.00000   1.00000

 Dipole moment (field-independent basis, Debye):
    X=             -0.9304    Y=             -0.0000    Z=              0.0000  Tot=              0.9304
 Quadrupole moment (field-independent basis, Debye-Ang):
   XX=             -8.7461   YY=             -7.6072   ZZ=             -7.6072
   XY=             -0.0000   XZ=              0.0000   YZ=              0.0000

  Exact polarizability:      36.639      -0.000       2.019       0.000       0.000       2.019
 Approx polarizability:      40.247      -0.000       1.920       0.000      -0.000       1.920

 ******    2 imaginary frequencies (negative Signs) ******

                      1                      2                      3
                      A                      A                      A
 Frequencies --   -570.6921              -227.4470               217.8673
 Red. masses --      1.0332                 1.0793                 1.0188
 Frc consts  --      0.1983                 0.0329                 0.0285
 IR Inten    --     56.3946                 6.4122                 3.3200

                      4
                      A
 Frequencies --    217.8673
 Red. masses --      1.0188
 Frc consts  --      0.0285
 IR Inten    --      3.3200

 - Thermochemistry -
 -------------------
 Temperature   298.150 Kelvin.  Pressure   1.00000 Atm.
 Atom     1 has atomic number  1 and mass   1.00783

 Molecular mass:    21.01405 amu.
 Principal axes and moments of inertia in atomic units:
                           1         2         3
     Eigenvalues --     0.00000 127.21079 127.21079
           X            1.00000  -0.00000   0.00000
           Y            0.00000   1.00000   0.00000
           Z            0.00000   0.00000   1.00000
 This molecule is a prolate symmetric top.
 Rotational symmetry number  1.
 Rotational temperature (Kelvin)      0.68087
 Rotational constant (GHZ):          14.187014
    2 imaginary frequencies ignored.
 Zero-point vibrational energy       2606.3 (Joules/Mol)
                                    0.62291 (Kcal/Mol)
 Warning -- explicit consideration of   2 degrees of freedom as
           vibrations may cause significant error
 Vibrational temperatures:    313.46   313.46
          (Kelvin)

 Zero-point correction=                           0.000993 (Hartree/Particle)
 Thermal correction to Energy=                    0.004420
 Thermal correction to Enthalpy=                  0.005364
 Thermal correction to Gibbs Free Energy=        -0.020518
 Sum of electronic and zero-point Energies=           -100.764195
 Sum of electronic and thermal Energies=              -100.760768
 Sum of electronic and thermal Enthalpies=            -100.759824
 Sum of electronic and thermal Free Energies=         -100.785706

                     E (Thermal)             CV                S
                      KCal/Mol        Cal/Mol-Kelvin    Cal/Mol-Kelvin
 Total                    2.773              8.596             54.472
 Electronic               0.000              0.000              1.377
 Translational            0.889              2.981             35.068
 Rotational               0.592              1.987             14.073
 Vibrational              1.292              3.628              3.953
 Vibration     1          0.646              1.814              1.977
 Vibration     2          0.646              1.814              1.977

 Normal termination of Gaussian 16 at Fri Aug 22 18:26:19 2025.
