 Gaussian 16, Revision C.01,
 Gaussian 16:  ES64L-G16RevC.01  3-Jul-2019

 -----------------------------------------
 # sp b3lyp/6-311g** Force nosymm scf=(qc)
 -----------------------------------------

 -------------------
 Title Card Required
 -------------------
 Symbolic Z-matrix:
 Charge =  0 Multiplicity = 2

                          Input orientation:
 ---------------------------------------------------------------------
 Center     Atomic      Atomic             Coordinates (Angstroms)
 Number     Number       Type             X           Y           Z
 ---------------------------------------------------------------------
      1          1           0        0.000000    0.000000    0.000000
      2          1           0       -3.850000    0.000000    0.000000
      3          9           0        1.450000    0.000000    0.000000
 ---------------------------------------------------------------------

 SCF Done:  E(UB3LYP) =  -100.865758378     a.u. after    8 cycles

 Alpha  occ. eigenvalues --  -24.64375  -1.09961  -0.43878  -0.36570  -0.36570
 Alpha  occ. eigenvalues --   -0.33672
 Alpha virt. eigenvalues --   -0.13267   0.20597   0.27296   0.93262   0.93262
 Alpha virt. eigenvalues --    1.03519   1.12070   1.23804   1.23836   1.23836
 Alpha virt. eigenvalues --    1.31878   1.31878   1.72208   2.12931   2.20005

  Beta  occ. eigenvalues --  -24.64367  -1.09939  -0.43859  -0.36562  -0.36562
  Beta virt. eigenvalues --   -0.13414  -0.06108   0.23413   0.38356   0.93259
  Beta virt. eigenvalues --    0.93259   1.03540   1.12080   1.31842   1.31842
  Beta virt. eigenvalues --    1.46505   1.46846   1.46846   1.72218   2.18967

 Mulliken charges and spin densities:
               1          2
     1  H    0.353702  -0.001869
     2  H    0.000741   0.999219
     3  F   -0.354442   0.002650
 Sum of Mulliken charges =   0.00000   1.00000

 Dipole moment (field-independent basis, Debye):
    X=             -2.5507    Y=             -0.0000    Z=              0.0000  Tot=              2.5507
 Quadrupole moment (field-independent basis, Debye-Ang):
   XX=             -9.7751   YY=             -7.2931   ZZ=             -7.2931
   XY=              0.0000   XZ=              0.0000   YZ=             -0.0000

  Exact polarizability:      13.746      -0.000       2.209      -0.000      -0.000       2.209
 Approx polarizability:      25.032      -0.000       2.138      -0.000       0.000       2.138

 ******    2 imaginary frequencies (negative Signs) ******

                      1                      2                      3
                      A                      A                      A
 Frequencies --  -1096.5549               -49.9606              1059.7221
 Red. masses --      1.0580                 1.0536                 1.0326
 Frc consts  --      0.7495                 0.0015                 0.6833
 IR Inten    --     42.5150                 0.0452               123.9521

                      4
                      A
 Frequencies --   1059.7221
 Red. masses --      1.0326
 Frc consts  --      0.6833
 IR Inten    --    123.9521

 - Thermochemistry -
 -------------------
 Temperature   298.150 Kelvin.  Pressure   1.00000 Atm.
 Atom     1 has atomic number  1 and mass   1.00783

 Molecular mass:    21.01405 amu.
 Principal axes and moments of inertia in atomic units:
                           1         2         3
     Eigenvalues --     0.00000 100.79866 100.79866
           X            1.00000  -0.00000   0.00000
           Y            0.00000   1.00000   0.00000
           Z            0.00000   0.00000   1.00000
 This molecule is a prolate symmetric top.
 Rotational symmetry number  1.
 Rotational temperature (Kelvin)      0.85928
 Rotational constant (GHZ):          17.904416
    2 imaginary frequencies ignored.
 Zero-point vibrational energy      12677.1 (Joules/Mol)
                                    3.02990 (Kcal/Mol)
 Vibrational temperatures:   1524.70  1524.70
          (Kelvin)

 Zero-point correction=                           0.004828 (Hartree/Particle)
 Thermal correction to Energy=                    0.007247
 Thermal correction to Enthalpy=                  0.008192
 Thermal correction to Gibbs Free Energy=        -0.015662
 Sum of electronic and zero-point Energies=           -100.860930
 Sum of electronic and thermal Energies=              -100.858511
 Sum of electronic and thermal Enthalpies=            -100.857567
 Sum of electronic and thermal Free Energies=         -100.881420

                     E (Thermal)             CV                S
                      KCal/Mol        Cal/Mol-Kelvin    Cal/Mol-Kelvin
 Total                    4.548              5.601             50.203
 Electronic               0.000              0.000              1.377
 Translational            0.889              2.981             35.068
 Rotational               0.592              1.987             13.611
 Vibrational              3.067              0.633              0.147

 Normal termination of Gaussian 16 at Fri Aug 22 16:24:06 2025.
