 Gaussian 16, Revision C.01,
 Gaussian 16:  ES64L-G16RevC.01  3-Jul-2019

 -----------------------------------------
 # sp b3lyp/6-311g** Force nosymm scf=(qc)
 -----------------------------------------

 -------------------
 Title Card Required
 -------------------
 Symbolic Z-matrix:
 Charge =  0 Multiplicity = 2

                          Input orientation:
 ---------------------------------------------------------------------
 Center     Atomic      Atomic             Coordinates (Angstroms)
 Number     Number       Type             X           Y           Z
 ---------------------------------------------------------------------
      1          1           0        0.000000    0.000000    0.000000
      2          1           0       -2.850000    0.000000    0.000000
      3          9           0        2.300000    0.000000    0.000000
 ---------------------------------------------------------------------

 SCF Done:  E(UB3LYP) =  -100.774182341     a.u. after   14 cycles

 Alpha  occ. eigenvalues --  -24.70464  -1.16741  -0.49539  -0.41638  -0.41638
 Alpha  occ. eigenvalues --   -0.33630
 Alpha virt. eigenvalues --   -0.12069   0.23985   0.33377   0.89118   0.94238
 Alpha virt. eigenvalues --    0.94238   1.06507   1.23933   1.23933   1.25288
 Alpha virt. eigenvalues --    1.38132   1.38132   1.48110   2.14837   2.32707

  Beta  occ. eigenvalues --  -24.67752  -1.09063  -0.38944  -0.38944  -0.36226
  Beta virt. eigenvalues --   -0.22492  -0.08450   0.24759   0.36157   0.93691
  Beta virt. eigenvalues --    0.95457   0.95457   1.08700   1.21707   1.21707
  Beta virt. eigenvalues --    1.36908   1.43714   1.43714   1.44396   2.13258

 Mulliken charges and spin densities:
               1          2
     1  H    0.117408  -0.843627
     2  H    0.005854   0.988568
     3  F   -0.123262   0.855059
 Sum of Mulliken charges =   0.00000   1.00000

 Dipole moment (field-independent basis, Debye):
    X=             -1.5090    Y=              0.0000    Z=             -0.0000  Tot=              1.5090
 Quadrupole moment (field-independent basis, Debye-Ang):
   XX=             -9.3970   YY=             -7.5623   ZZ=             -7.5623
   XY=              0.0000   XZ=             -0.0000   YZ=              0.0000

  Exact polarizability:      34.558       0.000       2.029      -0.000       0.000       2.029
 Approx polarizability:      42.461       0.000       1.923      -0.000      -0.000       1.923

 ******    2 imaginary frequencies (negative Signs) ******

                      1                      2                      3
                      A                      A                      A
 Frequencies --   -813.8268              -259.7883               332.1733
 Red. masses --      1.0453                 1.0664                 1.0207
 Frc consts  --      0.4079                 0.0424                 0.0664
 IR Inten    --     88.7347                 5.1404                12.3193

                      4
                      A
 Frequencies --    332.1733
 Red. masses --      1.0207
 Frc consts  --      0.0664
 IR Inten    --     12.3193

 - Thermochemistry -
 -------------------
 Temperature   298.150 Kelvin.  Pressure   1.00000 Atm.
 Atom     1 has atomic number  1 and mass   1.00783

 Molecular mass:    21.01405 amu.
 Principal axes and moments of inertia in atomic units:
                           1         2         3
     Eigenvalues --     0.00000 104.91334 104.91334
           X            1.00000  -0.00000   0.00000
           Y            0.00000   1.00000   0.00000
           Z            0.00000   0.00000   1.00000
 This molecule is a prolate symmetric top.
 Rotational symmetry number  1.
 Rotational temperature (Kelvin)      0.82558
 Rotational constant (GHZ):          17.202208
    2 imaginary frequencies ignored.
 Zero-point vibrational energy       3973.7 (Joules/Mol)
                                    0.94973 (Kcal/Mol)
 Warning -- explicit consideration of   2 degrees of freedom as
           vibrations may cause significant error
 Vibrational temperatures:    477.92   477.92
          (Kelvin)

 Zero-point correction=                           0.001513 (Hartree/Particle)
 Thermal correction to Energy=                    0.004637
 Thermal correction to Enthalpy=                  0.005581
 Thermal correction to Gibbs Free Energy=        -0.019427
 Sum of electronic and zero-point Energies=           -100.772669
 Sum of electronic and thermal Energies=              -100.769545
 Sum of electronic and thermal Enthalpies=            -100.768601
 Sum of electronic and thermal Free Energies=         -100.793610

                     E (Thermal)             CV                S
                      KCal/Mol        Cal/Mol-Kelvin    Cal/Mol-Kelvin
 Total                    2.910              8.191             52.635
 Electronic               0.000              0.000              1.377
 Translational            0.889              2.981             35.068
 Rotational               0.592              1.987             13.690
 Vibrational              1.428              3.223              2.499
 Vibration     1          0.714              1.611              1.249
 Vibration     2          0.714              1.611              1.249

 Normal termination of Gaussian 16 at Fri Aug 22 17:22:41 2025.
