 Gaussian 16, Revision C.01,
 Gaussian 16:  ES64L-G16RevC.01  3-Jul-2019

 -----------------------------------------
 # sp b3lyp/6-311g** Force nosymm scf=(qc)
 -----------------------------------------

 -------------------
 Title Card Required
 -------------------
 Symbolic Z-matrix:
 Charge =  0 Multiplicity = 2

                          Input orientation:
 ---------------------------------------------------------------------
 Center     Atomic      Atomic             Coordinates (Angstroms)
 Number     Number       Type             X           Y           Z
 ---------------------------------------------------------------------
      1          1           0        0.000000    0.000000    0.000000
      2          1           0       -1.650000    0.000000    0.000000
      3          9           0        1.200000    0.000000    0.000000
 ---------------------------------------------------------------------

 SCF Done:  E(UB3LYP) =  -100.930547674     a.u. after    8 cycles

 Alpha  occ. eigenvalues --  -24.63438  -1.11828  -0.48760  -0.37450  -0.36840
 Alpha  occ. eigenvalues --   -0.36840
 Alpha virt. eigenvalues --   -0.00501   0.21691   0.29206   0.93761   0.93761
 Alpha virt. eigenvalues --    1.01164   1.07109   1.17543   1.17543   1.38087
 Alpha virt. eigenvalues --    1.38087   1.52298   1.80125   2.21268   2.36239

  Beta  occ. eigenvalues --  -24.63059  -1.10870  -0.46554  -0.36494  -0.36494
  Beta virt. eigenvalues --   -0.17358   0.02904   0.26531   0.32426   0.93823
  Beta virt. eigenvalues --    0.93823   1.02110   1.15151   1.29005   1.29005
  Beta virt. eigenvalues --    1.42154   1.42154   1.55869   1.86960   2.29618

 Mulliken charges and spin densities:
               1          2
     1  H    0.315467  -0.028612
     2  H    0.045691   0.917030
     3  F   -0.361158   0.111582
 Sum of Mulliken charges =  -0.00000   1.00000

 Dipole moment (field-independent basis, Debye):
    X=             -2.6991    Y=             -0.0000    Z=              0.0000  Tot=              2.6991
 Quadrupole moment (field-independent basis, Debye-Ang):
   XX=             -8.0406   YY=             -7.0270   ZZ=             -7.0270
   XY=             -0.0000   XZ=              0.0000   YZ=             -0.0000

  Exact polarizability:      18.356       0.000       2.419      -0.000      -0.000       2.419
 Approx polarizability:      22.580       0.000       2.389       0.000      -0.000       2.389

 ******    1 imaginary frequencies (negative Signs) ******

                      1                      2                      3
                      A                      A                      A
 Frequencies --  -1084.9242               622.5324              1134.0504
 Red. masses --      1.0094                 1.1066                 1.0222
 Frc consts  --      0.7000                 0.2527                 0.7746
 IR Inten    --    126.9319                59.2387                82.8392

                      4
                      A
 Frequencies --   1134.0504
 Red. masses --      1.0222
 Frc consts  --      0.7746
 IR Inten    --     82.8392

 - Thermochemistry -
 -------------------
 Temperature   298.150 Kelvin.  Pressure   1.00000 Atm.
 Atom     1 has atomic number  1 and mass   1.00783

 Molecular mass:    21.01405 amu.
 Principal axes and moments of inertia in atomic units:
                           1         2         3
     Eigenvalues --     0.00000  31.58433  31.58433
           X            1.00000  -0.00000   0.00000
           Y            0.00000   1.00000   0.00000
           Z            0.00000   0.00000   1.00000
 This molecule is a prolate symmetric top.
 Rotational symmetry number  1.
 Rotational temperature (Kelvin)      2.74231
 Rotational constant (GHZ):          57.140391
    1 imaginary frequencies ignored.
 Zero-point vibrational energy      17289.8 (Joules/Mol)
                                    4.13237 (Kcal/Mol)
 Vibrational temperatures:    895.69  1631.65  1631.65
          (Kelvin)

 Zero-point correction=                           0.006585 (Hartree/Particle)
 Thermal correction to Energy=                    0.009137
 Thermal correction to Enthalpy=                  0.010082
 Thermal correction to Gibbs Free Energy=        -0.012854
 Sum of electronic and zero-point Energies=           -100.923962
 Sum of electronic and thermal Energies=              -100.921410
 Sum of electronic and thermal Enthalpies=            -100.920466
 Sum of electronic and thermal Free Energies=         -100.943401

                     E (Thermal)             CV                S
                      KCal/Mol        Cal/Mol-Kelvin    Cal/Mol-Kelvin
 Total                    5.734              6.457             48.271
 Electronic               0.000              0.000              1.377
 Translational            0.889              2.981             35.068
 Rotational               0.592              1.987             11.305
 Vibrational              4.253              1.489              0.521

 Normal termination of Gaussian 16 at Fri Aug 22 16:09:54 2025.
