 Gaussian 16, Revision C.01,
 Gaussian 16:  ES64L-G16RevC.01  3-Jul-2019

 -----------------------------------------
 # sp b3lyp/6-311g** Force nosymm scf=(qc)
 -----------------------------------------

 -------------------
 Title Card Required
 -------------------
 Symbolic Z-matrix:
 Charge =  0 Multiplicity = 2

                          Input orientation:
 ---------------------------------------------------------------------
 Center     Atomic      Atomic             Coordinates (Angstroms)
 Number     Number       Type             X           Y           Z
 ---------------------------------------------------------------------
      1          1           0        0.000000    0.000000    0.000000
      2          1           0       -3.850000    0.000000    0.000000
      3          9           0        2.900000    0.000000    0.000000
 ---------------------------------------------------------------------

 SCF Done:  E(UB3LYP) =  -100.761634774     a.u. after   21 cycles

 Alpha  occ. eigenvalues --  -24.73695  -1.19784  -0.52814  -0.44348  -0.44348
 Alpha  occ. eigenvalues --   -0.32522
 Alpha virt. eigenvalues --   -0.08189   0.23813   0.36111   0.89631   0.92508
 Alpha virt. eigenvalues --    0.92508   1.04446   1.24977   1.24977   1.25013
 Alpha virt. eigenvalues --    1.43705   1.43705   1.44600   2.14387   2.40288

  Beta  occ. eigenvalues --  -24.70695  -1.11195  -0.41348  -0.41348  -0.33987
  Beta virt. eigenvalues --   -0.24548  -0.06088   0.23785   0.38113   0.93960
  Beta virt. eigenvalues --    0.93960   0.98125   1.08022   1.23325   1.23325
  Beta virt. eigenvalues --    1.24121   1.46432   1.46602   1.46602   2.14232

 Mulliken charges and spin densities:
               1          2
     1  H    0.045073  -0.949397
     2  H    0.000210   0.999130
     3  F   -0.045282   0.950267
 Sum of Mulliken charges =  -0.00000   1.00000

 Dipole moment (field-independent basis, Debye):
    X=             -0.6776    Y=              0.0000    Z=             -0.0000  Tot=              0.6776
 Quadrupole moment (field-independent basis, Debye-Ang):
   XX=             -8.5469   YY=             -7.6007   ZZ=             -7.6007
   XY=              0.0000   XZ=             -0.0000   YZ=             -0.0000

  Exact polarizability:      31.378       0.000       2.026      -0.000       0.000       2.026
 Approx polarizability:      33.925       0.000       1.925      -0.000       0.000       1.925

 ******    2 imaginary frequencies (negative Signs) ******

                      1                      2                      3
                      A                      A                      A
 Frequencies --   -404.6392               -81.2095               144.1493
 Red. masses --      1.0539                 1.0576                 1.0217
 Frc consts  --      0.1017                 0.0041                 0.0125
 IR Inten    --     47.0182                 0.1104                 1.9572

                      4
                      A
 Frequencies --    144.1493
 Red. masses --      1.0217
 Frc consts  --      0.0125
 IR Inten    --      1.9572

 - Thermochemistry -
 -------------------
 Temperature   298.150 Kelvin.  Pressure   1.00000 Atm.
 Atom     1 has atomic number  1 and mass   1.00783

 Molecular mass:    21.01405 amu.
 Principal axes and moments of inertia in atomic units:
                           1         2         3
     Eigenvalues --     0.00000 178.17390 178.17390
           X            1.00000  -0.00000   0.00000
           Y            0.00000   1.00000   0.00000
           Z            0.00000   0.00000   1.00000
 This molecule is a prolate symmetric top.
 Rotational symmetry number  1.
 Rotational temperature (Kelvin)      0.48612
 Rotational constant (GHZ):          10.129100
    2 imaginary frequencies ignored.
 Zero-point vibrational energy       1724.4 (Joules/Mol)
                                    0.41214 (Kcal/Mol)
 Warning -- explicit consideration of   2 degrees of freedom as
           vibrations may cause significant error
 Vibrational temperatures:    207.40   207.40
          (Kelvin)

 Zero-point correction=                           0.000657 (Hartree/Particle)
 Thermal correction to Energy=                    0.004324
 Thermal correction to Enthalpy=                  0.005269
 Thermal correction to Gibbs Free Energy=        -0.021664
 Sum of electronic and zero-point Energies=           -100.760978
 Sum of electronic and thermal Energies=              -100.757310
 Sum of electronic and thermal Enthalpies=            -100.756366
 Sum of electronic and thermal Free Energies=         -100.783299

                     E (Thermal)             CV                S
                      KCal/Mol        Cal/Mol-Kelvin    Cal/Mol-Kelvin
 Total                    2.714              8.786             56.684
 Electronic               0.000              0.000              1.377
 Translational            0.889              2.981             35.068
 Rotational               0.592              1.987             14.743
 Vibrational              1.232              3.818              5.496
 Vibration     1          0.616              1.909              2.748
 Vibration     2          0.616              1.909              2.748

 Normal termination of Gaussian 16 at Fri Aug 22 19:05:08 2025.
