 Gaussian 16, Revision C.01,
 Gaussian 16:  ES64L-G16RevC.01  3-Jul-2019

 -----------------------------------------
 # sp b3lyp/6-311g** Force nosymm scf=(qc)
 -----------------------------------------

 -------------------
 Title Card Required
 -------------------
 Symbolic Z-matrix:
 Charge =  0 Multiplicity = 2

                          Input orientation:
 ---------------------------------------------------------------------
 Center     Atomic      Atomic             Coordinates (Angstroms)
 Number     Number       Type             X           Y           Z
 ---------------------------------------------------------------------
      1          1           0        0.000000    0.000000    0.000000
      2          1           0       -2.050000    0.000000    0.000000
      3          9           0        0.550000    0.000000    0.000000
 ---------------------------------------------------------------------

 SCF Done:  E(UB3LYP) =  -100.518645799     a.u. after    7 cycles

 Alpha  occ. eigenvalues --  -24.62660  -1.38413  -0.62320  -0.43594  -0.43594
 Alpha  occ. eigenvalues --   -0.34903
 Alpha virt. eigenvalues --    0.11119   0.24509   0.56664   0.91244   0.91244
 Alpha virt. eigenvalues --    0.91692   1.20864   1.22588   1.22588   1.54194
 Alpha virt. eigenvalues --    1.54194   1.56935   1.98976   2.19810   3.65842

  Beta  occ. eigenvalues --  -24.62638  -1.38344  -0.62247  -0.43583  -0.43583
  Beta virt. eigenvalues --   -0.09424   0.12489   0.35892   0.57778   0.91229
  Beta virt. eigenvalues --    0.91229   0.91805   1.31145   1.43191   1.43191
  Beta virt. eigenvalues --    1.54239   1.54239   1.65275   2.03009   2.45571

 Mulliken charges and spin densities:
               1          2
     1  H    0.181193   0.009507
     2  H    0.008578   0.988356
     3  F   -0.189771   0.002137
 Sum of Mulliken charges =   0.00000   1.00000

 Dipole moment (field-independent basis, Debye):
    X=             -1.4285    Y=              0.0000    Z=             -0.0000  Tot=              1.4285
 Quadrupole moment (field-independent basis, Debye-Ang):
   XX=             -6.6006   YY=             -6.4699   ZZ=             -6.4699
   XY=              0.0000   XZ=             -0.0000   YZ=              0.0000

  Exact polarizability:       5.358       0.000       2.466      -0.000       0.000       2.466
 Approx polarizability:       5.185      -0.000       2.457       0.000      -0.000       2.457

 ******    2 imaginary frequencies (negative Signs) ******

                      1                      2                      3
                      A                      A                      A
 Frequencies --  -7417.0537             -7417.0537               358.3711
 Red. masses --      1.0379                 1.0379                 1.0533
 Frc consts  --     33.6410                33.6410                 0.0797
 IR Inten    --    222.7050               222.7050                 0.0035

                      4
                      A
 Frequencies --  15777.4931
 Red. masses --      1.0583
 Frc consts  --    155.2136
 IR Inten    --    102.6186

 - Thermochemistry -
 -------------------
 Temperature   298.150 Kelvin.  Pressure   1.00000 Atm.
 Atom     1 has atomic number  1 and mass   1.00783

 Molecular mass:    21.01405 amu.
 Principal axes and moments of inertia in atomic units:
                           1         2         3
     Eigenvalues --     0.00000  23.70531  23.70531
           X            1.00000  -0.00000   0.00000
           Y            0.00000   1.00000   0.00000
           Z            0.00000   0.00000   1.00000
 This molecule is a prolate symmetric top.
 Rotational symmetry number  1.
 Rotational temperature (Kelvin)      3.65378
 Rotational constant (GHZ):          76.132374
    2 imaginary frequencies ignored.
 Zero-point vibrational energy      96513.9 (Joules/Mol)
                                   23.06738 (Kcal/Mol)
 Warning -- explicit consideration of   1 degrees of freedom as
           vibrations may cause significant error
 Vibrational temperatures:    515.62 22700.29
          (Kelvin)

 Zero-point correction=                           0.036760 (Hartree/Particle)
 Thermal correction to Energy=                    0.039473
 Thermal correction to Enthalpy=                  0.040417
 Thermal correction to Gibbs Free Energy=         0.017464
 Sum of electronic and zero-point Energies=           -100.481886
 Sum of electronic and thermal Energies=              -100.479173
 Sum of electronic and thermal Enthalpies=            -100.478229
 Sum of electronic and thermal Free Energies=         -100.501182

                     E (Thermal)             CV                S
                      KCal/Mol        Cal/Mol-Kelvin    Cal/Mol-Kelvin
 Total                   24.770              6.526             48.309
 Electronic               0.000              0.000              1.377
 Translational            0.889              2.981             35.068
 Rotational               0.592              1.987             10.735
 Vibrational             23.288              1.558              1.129
 Vibration     1          0.733              1.558              1.129

 Normal termination of Gaussian 16 at Fri Aug 22 15:39:22 2025.
