 Gaussian 16, Revision C.01,
 Gaussian 16:  ES64L-G16RevC.01  3-Jul-2019

 -----------------------------------------
 # sp b3lyp/6-311g** Force nosymm scf=(qc)
 -----------------------------------------

 -------------------
 Title Card Required
 -------------------
 Symbolic Z-matrix:
 Charge =  0 Multiplicity = 2

                          Input orientation:
 ---------------------------------------------------------------------
 Center     Atomic      Atomic             Coordinates (Angstroms)
 Number     Number       Type             X           Y           Z
 ---------------------------------------------------------------------
      1          1           0        0.000000    0.000000    0.000000
      2          1           0       -2.900000    0.000000    0.000000
      3          9           0        1.650000    0.000000    0.000000
 ---------------------------------------------------------------------

 SCF Done:  E(UB3LYP) =  -100.825996383     a.u. after   12 cycles

 Alpha  occ. eigenvalues --  -24.65233  -1.11112  -0.43855  -0.37126  -0.37126
 Alpha  occ. eigenvalues --   -0.34750
 Alpha virt. eigenvalues --   -0.15029   0.22036   0.28486   0.94456   0.94456
 Alpha virt. eigenvalues --    0.98582   1.06855   1.22792   1.22792   1.23649
 Alpha virt. eigenvalues --    1.32781   1.32781   1.74348   2.13609   2.22866

  Beta  occ. eigenvalues --  -24.64001  -1.07779  -0.40655  -0.35938  -0.35938
  Beta virt. eigenvalues --   -0.17926  -0.08342   0.23062   0.36490   0.94144
  Beta virt. eigenvalues --    0.94144   0.99532   1.07741   1.26478   1.26478
  Beta virt. eigenvalues --    1.43674   1.43851   1.43851   1.71581   2.13814

 Mulliken charges and spin densities:
               1          2
     1  H    0.303375  -0.377767
     2  H    0.008919   0.989225
     3  F   -0.312293   0.388542
 Sum of Mulliken charges =   0.00000   1.00000

 Dipole moment (field-independent basis, Debye):
    X=             -2.6355    Y=             -0.0000    Z=             -0.0000  Tot=              2.6355
 Quadrupole moment (field-independent basis, Debye-Ang):
   XX=             -9.8664   YY=             -7.3979   ZZ=             -7.3979
   XY=             -0.0000   XZ=             -0.0000   YZ=              0.0000

  Exact polarizability:      24.903      -0.000       2.137       0.000       0.000       2.137
 Approx polarizability:      38.061      -0.000       2.043       0.000      -0.000       2.043

 ******    2 imaginary frequencies (negative Signs) ******

                      1                      2                      3
                      A                      A                      A
 Frequencies --  -1833.5366              -215.4838               829.3581
 Red. masses --      1.0557                 1.0559                 1.0260
 Frc consts  --      2.0910                 0.0289                 0.4158
 IR Inten    --     72.8157                 3.0743                82.4485

                      4
                      A
 Frequencies --    829.3581
 Red. masses --      1.0260
 Frc consts  --      0.4158
 IR Inten    --     82.4485

 - Thermochemistry -
 -------------------
 Temperature   298.150 Kelvin.  Pressure   1.00000 Atm.
 Atom     1 has atomic number  1 and mass   1.00783

 Molecular mass:    21.01405 amu.
 Principal axes and moments of inertia in atomic units:
                           1         2         3
     Eigenvalues --     0.00000  77.67177  77.67177
           X            1.00000  -0.00000   0.00000
           Y            0.00000   1.00000   0.00000
           Z            0.00000   0.00000   1.00000
 This molecule is a prolate symmetric top.
 Rotational symmetry number  1.
 Rotational temperature (Kelvin)      1.11513
 Rotational constant (GHZ):          23.235486
    2 imaginary frequencies ignored.
 Zero-point vibrational energy       9921.3 (Joules/Mol)
                                    2.37125 (Kcal/Mol)
 Vibrational temperatures:   1193.26  1193.26
          (Kelvin)

 Zero-point correction=                           0.003779 (Hartree/Particle)
 Thermal correction to Energy=                    0.006280
 Thermal correction to Enthalpy=                  0.007224
 Thermal correction to Gibbs Free Energy=        -0.016489
 Sum of electronic and zero-point Energies=           -100.822218
 Sum of electronic and thermal Energies=              -100.819716
 Sum of electronic and thermal Enthalpies=            -100.818772
 Sum of electronic and thermal Free Energies=         -100.842485

                     E (Thermal)             CV                S
                      KCal/Mol        Cal/Mol-Kelvin    Cal/Mol-Kelvin
 Total                    3.941              6.175             49.908
 Electronic               0.000              0.000              1.377
 Translational            0.889              2.981             35.068
 Rotational               0.592              1.987             13.093
 Vibrational              2.460              1.207              0.369

 Normal termination of Gaussian 16 at Fri Aug 22 16:35:09 2025.
