 Gaussian 16, Revision C.01,
 Gaussian 16:  ES64L-G16RevC.01  3-Jul-2019

 -----------------------------------------
 # sp b3lyp/6-311g** Force nosymm scf=(qc)
 -----------------------------------------

 -------------------
 Title Card Required
 -------------------
 Symbolic Z-matrix:
 Charge =  0 Multiplicity = 2

                          Input orientation:
 ---------------------------------------------------------------------
 Center     Atomic      Atomic             Coordinates (Angstroms)
 Number     Number       Type             X           Y           Z
 ---------------------------------------------------------------------
      1          1           0        0.000000    0.000000    0.000000
      2          1           0       -2.200000    0.000000    0.000000
      3          9           0        0.650000    0.000000    0.000000
 ---------------------------------------------------------------------

 SCF Done:  E(UB3LYP) =  -100.800663785     a.u. after    6 cycles

 Alpha  occ. eigenvalues --  -24.62868  -1.31250  -0.59817  -0.42286  -0.42286
 Alpha  occ. eigenvalues --   -0.34857
 Alpha virt. eigenvalues --    0.09600   0.25049   0.53746   0.92948   0.92948
 Alpha virt. eigenvalues --    0.94891   1.16217   1.22678   1.22678   1.46979
 Alpha virt. eigenvalues --    1.46979   1.51916   1.95290   2.16848   3.09740

  Beta  occ. eigenvalues --  -24.62850  -1.31198  -0.59748  -0.42275  -0.42275
  Beta virt. eigenvalues --   -0.09303   0.11085   0.37009   0.53684   0.92940
  Beta virt. eigenvalues --    0.92940   0.95066   1.27358   1.43641   1.43641
  Beta virt. eigenvalues --    1.47054   1.47054   1.62370   1.97253   2.43927

 Mulliken charges and spin densities:
               1          2
     1  H    0.244314   0.006613
     2  H    0.007239   0.989362
     3  F   -0.251553   0.004025
 Sum of Mulliken charges =   0.00000   1.00000

 Dipole moment (field-independent basis, Debye):
    X=             -1.5803    Y=             -0.0000    Z=              0.0000  Tot=              1.5803
 Quadrupole moment (field-independent basis, Debye-Ang):
   XX=             -6.9091   YY=             -6.5898   ZZ=             -6.5898
   XY=             -0.0000   XZ=              0.0000   YZ=             -0.0000

  Exact polarizability:       5.726       0.000       2.483      -0.000       0.000       2.483
 Approx polarizability:       5.685       0.000       2.471      -0.000       0.000       2.471

 ******    2 imaginary frequencies (negative Signs) ******

                      1                      2                      3
                      A                      A                      A
 Frequencies --  -4540.6804             -4540.6804               240.0290
 Red. masses --      1.0365                 1.0365                 1.0533
 Frc consts  --     12.5905                12.5905                 0.0358
 IR Inten    --    200.2577               200.2577                 0.1656

                      4
                      A
 Frequencies --  10872.5486
 Red. masses --      1.0583
 Frc consts  --     73.7090
 IR Inten    --    123.9378

 - Thermochemistry -
 -------------------
 Temperature   298.150 Kelvin.  Pressure   1.00000 Atm.
 Atom     1 has atomic number  1 and mass   1.00783

 Molecular mass:    21.01405 amu.
 Principal axes and moments of inertia in atomic units:
                           1         2         3
     Eigenvalues --     0.00000  28.63909  28.63909
           X            1.00000  -0.00000   0.00000
           Y            0.00000   1.00000   0.00000
           Z            0.00000   0.00000   1.00000
 This molecule is a prolate symmetric top.
 Rotational symmetry number  1.
 Rotational temperature (Kelvin)      3.02432
 Rotational constant (GHZ):          63.016702
    2 imaginary frequencies ignored.
 Zero-point vibrational energy      66468.0 (Joules/Mol)
                                   15.88623 (Kcal/Mol)
 Warning -- explicit consideration of   1 degrees of freedom as
           vibrations may cause significant error
 Vibrational temperatures:    345.35 15643.17
          (Kelvin)

 Zero-point correction=                           0.025316 (Hartree/Particle)
 Thermal correction to Energy=                    0.028177
 Thermal correction to Enthalpy=                  0.029122
 Thermal correction to Gibbs Free Energy=         0.005670
 Sum of electronic and zero-point Energies=           -100.775347
 Sum of electronic and thermal Energies=              -100.772486
 Sum of electronic and thermal Enthalpies=            -100.771542
 Sum of electronic and thermal Free Energies=         -100.794994

                     E (Thermal)             CV                S
                      KCal/Mol        Cal/Mol-Kelvin    Cal/Mol-Kelvin
 Total                   17.682              6.747             49.358
 Electronic               0.000              0.000              1.377
 Translational            0.889              2.981             35.068
 Rotational               0.592              1.987             11.110
 Vibrational             16.200              1.779              1.803
 Vibration     1          0.657              1.779              1.803

 Normal termination of Gaussian 16 at Fri Aug 22 15:44:12 2025.
