 Gaussian 16, Revision C.01,
 Gaussian 16:  ES64L-G16RevC.01  3-Jul-2019

 -----------------------------------------
 # sp b3lyp/6-311g** Force nosymm scf=(qc)
 -----------------------------------------

 -------------------
 Title Card Required
 -------------------
 Symbolic Z-matrix:
 Charge =  0 Multiplicity = 2

                          Input orientation:
 ---------------------------------------------------------------------
 Center     Atomic      Atomic             Coordinates (Angstroms)
 Number     Number       Type             X           Y           Z
 ---------------------------------------------------------------------
      1          1           0        0.000000    0.000000    0.000000
      2          1           0       -0.750000    0.000000    0.000000
      3          9           0        3.400000    0.000000    0.000000
 ---------------------------------------------------------------------

 SCF Done:  E(UB3LYP) =  -100.934060284     a.u. after   55 cycles

 Alpha  occ. eigenvalues --  -24.76397  -1.22245  -0.55444  -0.46651  -0.46596
 Alpha  occ. eigenvalues --   -0.43117
 Alpha virt. eigenvalues --    0.05822   0.19821   0.46474   0.85976   0.90851
 Alpha virt. eigenvalues --    0.93132   1.02482   1.08560   1.08564   1.55278
 Alpha virt. eigenvalues --    1.82415   1.82419   1.97453   2.38196   3.28257

  Beta  occ. eigenvalues --  -24.73239  -1.13164  -0.43592  -0.43430  -0.43007
  Beta virt. eigenvalues --   -0.26079   0.05842   0.19834   0.46543   0.92351
  Beta virt. eigenvalues --    0.94704   0.95438   1.06459   1.08560   1.08564
  Beta virt. eigenvalues --    1.55287   1.82415   1.82419   1.97477   2.38198

 Mulliken charges and spin densities:
               1          2
     1  H   -0.002484  -0.000588
     2  H   -0.002477   0.000001
     3  F    0.004961   1.000587
 Sum of Mulliken charges =   0.00000   1.00000

 Dipole moment (field-independent basis, Debye):
    X=              0.0563    Y=             -0.0000    Z=              0.0000  Tot=              0.0563
 Quadrupole moment (field-independent basis, Debye-Ang):
   XX=             -6.1673   YY=             -6.5231   ZZ=             -6.5231
   XY=             -0.0000   XZ=              0.0000   YZ=             -0.4320

  Exact polarizability:       8.365       0.000       2.190      -0.000      -0.232       2.190
 Approx polarizability:       9.613       0.000       2.325      -0.000      -0.291       2.325

                      1                      2                      3
                      A                      A                      A
 Frequencies --     26.2250               420.5188               421.0207
 Red. masses --      1.1085                 1.0088                 1.0088
 Frc consts  --      0.0004                 0.1051                 0.1054
 IR Inten    --      0.1620                 0.0019                 0.0021

                      4
                      A
 Frequencies --   4337.4927
 Red. masses --      1.0078
 Frc consts  --     11.1715
 IR Inten    --      0.1047

 - Thermochemistry -
 -------------------
 Temperature   298.150 Kelvin.  Pressure   1.00000 Atm.
 Atom     1 has atomic number  1 and mass   1.00783

 Molecular mass:    21.01405 amu.
 Principal axes and moments of inertia in atomic units:
                           1         2         3
     Eigenvalues --     0.00000  93.74944  93.74944
           X            1.00000  -0.00000   0.00000
           Y            0.00000   1.00000   0.00000
           Z            0.00000   0.00000   1.00000
 This molecule is a prolate symmetric top.
 Rotational symmetry number  1.
 Rotational temperature (Kelvin)      0.92389
 Rotational constant (GHZ):          19.250688
 Zero-point vibrational energy      31134.4 (Joules/Mol)
                                    7.44129 (Kcal/Mol)
 Warning -- explicit consideration of   3 degrees of freedom as
           vibrations may cause significant error
 Vibrational temperatures:     37.73   605.03   605.75  6240.68
          (Kelvin)

 Zero-point correction=                           0.011858 (Hartree/Particle)
 Thermal correction to Energy=                    0.015684
 Thermal correction to Enthalpy=                  0.016628
 Thermal correction to Gibbs Free Energy=        -0.010828
 Sum of electronic and zero-point Energies=           -100.922202
 Sum of electronic and thermal Energies=              -100.918376
 Sum of electronic and thermal Enthalpies=            -100.917432
 Sum of electronic and thermal Free Energies=         -100.944889

                     E (Thermal)             CV                S
                      KCal/Mol        Cal/Mol-Kelvin    Cal/Mol-Kelvin
 Total                    9.842              9.803             57.787
 Electronic               0.000              0.000              1.377
 Translational            0.889              2.981             35.068
 Rotational               0.592              1.987             13.467
 Vibrational              8.361              4.835              7.875
 Vibration     1          0.593              1.985              6.096
 Vibration     2          0.783              1.426              0.890
 Vibration     3          0.784              1.425              0.889

 Normal termination of Gaussian 16 at Fri Aug 22 21:06:39 2025.
