 Gaussian 16, Revision C.01,
 Gaussian 16:  ES64L-G16RevC.01  3-Jul-2019

 -----------------------------------------
 # sp b3lyp/6-311g** Force nosymm scf=(qc)
 -----------------------------------------

 -------------------
 Title Card Required
 -------------------
 Symbolic Z-matrix:
 Charge =  0 Multiplicity = 2

                          Input orientation:
 ---------------------------------------------------------------------
 Center     Atomic      Atomic             Coordinates (Angstroms)
 Number     Number       Type             X           Y           Z
 ---------------------------------------------------------------------
      1          1           0        0.000000    0.000000    0.000000
      2          1           0       -3.100000    0.000000    0.000000
      3          9           0        3.200000    0.000000    0.000000
 ---------------------------------------------------------------------

 SCF Done:  E(UB3LYP) =  -100.760594330     a.u. after   25 cycles

 Alpha  occ. eigenvalues --  -24.74736  -1.20747  -0.53856  -0.45219  -0.45219
 Alpha  occ. eigenvalues --   -0.32549
 Alpha virt. eigenvalues --   -0.08319   0.24649   0.35670   0.88694   0.91882
 Alpha virt. eigenvalues --    0.91882   1.02883   1.24979   1.24979   1.25554
 Alpha virt. eigenvalues --    1.43490   1.43490   1.43616   2.15474   2.39713

  Beta  occ. eigenvalues --  -24.71664  -1.11934  -0.42143  -0.42143  -0.33321
  Beta virt. eigenvalues --   -0.25141  -0.07327   0.24494   0.37034   0.93357
  Beta virt. eigenvalues --    0.93357   0.97618   1.06775   1.24077   1.24077
  Beta virt. eigenvalues --    1.24636   1.44913   1.45055   1.45055   2.15942

 Mulliken charges and spin densities:
               1          2
     1  H    0.023162  -0.967794
     2  H    0.000900   0.994273
     3  F   -0.024062   0.973522
 Sum of Mulliken charges =  -0.00000   1.00000

 Dipole moment (field-independent basis, Debye):
    X=             -0.4090    Y=              0.0000    Z=              0.0000  Tot=              0.4090
 Quadrupole moment (field-independent basis, Debye-Ang):
   XX=             -7.8378   YY=             -7.6255   ZZ=             -7.6255
   XY=              0.0000   XZ=             -0.0000   YZ=              0.0000

  Exact polarizability:      32.020       0.000       2.026      -0.000       0.000       2.026
 Approx polarizability:      28.578       0.000       1.928      -0.000      -0.000       1.928

 ******    2 imaginary frequencies (negative Signs) ******

                      1                      2                      3
                      A                      A                      A
 Frequencies --   -370.9351              -157.2776               132.1457
 Red. masses --      1.0220                 1.0919                 1.0176
 Frc consts  --      0.0829                 0.0159                 0.0105
 IR Inten    --     22.3718                 4.6012                 0.4740

                      4
                      A
 Frequencies --    132.1457
 Red. masses --      1.0176
 Frc consts  --      0.0105
 IR Inten    --      0.4740

 - Thermochemistry -
 -------------------
 Temperature   298.150 Kelvin.  Pressure   1.00000 Atm.
 Atom     1 has atomic number  1 and mass   1.00783

 Molecular mass:    21.01405 amu.
 Principal axes and moments of inertia in atomic units:
                           1         2         3
     Eigenvalues --     0.00000 164.12072 164.12072
           X            1.00000  -0.00000   0.00000
           Y            0.00000   1.00000   0.00000
           Z            0.00000   0.00000   1.00000
 This molecule is a prolate symmetric top.
 Rotational symmetry number  1.
 Rotational temperature (Kelvin)      0.52775
 Rotational constant (GHZ):          10.996425
    2 imaginary frequencies ignored.
 Zero-point vibrational energy       1580.8 (Joules/Mol)
                                    0.37782 (Kcal/Mol)
 Warning -- explicit consideration of   2 degrees of freedom as
           vibrations may cause significant error
 Vibrational temperatures:    190.13   190.13
          (Kelvin)

 Zero-point correction=                           0.000602 (Hartree/Particle)
 Thermal correction to Energy=                    0.004312
 Thermal correction to Enthalpy=                  0.005257
 Thermal correction to Gibbs Free Energy=        -0.021757
 Sum of electronic and zero-point Energies=           -100.759992
 Sum of electronic and thermal Energies=              -100.756282
 Sum of electronic and thermal Enthalpies=            -100.755338
 Sum of electronic and thermal Free Energies=         -100.782351

                     E (Thermal)             CV                S
                      KCal/Mol        Cal/Mol-Kelvin    Cal/Mol-Kelvin
 Total                    2.706              8.810             56.854
 Electronic               0.000              0.000              1.377
 Translational            0.889              2.981             35.068
 Rotational               0.592              1.987             14.580
 Vibrational              1.225              3.842              5.829
 Vibration     1          0.612              1.921              2.915
 Vibration     2          0.612              1.921              2.915

 Normal termination of Gaussian 16 at Fri Aug 22 20:24:29 2025.
