 Gaussian 16, Revision C.01,
 Gaussian 16:  ES64L-G16RevC.01  3-Jul-2019

 -----------------------------------------
 # sp b3lyp/6-311g** Force nosymm scf=(qc)
 -----------------------------------------

 -------------------
 Title Card Required
 -------------------
 Symbolic Z-matrix:
 Charge =  0 Multiplicity = 2

                          Input orientation:
 ---------------------------------------------------------------------
 Center     Atomic      Atomic             Coordinates (Angstroms)
 Number     Number       Type             X           Y           Z
 ---------------------------------------------------------------------
      1          1           0        0.000000    0.000000    0.000000
      2          1           0       -0.500000    0.000000    0.000000
      3          9           0        2.700000    0.000000    0.000000
 ---------------------------------------------------------------------

 SCF Done:  E(UB3LYP) =  -100.862278430     a.u. after  142 cycles

 Alpha  occ. eigenvalues --  -24.76689  -1.22468  -0.55656  -0.49267  -0.46804
 Alpha  occ. eigenvalues --   -0.46646
 Alpha virt. eigenvalues --    0.10867   0.18855   0.57134   0.85824   0.90692
 Alpha virt. eigenvalues --    0.93824   1.11347   1.12290   1.12305   1.61984
 Alpha virt. eigenvalues --    1.85751   1.99826   1.99843   2.37751   3.64619

  Beta  occ. eigenvalues --  -24.73526  -1.13376  -0.49145  -0.43632  -0.43592
  Beta virt. eigenvalues --   -0.26271   0.10959   0.18919   0.57253   0.92190
  Beta virt. eigenvalues --    0.95274   0.95752   1.12293   1.12304   1.14849
  Beta virt. eigenvalues --    1.62007   1.85767   1.99825   1.99842   2.37763

 Mulliken charges and spin densities:
               1          2
     1  H   -0.012396  -0.002640
     2  H   -0.001285   0.000580
     3  F    0.013681   1.002061
 Sum of Mulliken charges =   0.00000   1.00000

 Dipole moment (field-independent basis, Debye):
    X=              0.1145    Y=              0.0000    Z=              0.0000  Tot=              0.1145
 Quadrupole moment (field-independent basis, Debye-Ang):
   XX=             -5.9388   YY=             -6.5859   ZZ=             -5.7474
   XY=             -0.0000   XZ=             -0.0000   YZ=              0.1027

  Exact polarizability:       5.940       0.000       1.829      -0.000       0.054       2.267
 Approx polarizability:       6.184      -0.000       1.913      -0.000       0.067       2.463

 ******    2 imaginary frequencies (negative Signs) ******

                      1                      2                      3
                      A                      A                      A
 Frequencies --  -4819.5642             -4818.6715               145.5044
 Red. masses --      1.0085                 1.0085                 1.1085
 Frc consts  --     13.8026                13.7975                 0.0138
 IR Inten    --      0.1315                 0.1423                 0.1910

                      4
                      A
 Frequencies --   9960.4902
 Red. masses --      1.0078
 Frc consts  --     58.9111
 IR Inten    --      0.7819

 - Thermochemistry -
 -------------------
 Temperature   298.150 Kelvin.  Pressure   1.00000 Atm.
 Atom     1 has atomic number  1 and mass   1.00783

 Molecular mass:    21.01405 amu.
 Principal axes and moments of inertia in atomic units:
                           1         2         3
     Eigenvalues --     0.00000  57.08217  57.08217
           X            1.00000  -0.00000   0.00000
           Y            0.00000   1.00000   0.00000
           Z            0.00000   0.00000   1.00000
 This molecule is a prolate symmetric top.
 Rotational symmetry number  1.
 Rotational temperature (Kelvin)      1.51736
 Rotational constant (GHZ):          31.616547
    2 imaginary frequencies ignored.
 Zero-point vibrational energy      60447.3 (Joules/Mol)
                                   14.44724 (Kcal/Mol)
 Warning -- explicit consideration of   1 degrees of freedom as
           vibrations may cause significant error
 Vibrational temperatures:    209.35 14330.92
          (Kelvin)

 Zero-point correction=                           0.023023 (Hartree/Particle)
 Thermal correction to Energy=                    0.026035
 Thermal correction to Enthalpy=                  0.026979
 Thermal correction to Gibbs Free Energy=         0.002435
 Sum of electronic and zero-point Energies=           -100.839255
 Sum of electronic and thermal Energies=              -100.836244
 Sum of electronic and thermal Enthalpies=            -100.835299
 Sum of electronic and thermal Free Energies=         -100.859843

                     E (Thermal)             CV                S
                      KCal/Mol        Cal/Mol-Kelvin    Cal/Mol-Kelvin
 Total                   16.337              6.876             51.657
 Electronic               0.000              0.000              1.377
 Translational            0.889              2.981             35.068
 Rotational               0.592              1.987             12.481
 Vibrational             14.856              1.908              2.730
 Vibration     1          0.617              1.908              2.730

 Normal termination of Gaussian 16 at Fri Aug 22 18:16:46 2025.
