 Gaussian 16, Revision C.01,
 Gaussian 16:  ES64L-G16RevC.01  3-Jul-2019

 -----------------------------------------
 # sp b3lyp/6-311g** Force nosymm scf=(qc)
 -----------------------------------------

 -------------------
 Title Card Required
 -------------------
 Symbolic Z-matrix:
 Charge =  0 Multiplicity = 2

                          Input orientation:
 ---------------------------------------------------------------------
 Center     Atomic      Atomic             Coordinates (Angstroms)
 Number     Number       Type             X           Y           Z
 ---------------------------------------------------------------------
      1          1           0        0.000000    0.000000    0.000000
      2          1           0       -3.250000    0.000000    0.000000
      3          9           0        2.350000    0.000000    0.000000
 ---------------------------------------------------------------------

 SCF Done:  E(UB3LYP) =  -100.771592790     a.u. after   15 cycles

 Alpha  occ. eigenvalues --  -24.70807  -1.17072  -0.49892  -0.41930  -0.41930
 Alpha  occ. eigenvalues --   -0.33193
 Alpha virt. eigenvalues --   -0.11333   0.23454   0.34397   0.89124   0.94077
 Alpha virt. eigenvalues --    0.94077   1.06375   1.24330   1.24330   1.24730
 Alpha virt. eigenvalues --    1.39078   1.39078   1.47201   2.14638   2.34242

  Beta  occ. eigenvalues --  -24.68057  -1.09276  -0.39196  -0.39196  -0.36016
  Beta virt. eigenvalues --   -0.22714  -0.07330   0.24024   0.37451   0.93936
  Beta virt. eigenvalues --    0.95343   0.95343   1.08476   1.21721   1.21721
  Beta virt. eigenvalues --    1.34908   1.45174   1.45322   1.45322   2.12649

 Mulliken charges and spin densities:
               1          2
     1  H    0.112503  -0.863374
     2  H    0.002027   0.995995
     3  F   -0.114530   0.867379
 Sum of Mulliken charges =   0.00000   1.00000

 Dipole moment (field-independent basis, Debye):
    X=             -1.3918    Y=              0.0000    Z=             -0.0000  Tot=              1.3918
 Quadrupole moment (field-independent basis, Debye-Ang):
   XX=             -9.4986   YY=             -7.5565   ZZ=             -7.5565
   XY=              0.0000   XZ=             -0.0000   YZ=              0.0000

  Exact polarizability:      30.958       0.000       2.029      -0.000      -0.000       2.029
 Approx polarizability:      39.931       0.000       1.922      -0.000      -0.000       1.922

 ******    2 imaginary frequencies (negative Signs) ******

                      1                      2                      3
                      A                      A                      A
 Frequencies --   -736.3260              -161.8220               297.2529
 Red. masses --      1.0530                 1.0586                 1.0223
 Frc consts  --      0.3364                 0.0163                 0.0532
 IR Inten    --     91.8289                 0.8224                11.8397

                      4
                      A
 Frequencies --    297.2529
 Red. masses --      1.0223
 Frc consts  --      0.0532
 IR Inten    --     11.8397

 - Thermochemistry -
 -------------------
 Temperature   298.150 Kelvin.  Pressure   1.00000 Atm.
 Atom     1 has atomic number  1 and mass   1.00783

 Molecular mass:    21.01405 amu.
 Principal axes and moments of inertia in atomic units:
                           1         2         3
     Eigenvalues --     0.00000 121.83124 121.83124
           X            1.00000  -0.00000   0.00000
           Y            0.00000   1.00000   0.00000
           Z            0.00000   0.00000   1.00000
 This molecule is a prolate symmetric top.
 Rotational symmetry number  1.
 Rotational temperature (Kelvin)      0.71093
 Rotational constant (GHZ):          14.813451
    2 imaginary frequencies ignored.
 Zero-point vibrational energy       3555.9 (Joules/Mol)
                                    0.84989 (Kcal/Mol)
 Warning -- explicit consideration of   2 degrees of freedom as
           vibrations may cause significant error
 Vibrational temperatures:    427.68   427.68
          (Kelvin)

 Zero-point correction=                           0.001354 (Hartree/Particle)
 Thermal correction to Energy=                    0.004562
 Thermal correction to Enthalpy=                  0.005506
 Thermal correction to Gibbs Free Energy=        -0.019817
 Sum of electronic and zero-point Energies=           -100.770238
 Sum of electronic and thermal Energies=              -100.767031
 Sum of electronic and thermal Enthalpies=            -100.766087
 Sum of electronic and thermal Free Energies=         -100.791410

                     E (Thermal)             CV                S
                      KCal/Mol        Cal/Mol-Kelvin    Cal/Mol-Kelvin
 Total                    2.863              8.326             53.298
 Electronic               0.000              0.000              1.377
 Translational            0.889              2.981             35.068
 Rotational               0.592              1.987             13.987
 Vibrational              1.382              3.358              2.865
 Vibration     1          0.691              1.679              1.432
 Vibration     2          0.691              1.679              1.432

 Normal termination of Gaussian 16 at Fri Aug 22 17:27:31 2025.
