 Gaussian 16, Revision C.01,
 Gaussian 16:  ES64L-G16RevC.01  3-Jul-2019

 -----------------------------------------
 # sp b3lyp/6-311g** Force nosymm scf=(qc)
 -----------------------------------------

 -------------------
 Title Card Required
 -------------------
 Symbolic Z-matrix:
 Charge =  0 Multiplicity = 2

                          Input orientation:
 ---------------------------------------------------------------------
 Center     Atomic      Atomic             Coordinates (Angstroms)
 Number     Number       Type             X           Y           Z
 ---------------------------------------------------------------------
      1          1           0        0.000000    0.000000    0.000000
      2          1           0       -1.550000    0.000000    0.000000
      3          9           0        2.600000    0.000000    0.000000
 ---------------------------------------------------------------------

 SCF Done:  E(UB3LYP) =  -100.815966502     a.u. after   19 cycles

 Alpha  occ. eigenvalues --  -24.73657  -1.19751  -0.52817  -0.44330  -0.44330
 Alpha  occ. eigenvalues --   -0.35429
 Alpha virt. eigenvalues --   -0.11092   0.24037   0.30786   0.89610   0.92459
 Alpha virt. eigenvalues --    0.92459   1.03697   1.11175   1.19438   1.19438
 Alpha virt. eigenvalues --    1.38735   1.38735   1.76435   2.18871   2.45135

  Beta  occ. eigenvalues --  -24.70686  -1.11255  -0.41360  -0.41360  -0.35025
  Beta virt. eigenvalues --   -0.24941  -0.10498   0.25117   0.30807   0.93884
  Beta virt. eigenvalues --    0.93884   0.96780   1.05899   1.14678   1.19957
  Beta virt. eigenvalues --    1.19957   1.39176   1.39176   1.77052   2.19847

 Mulliken charges and spin densities:
               1          2
     1  H    0.016057  -0.383750
     2  H    0.034227   0.443861
     3  F   -0.050284   0.939889
 Sum of Mulliken charges =  -0.00000   1.00000

 Dipole moment (field-independent basis, Debye):
    X=             -0.9169    Y=             -0.0000    Z=             -0.0000  Tot=              0.9169
 Quadrupole moment (field-independent basis, Debye-Ang):
   XX=             -6.8744   YY=             -7.6943   ZZ=             -7.6943
   XY=             -0.0000   XZ=             -0.0000   YZ=             -0.0000

  Exact polarizability:      59.813      -0.000       2.041      -0.000       0.000       2.041
 Approx polarizability:      79.905      -0.000       2.013      -0.000       0.000       2.013

 ******    2 imaginary frequencies (negative Signs) ******

                      1                      2                      3
                      A                      A                      A
 Frequencies --  -2076.6287              -292.1857              1083.9258
 Red. masses --      1.0082                 1.1080                 1.0129
 Frc consts  --      2.5617                 0.0557                 0.7012
 IR Inten    --    460.3761                33.8634                 0.0014

                      4
                      A
 Frequencies --   1083.9258
 Red. masses --      1.0129
 Frc consts  --      0.7012
 IR Inten    --      0.0014

 - Thermochemistry -
 -------------------
 Temperature   298.150 Kelvin.  Pressure   1.00000 Atm.
 Atom     1 has atomic number  1 and mass   1.00783

 Molecular mass:    21.01405 amu.
 Principal axes and moments of inertia in atomic units:
                           1         2         3
     Eigenvalues --     0.00000  78.44882  78.44882
           X            1.00000  -0.00000   0.00000
           Y            0.00000   1.00000   0.00000
           Z            0.00000   0.00000   1.00000
 This molecule is a prolate symmetric top.
 Rotational symmetry number  1.
 Rotational temperature (Kelvin)      1.10408
 Rotational constant (GHZ):          23.005333
    2 imaginary frequencies ignored.
 Zero-point vibrational energy      12966.6 (Joules/Mol)
                                    3.09910 (Kcal/Mol)
 Vibrational temperatures:   1559.53  1559.53
          (Kelvin)

 Zero-point correction=                           0.004939 (Hartree/Particle)
 Thermal correction to Energy=                    0.007352
 Thermal correction to Enthalpy=                  0.008297
 Thermal correction to Gibbs Free Energy=        -0.015313
 Sum of electronic and zero-point Energies=           -100.811028
 Sum of electronic and thermal Energies=              -100.808614
 Sum of electronic and thermal Enthalpies=            -100.807670
 Sum of electronic and thermal Free Energies=         -100.831280

                     E (Thermal)             CV                S
                      KCal/Mol        Cal/Mol-Kelvin    Cal/Mol-Kelvin
 Total                    4.614              5.556             49.691
 Electronic               0.000              0.000              1.377
 Translational            0.889              2.981             35.068
 Rotational               0.592              1.987             13.113
 Vibrational              3.132              0.588              0.133

 Normal termination of Gaussian 16 at Fri Aug 22 18:03:13 2025.
