 Gaussian 16, Revision C.01,
 Gaussian 16:  ES64L-G16RevC.01  3-Jul-2019

 -----------------------------------------
 # sp b3lyp/6-311g** Force nosymm scf=(qc)
 -----------------------------------------

 -------------------
 Title Card Required
 -------------------
 Symbolic Z-matrix:
 Charge =  0 Multiplicity = 2

                          Input orientation:
 ---------------------------------------------------------------------
 Center     Atomic      Atomic             Coordinates (Angstroms)
 Number     Number       Type             X           Y           Z
 ---------------------------------------------------------------------
      1          1           0        0.000000    0.000000    0.000000
      2          1           0       -2.950000    0.000000    0.000000
      3          9           0        1.400000    0.000000    0.000000
 ---------------------------------------------------------------------

 SCF Done:  E(UB3LYP) =  -100.877645755     a.u. after    7 cycles

 Alpha  occ. eigenvalues --  -24.64277  -1.10226  -0.44535  -0.36632  -0.36632
 Alpha  occ. eigenvalues --   -0.34657
 Alpha virt. eigenvalues --   -0.11632   0.21882   0.27613   0.93200   0.93200
 Alpha virt. eigenvalues --    1.03191   1.15857   1.22864   1.22864   1.23533
 Alpha virt. eigenvalues --    1.32757   1.32757   1.72210   2.13757   2.21727

  Beta  occ. eigenvalues --  -24.64235  -1.10115  -0.44407  -0.36592  -0.36592
  Beta virt. eigenvalues --   -0.12935  -0.06741   0.24890   0.37284   0.93188
  Beta virt. eigenvalues --    0.93188   1.03304   1.16057   1.32607   1.32607
  Beta virt. eigenvalues --    1.44652   1.44946   1.44946   1.72313   2.21500

 Mulliken charges and spin densities:
               1          2
     1  H    0.352505  -0.006753
     2  H    0.005960   0.993383
     3  F   -0.358464   0.013370
 Sum of Mulliken charges =  -0.00000   1.00000

 Dipole moment (field-independent basis, Debye):
    X=             -2.5809    Y=              0.0000    Z=             -0.0000  Tot=              2.5809
 Quadrupole moment (field-independent basis, Debye-Ang):
   XX=             -9.3504   YY=             -7.2653   ZZ=             -7.2653
   XY=              0.0000   XZ=             -0.0000   YZ=             -0.0000

  Exact polarizability:      15.355      -0.000       2.239       0.000       0.000       2.239
 Approx polarizability:      24.387       0.000       2.175      -0.000      -0.000       2.175

 ******    2 imaginary frequencies (negative Signs) ******

                      1                      2                      3
                      A                      A                      A
 Frequencies --  -1042.4894              -135.7107              1080.9848
 Red. masses --      1.0548                 1.0567                 1.0289
 Frc consts  --      0.6754                 0.0115                 0.7084
 IR Inten    --     76.2307                 0.7832               119.9230

                      4
                      A
 Frequencies --   1080.9848
 Red. masses --      1.0289
 Frc consts  --      0.7084
 IR Inten    --    119.9230

 - Thermochemistry -
 -------------------
 Temperature   298.150 Kelvin.  Pressure   1.00000 Atm.
 Atom     1 has atomic number  1 and mass   1.00783

 Molecular mass:    21.01405 amu.
 Principal axes and moments of inertia in atomic units:
                           1         2         3
     Eigenvalues --     0.00000  69.44948  69.44948
           X            1.00000  -0.00000   0.00000
           Y            0.00000   1.00000   0.00000
           Z            0.00000   0.00000   1.00000
 This molecule is a prolate symmetric top.
 Rotational symmetry number  1.
 Rotational temperature (Kelvin)      1.24715
 Rotational constant (GHZ):          25.986389
    2 imaginary frequencies ignored.
 Zero-point vibrational energy      12931.5 (Joules/Mol)
                                    3.09069 (Kcal/Mol)
 Vibrational temperatures:   1555.30  1555.30
          (Kelvin)

 Zero-point correction=                           0.004925 (Hartree/Particle)
 Thermal correction to Energy=                    0.007340
 Thermal correction to Enthalpy=                  0.008284
 Thermal correction to Gibbs Free Energy=        -0.015212
 Sum of electronic and zero-point Energies=           -100.872720
 Sum of electronic and thermal Energies=              -100.870306
 Sum of electronic and thermal Enthalpies=            -100.869362
 Sum of electronic and thermal Free Energies=         -100.892858

                     E (Thermal)             CV                S
                      KCal/Mol        Cal/Mol-Kelvin    Cal/Mol-Kelvin
 Total                    4.606              5.561             49.451
 Electronic               0.000              0.000              1.377
 Translational            0.889              2.981             35.068
 Rotational               0.592              1.987             12.871
 Vibrational              3.124              0.593              0.135

 Normal termination of Gaussian 16 at Fri Aug 22 16:20:50 2025.
