 Gaussian 16, Revision C.01,
 Gaussian 16:  ES64L-G16RevC.01  3-Jul-2019

 -----------------------------------------
 # sp b3lyp/6-311g** Force nosymm scf=(qc)
 -----------------------------------------

 -------------------
 Title Card Required
 -------------------
 Symbolic Z-matrix:
 Charge =  0 Multiplicity = 2

                          Input orientation:
 ---------------------------------------------------------------------
 Center     Atomic      Atomic             Coordinates (Angstroms)
 Number     Number       Type             X           Y           Z
 ---------------------------------------------------------------------
      1          1           0        0.000000    0.000000    0.000000
      2          1           0       -1.750000    0.000000    0.000000
      3          9           0        3.850000    0.000000    0.000000
 ---------------------------------------------------------------------

 SCF Done:  E(UB3LYP) =  -100.790126071     a.u. after  105 cycles

 Alpha  occ. eigenvalues --  -24.76193  -1.22095  -0.55299  -0.46471  -0.46456
 Alpha  occ. eigenvalues --   -0.32986
 Alpha virt. eigenvalues --   -0.10632   0.25860   0.31266   0.86066   0.90943
 Alpha virt. eigenvalues --    0.91390   1.00931   1.08733   1.24351   1.24352
 Alpha virt. eigenvalues --    1.37973   1.37976   1.64479   2.15896   2.40396

  Beta  occ. eigenvalues --  -24.73039  -1.13023  -0.43312  -0.43293  -0.32974
  Beta virt. eigenvalues --   -0.25950  -0.10668   0.25846   0.31296   0.92445
  Beta virt. eigenvalues --    0.92855   0.95533   1.05066   1.08725   1.24350
  Beta virt. eigenvalues --    1.24353   1.37960   1.37960   1.64490   2.16041

 Mulliken charges and spin densities:
               1          2
     1  H    0.000740  -0.671314
     2  H   -0.001657   0.671318
     3  F    0.000917   0.999996
 Sum of Mulliken charges =   0.00000   1.00000

 Dipole moment (field-independent basis, Debye):
    X=              0.0243    Y=              0.0000    Z=              0.0000  Tot=              0.0243
 Quadrupole moment (field-independent basis, Debye-Ang):
   XX=             -6.6773   YY=             -7.3321   ZZ=             -7.3323
   XY=             -0.0000   XZ=              0.0000   YZ=             -0.4323

  Exact polarizability:      23.718      -0.000       2.249       0.000      -0.233       2.249
 Approx polarizability:      35.706      -0.000       2.261       0.000      -0.291       2.261

 ******    2 imaginary frequencies (negative Signs) ******

                      1                      2                      3
                      A                      A                      A
 Frequencies --  -1818.9384               -48.2016               839.6105
 Red. masses --      1.0078                 1.1085                 1.0112
 Frc consts  --      1.9646                 0.0015                 0.4200
 IR Inten    --      0.0082                 0.0469                 0.0014

                      4
                      A
 Frequencies --    839.6608
 Red. masses --      1.0112
 Frc consts  --      0.4200
 IR Inten    --      0.0012

 - Thermochemistry -
 -------------------
 Temperature   298.150 Kelvin.  Pressure   1.00000 Atm.
 Atom     1 has atomic number  1 and mass   1.00783

 Molecular mass:    21.01405 amu.
 Principal axes and moments of inertia in atomic units:
                           1         2         3
     Eigenvalues --     0.00000 150.79698 150.79698
           X            1.00000  -0.00000   0.00000
           Y            0.00000   1.00000   0.00000
           Z            0.00000   0.00000   1.00000
 This molecule is a prolate symmetric top.
 Rotational symmetry number  1.
 Rotational temperature (Kelvin)      0.57437
 Rotational constant (GHZ):          11.968019
    2 imaginary frequencies ignored.
 Zero-point vibrational energy      10044.3 (Joules/Mol)
                                    2.40064 (Kcal/Mol)
 Vibrational temperatures:   1208.01  1208.08
          (Kelvin)

 Zero-point correction=                           0.003826 (Hartree/Particle)
 Thermal correction to Energy=                    0.006322
 Thermal correction to Enthalpy=                  0.007266
 Thermal correction to Gibbs Free Energy=        -0.017067
 Sum of electronic and zero-point Energies=           -100.786300
 Sum of electronic and thermal Energies=              -100.783805
 Sum of electronic and thermal Enthalpies=            -100.782860
 Sum of electronic and thermal Free Energies=         -100.807193

                     E (Thermal)             CV                S
                      KCal/Mol        Cal/Mol-Kelvin    Cal/Mol-Kelvin
 Total                    3.967              6.143             51.212
 Electronic               0.000              0.000              1.377
 Translational            0.889              2.981             35.068
 Rotational               0.592              1.987             14.411
 Vibrational              2.486              1.175              0.355

 Normal termination of Gaussian 16 at Sat Aug 23 01:04:06 2025.
