 Gaussian 16, Revision C.01,
 Gaussian 16:  ES64L-G16RevC.01  3-Jul-2019

 -----------------------------------------
 # sp b3lyp/6-311g** Force nosymm scf=(qc)
 -----------------------------------------

 -------------------
 Title Card Required
 -------------------
 Symbolic Z-matrix:
 Charge =  0 Multiplicity = 2

                          Input orientation:
 ---------------------------------------------------------------------
 Center     Atomic      Atomic             Coordinates (Angstroms)
 Number     Number       Type             X           Y           Z
 ---------------------------------------------------------------------
      1          1           0        0.000000    0.000000    0.000000
      2          1           0       -1.900000    0.000000    0.000000
      3          9           0        0.700000    0.000000    0.000000
 ---------------------------------------------------------------------

 SCF Done:  E(UB3LYP) =  -100.874056501     a.u. after    6 cycles

 Alpha  occ. eigenvalues --  -24.63072  -1.28151  -0.58716  -0.41652  -0.41652
 Alpha  occ. eigenvalues --   -0.35502
 Alpha virt. eigenvalues --    0.10712   0.23843   0.49726   0.93562   0.93562
 Alpha virt. eigenvalues --    0.96189   1.19175   1.21690   1.21690   1.44443
 Alpha virt. eigenvalues --    1.44443   1.56082   1.99187   2.17341   2.88991

  Beta  occ. eigenvalues --  -24.63027  -1.28026  -0.58496  -0.41621  -0.41621
  Beta virt. eigenvalues --   -0.10859   0.12228   0.34183   0.51069   0.93568
  Beta virt. eigenvalues --    0.93568   0.96342   1.28344   1.40046   1.40046
  Beta virt. eigenvalues --    1.45893   1.45893   1.64167   2.02496   2.40386

 Mulliken charges and spin densities:
               1          2
     1  H    0.246242   0.010714
     2  H    0.011301   0.981386
     3  F   -0.257542   0.007900
 Sum of Mulliken charges =   0.00000   1.00000

 Dipole moment (field-independent basis, Debye):
    X=             -1.6798    Y=             -0.0000    Z=             -0.0000  Tot=              1.6798
 Quadrupole moment (field-independent basis, Debye-Ang):
   XX=             -7.0131   YY=             -6.6211   ZZ=             -6.6211
   XY=             -0.0000   XZ=             -0.0000   YZ=             -0.0000

  Exact polarizability:       6.708       0.000       2.505       0.000       0.000       2.505
 Approx polarizability:       6.612       0.000       2.500       0.000       0.000       2.500

 ******    2 imaginary frequencies (negative Signs) ******

                      1                      2                      3
                      A                      A                      A
 Frequencies --  -3495.1237             -3495.1237               405.8580
 Red. masses --      1.0330                 1.0330                 1.0533
 Frc consts  --      7.4349                 7.4349                 0.1022
 IR Inten    --    174.8150               174.8150                 0.0287

                      4
                      A
 Frequencies --   9067.5649
 Red. masses --      1.0583
 Frc consts  --     51.2654
 IR Inten    --    144.4196

 - Thermochemistry -
 -------------------
 Temperature   298.150 Kelvin.  Pressure   1.00000 Atm.
 Atom     1 has atomic number  1 and mass   1.00783

 Molecular mass:    21.01405 amu.
 Principal axes and moments of inertia in atomic units:
                           1         2         3
     Eigenvalues --     0.00000  24.21312  24.21312
           X            1.00000  -0.00000   0.00000
           Y            0.00000   1.00000   0.00000
           Z            0.00000   0.00000   1.00000
 This molecule is a prolate symmetric top.
 Rotational symmetry number  1.
 Rotational temperature (Kelvin)      3.57715
 Rotational constant (GHZ):          74.535665
    2 imaginary frequencies ignored.
 Zero-point vibrational energy      56663.7 (Joules/Mol)
                                   13.54294 (Kcal/Mol)
 Warning -- explicit consideration of   1 degrees of freedom as
           vibrations may cause significant error
 Vibrational temperatures:    583.94 13046.20
          (Kelvin)

 Zero-point correction=                           0.021582 (Hartree/Particle)
 Thermal correction to Energy=                    0.024246
 Thermal correction to Enthalpy=                  0.025190
 Thermal correction to Gibbs Free Energy=         0.002306
 Sum of electronic and zero-point Energies=           -100.852474
 Sum of electronic and thermal Energies=              -100.849810
 Sum of electronic and thermal Enthalpies=            -100.848866
 Sum of electronic and thermal Free Energies=         -100.871750

                     E (Thermal)             CV                S
                      KCal/Mol        Cal/Mol-Kelvin    Cal/Mol-Kelvin
 Total                   15.215              6.425             48.163
 Electronic               0.000              0.000              1.377
 Translational            0.889              2.981             35.068
 Rotational               0.592              1.987             10.777
 Vibrational             13.734              1.457              0.941
 Vibration     1          0.771              1.457              0.941

 Normal termination of Gaussian 16 at Fri Aug 22 15:46:21 2025.
