 Gaussian 16, Revision C.01,
 Gaussian 16:  ES64L-G16RevC.01  3-Jul-2019

 -----------------------------------------
 # sp b3lyp/6-311g** Force nosymm scf=(qc)
 -----------------------------------------

 -------------------
 Title Card Required
 -------------------
 Symbolic Z-matrix:
 Charge =  0 Multiplicity = 2

                          Input orientation:
 ---------------------------------------------------------------------
 Center     Atomic      Atomic             Coordinates (Angstroms)
 Number     Number       Type             X           Y           Z
 ---------------------------------------------------------------------
      1          1           0        0.000000    0.000000    0.000000
      2          1           0       -1.600000    0.000000    0.000000
      3          9           0        3.000000    0.000000    0.000000
 ---------------------------------------------------------------------

 SCF Done:  E(UB3LYP) =  -100.807048232     a.u. after   31 cycles

 Alpha  occ. eigenvalues --  -24.75020  -1.21013  -0.54151  -0.45472  -0.45472
 Alpha  occ. eigenvalues --   -0.34311
 Alpha virt. eigenvalues --   -0.11040   0.24772   0.30125   0.89507   0.91665
 Alpha virt. eigenvalues --    0.91665   1.03870   1.05973   1.21335   1.21335
 Alpha virt. eigenvalues --    1.38517   1.38517   1.73866   2.18488   2.44218

  Beta  occ. eigenvalues --  -24.71947  -1.12193  -0.42394  -0.42394  -0.34127
  Beta virt. eigenvalues --   -0.25501  -0.10763   0.25226   0.30373   0.93136
  Beta virt. eigenvalues --    0.93136   0.98192   1.05851   1.08327   1.21542
  Beta virt. eigenvalues --    1.21542   1.38742   1.38742   1.74240   2.19265

 Mulliken charges and spin densities:
               1          2
     1  H    0.002458  -0.458331
     2  H    0.019181   0.484535
     3  F   -0.021639   0.973796
 Sum of Mulliken charges =   0.00000   1.00000

 Dipole moment (field-independent basis, Debye):
    X=             -0.4767    Y=             -0.0000    Z=              0.0000  Tot=              0.4767
 Quadrupole moment (field-independent basis, Debye-Ang):
   XX=             -6.3938   YY=             -7.7442   ZZ=             -7.7442
   XY=             -0.0000   XZ=              0.0000   YZ=              0.0000

  Exact polarizability:      55.439      -0.000       2.038       0.000       0.000       2.038
 Approx polarizability:      67.174      -0.000       1.999       0.000      -0.000       1.999

 ******    2 imaginary frequencies (negative Signs) ******

                      1                      2                      3
                      A                      A                      A
 Frequencies --  -2060.5619              -201.3674              1034.9126
 Red. masses --      1.0079                 1.1084                 1.0121
 Frc consts  --      2.5214                 0.0265                 0.6387
 IR Inten    --    166.2026                20.1021                 0.0132

                      4
                      A
 Frequencies --   1034.9126
 Red. masses --      1.0121
 Frc consts  --      0.6387
 IR Inten    --      0.0132

 - Thermochemistry -
 -------------------
 Temperature   298.150 Kelvin.  Pressure   1.00000 Atm.
 Atom     1 has atomic number  1 and mass   1.00783

 Molecular mass:    21.01405 amu.
 Principal axes and moments of inertia in atomic units:
                           1         2         3
     Eigenvalues --     0.00000  98.57632  98.57632
           X            1.00000  -0.00000   0.00000
           Y            0.00000   1.00000   0.00000
           Z            0.00000   0.00000   1.00000
 This molecule is a prolate symmetric top.
 Rotational symmetry number  1.
 Rotational temperature (Kelvin)      0.87865
 Rotational constant (GHZ):          18.308060
    2 imaginary frequencies ignored.
 Zero-point vibrational energy      12380.3 (Joules/Mol)
                                    2.95896 (Kcal/Mol)
 Vibrational temperatures:   1489.01  1489.01
          (Kelvin)

 Zero-point correction=                           0.004715 (Hartree/Particle)
 Thermal correction to Energy=                    0.007140
 Thermal correction to Enthalpy=                  0.008084
 Thermal correction to Gibbs Free Energy=        -0.015755
 Sum of electronic and zero-point Energies=           -100.802333
 Sum of electronic and thermal Energies=              -100.799908
 Sum of electronic and thermal Enthalpies=            -100.798964
 Sum of electronic and thermal Free Energies=         -100.822803

                     E (Thermal)             CV                S
                      KCal/Mol        Cal/Mol-Kelvin    Cal/Mol-Kelvin
 Total                    4.481              5.649             50.174
 Electronic               0.000              0.000              1.377
 Translational            0.889              2.981             35.068
 Rotational               0.592              1.987             13.567
 Vibrational              2.999              0.681              0.162

 Normal termination of Gaussian 16 at Fri Aug 22 19:30:51 2025.
