 Gaussian 16, Revision C.01,
 Gaussian 16:  ES64L-G16RevC.01  3-Jul-2019

 -----------------------------------------
 # sp b3lyp/6-311g** Force nosymm scf=(qc)
 -----------------------------------------

 -------------------
 Title Card Required
 -------------------
 Symbolic Z-matrix:
 Charge =  0 Multiplicity = 2

                          Input orientation:
 ---------------------------------------------------------------------
 Center     Atomic      Atomic             Coordinates (Angstroms)
 Number     Number       Type             X           Y           Z
 ---------------------------------------------------------------------
      1          1           0        0.000000    0.000000    0.000000
      2          1           0       -2.300000    0.000000    0.000000
      3          9           0        3.950000    0.000000    0.000000
 ---------------------------------------------------------------------

 SCF Done:  E(UB3LYP) =  -100.765386279     a.u. after   59 cycles

 Alpha  occ. eigenvalues --  -24.75908  -1.21835  -0.55034  -0.46210  -0.46210
 Alpha  occ. eigenvalues --   -0.32653
 Alpha virt. eigenvalues --   -0.09868   0.25966   0.34088   0.86595   0.91145
 Alpha virt. eigenvalues --    0.91145   1.01076   1.25114   1.25114   1.25405
 Alpha virt. eigenvalues --    1.40399   1.40399   1.44267   2.14942   2.35564

  Beta  occ. eigenvalues --  -24.72763  -1.12790  -0.43057  -0.43057  -0.32754
  Beta virt. eigenvalues --   -0.25763  -0.09695   0.25823   0.34327   0.92643
  Beta virt. eigenvalues --    0.92643   0.95975   1.05206   1.25003   1.25003
  Beta virt. eigenvalues --    1.25303   1.40637   1.40637   1.44475   2.15072

 Mulliken charges and spin densities:
               1          2
     1  H    0.000896  -0.941783
     2  H    0.001472   0.944527
     3  F   -0.002367   0.997256
 Sum of Mulliken charges =   0.00000   1.00000

 Dipole moment (field-independent basis, Debye):
    X=             -0.0640    Y=             -0.0000    Z=              0.0000  Tot=              0.0640
 Quadrupole moment (field-independent basis, Debye-Ang):
   XX=             -6.5745   YY=             -7.6879   ZZ=             -7.6879
   XY=             -0.0000   XZ=              0.0001   YZ=              0.0000

  Exact polarizability:      23.838      -0.000       2.017       0.000      -0.000       2.017
 Approx polarizability:      19.314      -0.000       1.931       0.000      -0.000       1.931

 ******    2 imaginary frequencies (negative Signs) ******

                      1                      2                      3
                      A                      A                      A
 Frequencies --   -881.2306               -75.5486               336.9675
 Red. masses --      1.0078                 1.1085                 1.0127
 Frc consts  --      0.4611                 0.0037                 0.0678
 IR Inten    --      0.6632                 0.7838                 0.0001

                      4
                      A
 Frequencies --    336.9675
 Red. masses --      1.0127
 Frc consts  --      0.0678
 IR Inten    --      0.0001

 - Thermochemistry -
 -------------------
 Temperature   298.150 Kelvin.  Pressure   1.00000 Atm.
 Atom     1 has atomic number  1 and mass   1.00783

 Molecular mass:    21.01405 amu.
 Principal axes and moments of inertia in atomic units:
                           1         2         3
     Eigenvalues --     0.00000 178.78178 178.78178
           X            1.00000  -0.00000   0.00000
           Y            0.00000   1.00000   0.00000
           Z            0.00000   0.00000   1.00000
 This molecule is a prolate symmetric top.
 Rotational symmetry number  1.
 Rotational temperature (Kelvin)      0.48447
 Rotational constant (GHZ):          10.094660
    2 imaginary frequencies ignored.
 Zero-point vibrational energy       4031.0 (Joules/Mol)
                                    0.96344 (Kcal/Mol)
 Warning -- explicit consideration of   2 degrees of freedom as
           vibrations may cause significant error
 Vibrational temperatures:    484.82   484.82
          (Kelvin)

 Zero-point correction=                           0.001535 (Hartree/Particle)
 Thermal correction to Energy=                    0.004648
 Thermal correction to Enthalpy=                  0.005592
 Thermal correction to Gibbs Free Energy=        -0.019898
 Sum of electronic and zero-point Energies=           -100.763851
 Sum of electronic and thermal Energies=              -100.760739
 Sum of electronic and thermal Enthalpies=            -100.759794
 Sum of electronic and thermal Free Energies=         -100.785284

                     E (Thermal)             CV                S
                      KCal/Mol        Cal/Mol-Kelvin    Cal/Mol-Kelvin
 Total                    2.916              8.171             53.648
 Electronic               0.000              0.000              1.377
 Translational            0.889              2.981             35.068
 Rotational               0.592              1.987             14.750
 Vibrational              1.435              3.203              2.453
 Vibration     1          0.718              1.602              1.226
 Vibration     2          0.718              1.602              1.226

 Normal termination of Gaussian 16 at Sat Aug 23 01:38:59 2025.
