 Gaussian 16, Revision C.01,
 Gaussian 16:  ES64L-G16RevC.01  3-Jul-2019

 -----------------------------------------
 # sp b3lyp/6-311g** Force nosymm scf=(qc)
 -----------------------------------------

 -------------------
 Title Card Required
 -------------------
 Symbolic Z-matrix:
 Charge =  0 Multiplicity = 2

                          Input orientation:
 ---------------------------------------------------------------------
 Center     Atomic      Atomic             Coordinates (Angstroms)
 Number     Number       Type             X           Y           Z
 ---------------------------------------------------------------------
      1          1           0        0.000000    0.000000    0.000000
      2          1           0       -1.550000    0.000000    0.000000
      3          9           0        3.650000    0.000000    0.000000
 ---------------------------------------------------------------------

 SCF Done:  E(UB3LYP) =  -100.812738100     a.u. after  346 cycles

 Alpha  occ. eigenvalues --  -24.76307  -1.22196  -0.55397  -0.46581  -0.46553
 Alpha  occ. eigenvalues --   -0.33410
 Alpha virt. eigenvalues --   -0.10044   0.25199   0.30446   0.85984   0.90860
 Alpha virt. eigenvalues --    0.91677   1.01053   1.06903   1.21451   1.21453
 Alpha virt. eigenvalues --    1.40398   1.40401   1.78170   2.20816   2.45155

  Beta  occ. eigenvalues --  -24.73152  -1.13122  -0.43421  -0.43389  -0.33406
  Beta virt. eigenvalues --   -0.26044  -0.10062   0.25186   0.30497   0.92361
  Beta virt. eigenvalues --    0.93146   0.95450   1.05159   1.06913   1.21445
  Beta virt. eigenvalues --    1.21448   1.40393   1.40395   1.78199   2.20921

 Mulliken charges and spin densities:
               1          2
     1  H    0.000802  -0.334531
     2  H   -0.002582   0.334423
     3  F    0.001779   1.000108
 Sum of Mulliken charges =   0.00000   1.00000

 Dipole moment (field-independent basis, Debye):
    X=              0.0379    Y=              0.0000    Z=             -0.0000  Tot=              0.0379
 Quadrupole moment (field-independent basis, Debye-Ang):
   XX=             -6.3568   YY=             -7.7668   ZZ=             -6.9024
   XY=             -0.0000   XZ=             -0.0000   YZ=              0.0042

  Exact polarizability:      23.200       0.000       2.033       0.002       0.004       2.821
 Approx polarizability:      42.346      -0.000       2.019      -0.000       0.003       2.602

 ******    2 imaginary frequencies (negative Signs) ******

                      1                      2                      3
                      A                      A                      A
 Frequencies --  -2127.7860               -55.0762               943.9940
 Red. masses --      1.0078                 1.1085                 1.0108
 Frc consts  --      2.6884                 0.0020                 0.5307
 IR Inten    --      0.0410                 0.1087                 4.9707

                      4
                      A
 Frequencies --   1136.8893
 Red. masses --      1.0108
 Frc consts  --      0.7698
 IR Inten    --      0.0022

 - Thermochemistry -
 -------------------
 Temperature   298.150 Kelvin.  Pressure   1.00000 Atm.
 Atom     1 has atomic number  1 and mass   1.00783

 Molecular mass:    21.01405 amu.
 Principal axes and moments of inertia in atomic units:
                           1         2         3
     Eigenvalues --     0.00000 131.74598 131.74598
           X            1.00000  -0.00000   0.00000
           Y            0.00000   1.00000   0.00000
           Z            0.00000   0.00000   1.00000
 This molecule is a prolate symmetric top.
 Rotational symmetry number  1.
 Rotational temperature (Kelvin)      0.65743
 Rotational constant (GHZ):          13.698644
    2 imaginary frequencies ignored.
 Zero-point vibrational energy      12446.4 (Joules/Mol)
                                    2.97477 (Kcal/Mol)
 Vibrational temperatures:   1358.20  1635.73
          (Kelvin)

 Zero-point correction=                           0.004741 (Hartree/Particle)
 Thermal correction to Energy=                    0.007168
 Thermal correction to Enthalpy=                  0.008112
 Thermal correction to Gibbs Free Energy=        -0.016005
 Sum of electronic and zero-point Energies=           -100.807997
 Sum of electronic and thermal Energies=              -100.805570
 Sum of electronic and thermal Enthalpies=            -100.804626
 Sum of electronic and thermal Free Energies=         -100.828743

                     E (Thermal)             CV                S
                      KCal/Mol        Cal/Mol-Kelvin    Cal/Mol-Kelvin
 Total                    4.498              5.661             50.759
 Electronic               0.000              0.000              1.377
 Translational            0.889              2.981             35.068
 Rotational               0.592              1.987             14.143
 Vibrational              3.017              0.693              0.171

 Normal termination of Gaussian 16 at Fri Aug 22 23:30:26 2025.
