 Gaussian 16, Revision C.01,
 Gaussian 16:  ES64L-G16RevC.01  3-Jul-2019

 -----------------------------------------
 # sp b3lyp/6-311g** Force nosymm scf=(qc)
 -----------------------------------------

 -------------------
 Title Card Required
 -------------------
 Symbolic Z-matrix:
 Charge =  0 Multiplicity = 2

                          Input orientation:
 ---------------------------------------------------------------------
 Center     Atomic      Atomic             Coordinates (Angstroms)
 Number     Number       Type             X           Y           Z
 ---------------------------------------------------------------------
      1          1           0        0.000000    0.000000    0.000000
      2          1           0       -2.100000    0.000000    0.000000
      3          9           0        3.000000    0.000000    0.000000
 ---------------------------------------------------------------------

 SCF Done:  E(UB3LYP) =  -100.772554330     a.u. after   25 cycles

 Alpha  occ. eigenvalues --  -24.74279  -1.20320  -0.53397  -0.44834  -0.44834
 Alpha  occ. eigenvalues --   -0.33569
 Alpha virt. eigenvalues --   -0.11557   0.25522   0.32304   0.89610   0.92159
 Alpha virt. eigenvalues --    0.92159   1.03968   1.20486   1.24346   1.24346
 Alpha virt. eigenvalues --    1.37378   1.37378   1.46761   2.12764   2.35811

  Beta  occ. eigenvalues --  -24.71243  -1.11616  -0.41795  -0.41795  -0.33837
  Beta virt. eigenvalues --   -0.24935  -0.10812   0.25922   0.32991   0.93623
  Beta virt. eigenvalues --    0.93623   0.98364   1.07899   1.20272   1.23982
  Beta virt. eigenvalues --    1.23982   1.38556   1.38556   1.47707   2.13964

 Mulliken charges and spin densities:
               1          2
     1  H    0.020635  -0.861623
     2  H    0.012817   0.899469
     3  F   -0.033453   0.962154
 Sum of Mulliken charges =  -0.00000   1.00000

 Dipole moment (field-independent basis, Debye):
    X=             -0.6430    Y=             -0.0000    Z=             -0.0000  Tot=              0.6430
 Quadrupole moment (field-independent basis, Debye-Ang):
   XX=             -7.4895   YY=             -7.6964   ZZ=             -7.6964
   XY=             -0.0000   XZ=             -0.0000   YZ=             -0.0000

  Exact polarizability:      56.018      -0.000       2.006      -0.000      -0.000       2.006
 Approx polarizability:      49.965      -0.000       1.927      -0.000       0.000       1.927

 ******    2 imaginary frequencies (negative Signs) ******

                      1                      2                      3
                      A                      A                      A
 Frequencies --  -1195.8962              -242.6294               470.3997
 Red. masses --      1.0081                 1.1082                 1.0142
 Frc consts  --      0.8494                 0.0384                 0.1322
 IR Inten    --     30.2031                27.2834                 0.2086

                      4
                      A
 Frequencies --    470.3997
 Red. masses --      1.0142
 Frc consts  --      0.1322
 IR Inten    --      0.2086

 - Thermochemistry -
 -------------------
 Temperature   298.150 Kelvin.  Pressure   1.00000 Atm.
 Atom     1 has atomic number  1 and mass   1.00783

 Molecular mass:    21.01405 amu.
 Principal axes and moments of inertia in atomic units:
                           1         2         3
     Eigenvalues --     0.00000 114.67655 114.67655
           X            1.00000  -0.00000   0.00000
           Y            0.00000   1.00000   0.00000
           Z            0.00000   0.00000   1.00000
 This molecule is a prolate symmetric top.
 Rotational symmetry number  1.
 Rotational temperature (Kelvin)      0.75529
 Rotational constant (GHZ):          15.737666
    2 imaginary frequencies ignored.
 Zero-point vibrational energy       5627.2 (Joules/Mol)
                                    1.34494 (Kcal/Mol)
 Warning -- explicit consideration of   2 degrees of freedom as
           vibrations may cause significant error
 Vibrational temperatures:    676.80   676.80
          (Kelvin)

 Zero-point correction=                           0.002143 (Hartree/Particle)
 Thermal correction to Energy=                    0.004998
 Thermal correction to Enthalpy=                  0.005942
 Thermal correction to Gibbs Free Energy=        -0.018663
 Sum of electronic and zero-point Energies=           -100.770411
 Sum of electronic and thermal Energies=              -100.767557
 Sum of electronic and thermal Enthalpies=            -100.766613
 Sum of electronic and thermal Free Energies=         -100.791217

                     E (Thermal)             CV                S
                      KCal/Mol        Cal/Mol-Kelvin    Cal/Mol-Kelvin
 Total                    3.136              7.599             51.786
 Electronic               0.000              0.000              1.377
 Translational            0.889              2.981             35.068
 Rotational               0.592              1.987             13.867
 Vibrational              1.655              2.631              1.473
 Vibration     1          0.827              1.316              0.736
 Vibration     2          0.827              1.316              0.736

 Normal termination of Gaussian 16 at Fri Aug 22 19:31:35 2025.
