 Gaussian 16, Revision C.01,
 Gaussian 16:  ES64L-G16RevC.01  3-Jul-2019

 -----------------------------------------
 # sp b3lyp/6-311g** Force nosymm scf=(qc)
 -----------------------------------------

 -------------------
 Title Card Required
 -------------------
 Symbolic Z-matrix:
 Charge =  0 Multiplicity = 2

                          Input orientation:
 ---------------------------------------------------------------------
 Center     Atomic      Atomic             Coordinates (Angstroms)
 Number     Number       Type             X           Y           Z
 ---------------------------------------------------------------------
      1          1           0        0.000000    0.000000    0.000000
      2          1           0       -2.700000    0.000000    0.000000
      3          9           0        3.850000    0.000000    0.000000
 ---------------------------------------------------------------------

 SCF Done:  E(UB3LYP) =  -100.760907685     a.u. after   37 cycles

 Alpha  occ. eigenvalues --  -24.75817  -1.21749  -0.54942  -0.46131  -0.46131
 Alpha  occ. eigenvalues --   -0.32455
 Alpha virt. eigenvalues --   -0.08584   0.25527   0.35410   0.86761   0.91208
 Alpha virt. eigenvalues --    0.91208   1.01190   1.25131   1.25131   1.26467
 Alpha virt. eigenvalues --    1.42942   1.42942   1.43565   2.16069   2.38145

  Beta  occ. eigenvalues --  -24.72677  -1.12719  -0.42983  -0.42983  -0.32644
  Beta virt. eigenvalues --   -0.25708  -0.08324   0.25351   0.35770   0.92705
  Beta virt. eigenvalues --    0.92705   0.96102   1.05303   1.24921   1.24921
  Beta virt. eigenvalues --    1.26231   1.43329   1.43329   1.43951   2.16187

 Mulliken charges and spin densities:
               1          2
     1  H    0.003029  -0.978621
     2  H    0.000702   0.982827
     3  F   -0.003731   0.995794
 Sum of Mulliken charges =   0.00000   1.00000

 Dipole moment (field-independent basis, Debye):
    X=             -0.0831    Y=             -0.0000    Z=              0.0000  Tot=              0.0831
 Quadrupole moment (field-independent basis, Debye-Ang):
   XX=             -6.8477   YY=             -7.6517   ZZ=             -7.6517
   XY=              0.0000   XZ=             -0.0000   YZ=             -0.0000

  Exact polarizability:      19.474       0.000       2.024      -0.000      -0.000       2.024
 Approx polarizability:      14.472       0.000       1.932      -0.000       0.000       1.932

 ******    2 imaginary frequencies (negative Signs) ******

                      1                      2                      3
                      A                      A                      A
 Frequencies --   -499.9881               -88.0439               181.3331
 Red. masses --      1.0079                 1.1084                 1.0142
 Frc consts  --      0.1485                 0.0051                 0.0196
 IR Inten    --      1.2461                 1.3155                 0.0071

                      4
                      A
 Frequencies --    181.3331
 Red. masses --      1.0142
 Frc consts  --      0.0196
 IR Inten    --      0.0071

 - Thermochemistry -
 -------------------
 Temperature   298.150 Kelvin.  Pressure   1.00000 Atm.
 Atom     1 has atomic number  1 and mass   1.00783

 Molecular mass:    21.01405 amu.
 Principal axes and moments of inertia in atomic units:
                           1         2         3
     Eigenvalues --     0.00000 189.08360 189.08360
           X            1.00000  -0.00000   0.00000
           Y            0.00000   1.00000   0.00000
           Z            0.00000   0.00000   1.00000
 This molecule is a prolate symmetric top.
 Rotational symmetry number  1.
 Rotational temperature (Kelvin)      0.45807
 Rotational constant (GHZ):           9.544673
    2 imaginary frequencies ignored.
 Zero-point vibrational energy       2169.2 (Joules/Mol)
                                    0.51846 (Kcal/Mol)
 Warning -- explicit consideration of   2 degrees of freedom as
           vibrations may cause significant error
 Vibrational temperatures:    260.90   260.90
          (Kelvin)

 Zero-point correction=                           0.000826 (Hartree/Particle)
 Thermal correction to Energy=                    0.004368
 Thermal correction to Enthalpy=                  0.005312
 Thermal correction to Gibbs Free Energy=        -0.021265
 Sum of electronic and zero-point Energies=           -100.760081
 Sum of electronic and thermal Energies=              -100.756540
 Sum of electronic and thermal Enthalpies=            -100.755596
 Sum of electronic and thermal Free Energies=         -100.782173

                     E (Thermal)             CV                S
                      KCal/Mol        Cal/Mol-Kelvin    Cal/Mol-Kelvin
 Total                    2.741              8.698             55.936
 Electronic               0.000              0.000              1.377
 Translational            0.889              2.981             35.068
 Rotational               0.592              1.987             14.861
 Vibrational              1.260              3.730              4.629
 Vibration     1          0.630              1.865              2.315
 Vibration     2          0.630              1.865              2.315

 Normal termination of Gaussian 16 at Sat Aug 23 01:09:34 2025.
