 Gaussian 16, Revision C.01,
 Gaussian 16:  ES64L-G16RevC.01  3-Jul-2019

 -----------------------------------------
 # sp b3lyp/6-311g** Force nosymm scf=(qc)
 -----------------------------------------

 -------------------
 Title Card Required
 -------------------
 Symbolic Z-matrix:
 Charge =  0 Multiplicity = 2

                          Input orientation:
 ---------------------------------------------------------------------
 Center     Atomic      Atomic             Coordinates (Angstroms)
 Number     Number       Type             X           Y           Z
 ---------------------------------------------------------------------
      1          1           0        0.000000    0.000000    0.000000
      2          1           0       -1.200000    0.000000    0.000000
      3          9           0        2.250000    0.000000    0.000000
 ---------------------------------------------------------------------

 SCF Done:  E(UB3LYP) =  -100.874661560     a.u. after   14 cycles

 Alpha  occ. eigenvalues --  -24.73926  -1.20029  -0.53289  -0.44585  -0.44585
 Alpha  occ. eigenvalues --   -0.38337
 Alpha virt. eigenvalues --   -0.04713   0.22244   0.34730   0.88448   0.91962
 Alpha virt. eigenvalues --    0.91962   1.07755   1.10908   1.10908   1.29124
 Alpha virt. eigenvalues --    1.52444   1.52444   2.05996   2.29674   2.54112

  Beta  occ. eigenvalues --  -24.70963  -1.11576  -0.41629  -0.41629  -0.37990
  Beta virt. eigenvalues --   -0.25408  -0.03704   0.22836   0.35200   0.93348
  Beta virt. eigenvalues --    0.93348   0.95928   1.10686   1.11592   1.11592
  Beta virt. eigenvalues --    1.31609   1.52979   1.52979   2.06833   2.30506

 Mulliken charges and spin densities:
               1          2
     1  H    0.012961  -0.075150
     2  H    0.038091   0.141456
     3  F   -0.051052   0.933694
 Sum of Mulliken charges =  -0.00000   1.00000

 Dipole moment (field-independent basis, Debye):
    X=             -0.7873    Y=             -0.0000    Z=             -0.0000  Tot=              0.7873
 Quadrupole moment (field-independent basis, Debye-Ang):
   XX=             -6.4689   YY=             -7.4333   ZZ=             -7.4333
   XY=              0.0000   XZ=             -0.0000   YZ=              0.0000

  Exact polarizability:      40.279       0.000       2.132      -0.000      -0.000       2.132
 Approx polarizability:      53.821       0.000       2.135       0.000      -0.000       2.135

 ******    2 imaginary frequencies (negative Signs) ******

                      1                      2                      3
                      A                      A                      A
 Frequencies --  -1046.4857              -133.1797              1411.2079
 Red. masses --      1.0167                 1.0979                 1.0121
 Frc consts  --      0.6560                 0.0115                 1.1876
 IR Inten    --    616.2556                 0.0643                 0.0132

                      4
                      A
 Frequencies --   1411.2079
 Red. masses --      1.0121
 Frc consts  --      1.1876
 IR Inten    --      0.0132

 - Thermochemistry -
 -------------------
 Temperature   298.150 Kelvin.  Pressure   1.00000 Atm.
 Atom     1 has atomic number  1 and mass   1.00783

 Molecular mass:    21.01405 amu.
 Principal axes and moments of inertia in atomic units:
                           1         2         3
     Eigenvalues --     0.00000  55.44918  55.44918
           X            1.00000  -0.00000   0.00000
           Y            0.00000   1.00000   0.00000
           Z            0.00000   0.00000   1.00000
 This molecule is a prolate symmetric top.
 Rotational symmetry number  1.
 Rotational temperature (Kelvin)      1.56204
 Rotational constant (GHZ):          32.547662
    2 imaginary frequencies ignored.
 Zero-point vibrational energy      16881.8 (Joules/Mol)
                                    4.03485 (Kcal/Mol)
 Vibrational temperatures:   2030.41  2030.41
          (Kelvin)

 Zero-point correction=                           0.006430 (Hartree/Particle)
 Thermal correction to Energy=                    0.008805
 Thermal correction to Enthalpy=                  0.009749
 Thermal correction to Gibbs Free Energy=        -0.013487
 Sum of electronic and zero-point Energies=           -100.868232
 Sum of electronic and thermal Energies=              -100.865857
 Sum of electronic and thermal Enthalpies=            -100.864913
 Sum of electronic and thermal Free Energies=         -100.888148

                     E (Thermal)             CV                S
                      KCal/Mol        Cal/Mol-Kelvin    Cal/Mol-Kelvin
 Total                    5.525              5.172             48.903
 Electronic               0.000              0.000              1.377
 Translational            0.889              2.981             35.068
 Rotational               0.592              1.987             12.423
 Vibrational              4.044              0.204              0.034

 Normal termination of Gaussian 16 at Fri Aug 22 17:15:40 2025.
