 Gaussian 16, Revision C.01,
 Gaussian 16:  ES64L-G16RevC.01  3-Jul-2019

 -----------------------------------------
 # sp b3lyp/6-311g** Force nosymm scf=(qc)
 -----------------------------------------

 -------------------
 Title Card Required
 -------------------
 Symbolic Z-matrix:
 Charge =  0 Multiplicity = 2

                          Input orientation:
 ---------------------------------------------------------------------
 Center     Atomic      Atomic             Coordinates (Angstroms)
 Number     Number       Type             X           Y           Z
 ---------------------------------------------------------------------
      1          1           0        0.000000    0.000000    0.000000
      2          1           0       -2.300000    0.000000    0.000000
      3          9           0        3.150000    0.000000    0.000000
 ---------------------------------------------------------------------

 SCF Done:  E(UB3LYP) =  -100.766837097     a.u. after   31 cycles

 Alpha  occ. eigenvalues --  -24.74697  -1.20709  -0.53816  -0.45186  -0.45186
 Alpha  occ. eigenvalues --   -0.33120
 Alpha virt. eigenvalues --   -0.10740   0.25623   0.33164   0.88965   0.91905
 Alpha virt. eigenvalues --    0.91905   1.03107   1.24644   1.24644   1.25153
 Alpha virt. eigenvalues --    1.39146   1.39146   1.43131   2.14449   2.35674

  Beta  occ. eigenvalues --  -24.71631  -1.11910  -0.42115  -0.42115  -0.33521
  Beta virt. eigenvalues --   -0.25142  -0.09951   0.25686   0.34105   0.93378
  Beta virt. eigenvalues --    0.93378   0.97889   1.07064   1.24135   1.24135
  Beta virt. eigenvalues --    1.24561   1.40399   1.40399   1.44313   2.15517

 Mulliken charges and spin densities:
               1          2
     1  H    0.018162  -0.917852
     2  H    0.006874   0.945943
     3  F   -0.025036   0.971909
 Sum of Mulliken charges =   0.00000   1.00000

 Dipole moment (field-independent basis, Debye):
    X=             -0.4800    Y=              0.0000    Z=              0.0000  Tot=              0.4800
 Quadrupole moment (field-independent basis, Debye-Ang):
   XX=             -7.4814   YY=             -7.6780   ZZ=             -7.6780
   XY=             -0.0000   XZ=             -0.0000   YZ=              0.0000

  Exact polarizability:      47.465      -0.000       2.012      -0.000       0.000       2.012
 Approx polarizability:      39.396      -0.000       1.925      -0.000      -0.000       1.925

 ******    2 imaginary frequencies (negative Signs) ******

                      1                      2                      3
                      A                      A                      A
 Frequencies --   -901.1842              -205.4117               341.9901
 Red. masses --      1.0082                 1.1081                 1.0146
 Frc consts  --      0.4824                 0.0275                 0.0699
 IR Inten    --     17.1068                18.0466                 0.2087

                      4
                      A
 Frequencies --    341.9901
 Red. masses --      1.0146
 Frc consts  --      0.0699
 IR Inten    --      0.2087

 - Thermochemistry -
 -------------------
 Temperature   298.150 Kelvin.  Pressure   1.00000 Atm.
 Atom     1 has atomic number  1 and mass   1.00783

 Molecular mass:    21.01405 amu.
 Principal axes and moments of inertia in atomic units:
                           1         2         3
     Eigenvalues --     0.00000 129.84471 129.84471
           X            1.00000  -0.00000   0.00000
           Y            0.00000   1.00000   0.00000
           Z            0.00000   0.00000   1.00000
 This molecule is a prolate symmetric top.
 Rotational symmetry number  1.
 Rotational temperature (Kelvin)      0.66706
 Rotational constant (GHZ):          13.899228
    2 imaginary frequencies ignored.
 Zero-point vibrational energy       4091.1 (Joules/Mol)
                                    0.97780 (Kcal/Mol)
 Warning -- explicit consideration of   2 degrees of freedom as
           vibrations may cause significant error
 Vibrational temperatures:    492.05   492.05
          (Kelvin)

 Zero-point correction=                           0.001558 (Hartree/Particle)
 Thermal correction to Energy=                    0.004659
 Thermal correction to Enthalpy=                  0.005603
 Thermal correction to Gibbs Free Energy=        -0.019562
 Sum of electronic and zero-point Energies=           -100.765279
 Sum of electronic and thermal Energies=              -100.762178
 Sum of electronic and thermal Enthalpies=            -100.761234
 Sum of electronic and thermal Free Energies=         -100.786399

                     E (Thermal)             CV                S
                      KCal/Mol        Cal/Mol-Kelvin    Cal/Mol-Kelvin
 Total                    2.924              8.151             52.965
 Electronic               0.000              0.000              1.377
 Translational            0.889              2.981             35.068
 Rotational               0.592              1.987             14.114
 Vibrational              1.442              3.183              2.406
 Vibration     1          0.721              1.592              1.203
 Vibration     2          0.721              1.592              1.203

 Normal termination of Gaussian 16 at Fri Aug 22 20:10:21 2025.
