 Gaussian 16, Revision C.01,
 Gaussian 16:  ES64L-G16RevC.01  3-Jul-2019

 -----------------------------------------
 # sp b3lyp/6-311g** Force nosymm scf=(qc)
 -----------------------------------------

 -------------------
 Title Card Required
 -------------------
 Symbolic Z-matrix:
 Charge =  0 Multiplicity = 2

                          Input orientation:
 ---------------------------------------------------------------------
 Center     Atomic      Atomic             Coordinates (Angstroms)
 Number     Number       Type             X           Y           Z
 ---------------------------------------------------------------------
      1          1           0        0.000000    0.000000    0.000000
      2          1           0       -2.900000    0.000000    0.000000
      3          9           0        0.600000    0.000000    0.000000
 ---------------------------------------------------------------------

 SCF Done:  E(UB3LYP) =  -100.688007849     a.u. after    6 cycles

 Alpha  occ. eigenvalues --  -24.62718  -1.34709  -0.61019  -0.42963  -0.42963
 Alpha  occ. eigenvalues --   -0.33825
 Alpha virt. eigenvalues --    0.07892   0.25609   0.58284   0.92141   0.92141
 Alpha virt. eigenvalues --    0.93157   1.21792   1.23704   1.23704   1.38994
 Alpha virt. eigenvalues --    1.50282   1.50282   1.95665   2.14924   3.36508

  Beta  occ. eigenvalues --  -24.62716  -1.34702  -0.61014  -0.42962  -0.42962
  Beta virt. eigenvalues --   -0.06327   0.08939   0.39187   0.58338   0.92137
  Beta virt. eigenvalues --    0.92137   0.93180   1.33391   1.50284   1.50284
  Beta virt. eigenvalues --    1.50326   1.50326   1.52800   1.95413   2.44675

 Mulliken charges and spin densities:
               1          2
     1  H    0.235973   0.001478
     2  H    0.002236   0.997058
     3  F   -0.238209   0.001464
 Sum of Mulliken charges =   0.00000   1.00000

 Dipole moment (field-independent basis, Debye):
    X=             -1.4617    Y=              0.0000    Z=             -0.0000  Tot=              1.4617
 Quadrupole moment (field-independent basis, Debye-Ang):
   XX=             -6.8843   YY=             -6.5508   ZZ=             -6.5508
   XY=              0.0000   XZ=             -0.0000   YZ=             -0.0000

  Exact polarizability:       4.135       0.000       2.450      -0.000      -0.000       2.450
 Approx polarizability:       4.270      -0.000       2.431       0.000      -0.000       2.431

 ******    2 imaginary frequencies (negative Signs) ******

                      1                      2                      3
                      A                      A                      A
 Frequencies --  -5862.6723             -5862.6723                33.8527
 Red. masses --      1.0415                 1.0415                 1.0532
 Frc consts  --     21.0917                21.0917                 0.0007
 IR Inten    --    233.6651               233.6651                 0.1006

                      4
                      A
 Frequencies --  13070.7454
 Red. masses --      1.0583
 Frc consts  --    106.5282
 IR Inten    --    102.7456

 - Thermochemistry -
 -------------------
 Temperature   298.150 Kelvin.  Pressure   1.00000 Atm.
 Atom     1 has atomic number  1 and mass   1.00783

 Molecular mass:    21.01405 amu.
 Principal axes and moments of inertia in atomic units:
                           1         2         3
     Eigenvalues --     0.00000  42.48198  42.48198
           X            1.00000  -0.00000   0.00000
           Y            0.00000   1.00000   0.00000
           Z            0.00000   0.00000   1.00000
 This molecule is a prolate symmetric top.
 Rotational symmetry number  1.
 Rotational temperature (Kelvin)      2.03884
 Rotational constant (GHZ):          42.482516
    2 imaginary frequencies ignored.
 Zero-point vibrational energy      78382.9 (Joules/Mol)
                                   18.73396 (Kcal/Mol)
 Warning -- explicit consideration of   1 degrees of freedom as
           vibrations may cause significant error
 Vibrational temperatures:     48.71 18805.89
          (Kelvin)

 Zero-point correction=                           0.029854 (Hartree/Particle)
 Thermal correction to Energy=                    0.033084
 Thermal correction to Enthalpy=                  0.034028
 Thermal correction to Gibbs Free Energy=         0.008405
 Sum of electronic and zero-point Energies=           -100.658153
 Sum of electronic and thermal Energies=              -100.654924
 Sum of electronic and thermal Enthalpies=            -100.653980
 Sum of electronic and thermal Free Energies=         -100.679603

                     E (Thermal)             CV                S
                      KCal/Mol        Cal/Mol-Kelvin    Cal/Mol-Kelvin
 Total                   20.761              6.951             53.929
 Electronic               0.000              0.000              1.377
 Translational            0.889              2.981             35.068
 Rotational               0.592              1.987             11.894
 Vibrational             19.279              1.983              5.590
 Vibration     1          0.594              1.983              5.590

 Normal termination of Gaussian 16 at Fri Aug 22 15:42:17 2025.
