 Gaussian 16, Revision C.01,
 Gaussian 16:  ES64L-G16RevC.01  3-Jul-2019

 -----------------------------------------
 # sp b3lyp/6-311g** Force nosymm scf=(qc)
 -----------------------------------------

 -------------------
 Title Card Required
 -------------------
 Symbolic Z-matrix:
 Charge =  0 Multiplicity = 2

                          Input orientation:
 ---------------------------------------------------------------------
 Center     Atomic      Atomic             Coordinates (Angstroms)
 Number     Number       Type             X           Y           Z
 ---------------------------------------------------------------------
      1          1           0        0.000000    0.000000    0.000000
      2          1           0       -1.550000    0.000000    0.000000
      3          9           0        1.000000    0.000000    0.000000
 ---------------------------------------------------------------------

 SCF Done:  E(UB3LYP) =  -100.967101238     a.u. after    6 cycles

 Alpha  occ. eigenvalues --  -24.63524  -1.15727  -0.52621  -0.38313  -0.38313
 Alpha  occ. eigenvalues --   -0.37067
 Alpha virt. eigenvalues --    0.07345   0.21349   0.34181   0.94244   0.94244
 Alpha virt. eigenvalues --    0.99025   1.16221   1.16578   1.16578   1.40512
 Alpha virt. eigenvalues --    1.40512   1.52726   1.98258   2.31937   2.41723

  Beta  occ. eigenvalues --  -24.63270  -1.15092  -0.50960  -0.38090  -0.38090
  Beta virt. eigenvalues --   -0.15593   0.09802   0.27297   0.37591   0.94391
  Beta virt. eigenvalues --    0.94391   0.99589   1.25067   1.27772   1.27772
  Beta virt. eigenvalues --    1.45673   1.45673   1.55889   2.10286   2.32545

 Mulliken charges and spin densities:
               1          2
     1  H    0.293080  -0.000355
     2  H    0.032467   0.933234
     3  F   -0.325548   0.067121
 Sum of Mulliken charges =   0.00000   1.00000

 Dipole moment (field-independent basis, Debye):
    X=             -2.2987    Y=             -0.0000    Z=             -0.0000  Tot=              2.2987
 Quadrupole moment (field-independent basis, Debye-Ang):
   XX=             -7.6514   YY=             -6.8460   ZZ=             -6.8460
   XY=             -0.0000   XZ=             -0.0000   YZ=             -0.0000

  Exact polarizability:      12.737       0.000       2.509      -0.000      -0.000       2.509
 Approx polarizability:      13.909       0.000       2.502      -0.000       0.000       2.502

                      1                      2                      3
                      A                      A                      A
 Frequencies --    289.3536               864.5713               864.5713
 Red. masses --      1.0476                 1.0240                 1.0240
 Frc consts  --      0.0517                 0.4510                 0.4510
 IR Inten    --      0.8038               104.2481               104.2481

                      4
                      A
 Frequencies --   2822.6397
 Red. masses --      1.0641
 Frc consts  --      4.9951
 IR Inten    --    208.3647

 - Thermochemistry -
 -------------------
 Temperature   298.150 Kelvin.  Pressure   1.00000 Atm.
 Atom     1 has atomic number  1 and mass   1.00783

 Molecular mass:    21.01405 amu.
 Principal axes and moments of inertia in atomic units:
                           1         2         3
     Eigenvalues --     0.00000  24.82628  24.82628
           X            1.00000  -0.00000   0.00000
           Y            0.00000   1.00000   0.00000
           Z            0.00000   0.00000   1.00000
 This molecule is a prolate symmetric top.
 Rotational symmetry number  1.
 Rotational temperature (Kelvin)      3.48880
 Rotational constant (GHZ):          72.694781
 Zero-point vibrational energy      28956.4 (Joules/Mol)
                                    6.92075 (Kcal/Mol)
 Warning -- explicit consideration of   1 degrees of freedom as
           vibrations may cause significant error
 Vibrational temperatures:    416.32  1243.93  1243.93  4061.15
          (Kelvin)

 Zero-point correction=                           0.011029 (Hartree/Particle)
 Thermal correction to Energy=                    0.013946
 Thermal correction to Enthalpy=                  0.014891
 Thermal correction to Gibbs Free Energy=        -0.008425
 Sum of electronic and zero-point Energies=           -100.956072
 Sum of electronic and thermal Energies=              -100.953155
 Sum of electronic and thermal Enthalpies=            -100.952211
 Sum of electronic and thermal Free Energies=         -100.975526

                     E (Thermal)             CV                S
                      KCal/Mol        Cal/Mol-Kelvin    Cal/Mol-Kelvin
 Total                    8.752              7.762             49.071
 Electronic               0.000              0.000              1.377
 Translational            0.889              2.981             35.068
 Rotational               0.592              1.987             10.826
 Vibrational              7.270              2.794              1.799
 Vibration     1          0.686              1.694              1.478

 Normal termination of Gaussian 16 at Fri Aug 22 16:00:14 2025.
