 Gaussian 16, Revision C.01,
 Gaussian 16:  ES64L-G16RevC.01  3-Jul-2019

 -----------------------------------------
 # sp b3lyp/6-311g** Force nosymm scf=(qc)
 -----------------------------------------

 -------------------
 Title Card Required
 -------------------
 Symbolic Z-matrix:
 Charge =  0 Multiplicity = 2

                          Input orientation:
 ---------------------------------------------------------------------
 Center     Atomic      Atomic             Coordinates (Angstroms)
 Number     Number       Type             X           Y           Z
 ---------------------------------------------------------------------
      1          1           0        0.000000    0.000000    0.000000
      2          1           0       -2.150000    0.000000    0.000000
      3          9           0        0.950000    0.000000    0.000000
 ---------------------------------------------------------------------

 SCF Done:  E(UB3LYP) =  -100.971613846     a.u. after    6 cycles

 Alpha  occ. eigenvalues --  -24.63853  -1.17247  -0.52723  -0.39000  -0.39000
 Alpha  occ. eigenvalues --   -0.35645
 Alpha virt. eigenvalues --    0.04519   0.24654   0.36386   0.94415   0.94415
 Alpha virt. eigenvalues --    0.97920   1.15822   1.21842   1.21842   1.36738
 Alpha virt. eigenvalues --    1.36738   1.46691   1.93560   2.15951   2.35385

  Beta  occ. eigenvalues --  -24.63806  -1.17130  -0.52482  -0.38960  -0.38960
  Beta virt. eigenvalues --   -0.11394   0.06563   0.35736   0.36278   0.94421
  Beta virt. eigenvalues --    0.94421   0.98263   1.25304   1.36457   1.36457
  Beta virt. eigenvalues --    1.42329   1.42329   1.56492   1.94930   2.35028

 Mulliken charges and spin densities:
               1          2
     1  H    0.297574   0.005271
     2  H    0.012075   0.981781
     3  F   -0.309649   0.012948
 Sum of Mulliken charges =   0.00000   1.00000

 Dipole moment (field-independent basis, Debye):
    X=             -2.0958    Y=              0.0000    Z=             -0.0000  Tot=              2.0958
 Quadrupole moment (field-independent basis, Debye-Ang):
   XX=             -7.7124   YY=             -6.8910   ZZ=             -6.8910
   XY=              0.0000   XZ=             -0.0000   YZ=             -0.0000

  Exact polarizability:       9.239       0.000       2.462      -0.000      -0.000       2.462
 Approx polarizability:      10.014      -0.000       2.445       0.000      -0.000       2.445

                      1                      2                      3
                      A                      A                      A
 Frequencies --    111.3687               642.6892               642.6892
 Red. masses --      1.0528                 1.0301                 1.0301
 Frc consts  --      0.0077                 0.2507                 0.2507
 IR Inten    --      1.7250               148.3740               148.3740

                      4
                      A
 Frequencies --   3654.4512
 Red. masses --      1.0588
 Frc consts  --      8.3311
 IR Inten    --    160.7686

 - Thermochemistry -
 -------------------
 Temperature   298.150 Kelvin.  Pressure   1.00000 Atm.
 Atom     1 has atomic number  1 and mass   1.00783

 Molecular mass:    21.01405 amu.
 Principal axes and moments of inertia in atomic units:
                           1         2         3
     Eigenvalues --     0.00000  35.00339  35.00339
           X            1.00000  -0.00000   0.00000
           Y            0.00000   1.00000   0.00000
           Z            0.00000   0.00000   1.00000
 This molecule is a prolate symmetric top.
 Rotational symmetry number  1.
 Rotational temperature (Kelvin)      2.47444
 Rotational constant (GHZ):          51.559037
 Zero-point vibrational energy      30212.9 (Joules/Mol)
                                    7.22105 (Kcal/Mol)
 Warning -- explicit consideration of   1 degrees of freedom as
           vibrations may cause significant error
 Vibrational temperatures:    160.23   924.69   924.69  5257.94
          (Kelvin)

 Zero-point correction=                           0.011507 (Hartree/Particle)
 Thermal correction to Energy=                    0.014857
 Thermal correction to Enthalpy=                  0.015801
 Thermal correction to Gibbs Free Energy=        -0.008888
 Sum of electronic and zero-point Energies=           -100.960106
 Sum of electronic and thermal Energies=              -100.956757
 Sum of electronic and thermal Enthalpies=            -100.955813
 Sum of electronic and thermal Free Energies=         -100.980502

                     E (Thermal)             CV                S
                      KCal/Mol        Cal/Mol-Kelvin    Cal/Mol-Kelvin
 Total                    9.323              8.794             51.963
 Electronic               0.000              0.000              1.377
 Translational            0.889              2.981             35.068
 Rotational               0.592              1.987             11.509
 Vibrational              7.842              3.826              4.008
 Vibration     1          0.607              1.940              3.245

 Normal termination of Gaussian 16 at Fri Aug 22 15:58:15 2025.
