 Gaussian 16, Revision C.01,
 Gaussian 16:  ES64L-G16RevC.01  3-Jul-2019

 -----------------------------------------
 # sp b3lyp/6-311g** Force nosymm scf=(qc)
 -----------------------------------------

 -------------------
 Title Card Required
 -------------------
 Symbolic Z-matrix:
 Charge =  0 Multiplicity = 2

                          Input orientation:
 ---------------------------------------------------------------------
 Center     Atomic      Atomic             Coordinates (Angstroms)
 Number     Number       Type             X           Y           Z
 ---------------------------------------------------------------------
      1          1           0        0.000000    0.000000    0.000000
      2          1           0       -0.900000    0.000000    0.000000
      3          9           0        1.000000    0.000000    0.000000
 ---------------------------------------------------------------------

 SCF Done:  E(UB3LYP) =  -100.952960855     a.u. after    5 cycles

 Alpha  occ. eigenvalues --  -24.65559  -1.18484  -0.59808  -0.40230  -0.40230
 Alpha  occ. eigenvalues --   -0.36111
 Alpha virt. eigenvalues --    0.13157   0.18553   0.48610   0.88837   0.88837
 Alpha virt. eigenvalues --    0.96654   1.08346   1.08346   1.44336   1.67189
 Alpha virt. eigenvalues --    1.67189   1.69789   2.17848   2.29756   3.15546

  Beta  occ. eigenvalues --  -24.64401  -1.15557  -0.53446  -0.39190  -0.39190
  Beta virt. eigenvalues --   -0.18464   0.15149   0.20807   0.54104   0.90637
  Beta virt. eigenvalues --    0.90637   0.99033   1.13397   1.13397   1.46524
  Beta virt. eigenvalues --    1.71710   1.71710   1.78287   2.17255   2.41322

 Mulliken charges and spin densities:
               1          2
     1  H    0.277504  -0.022466
     2  H    0.001146   0.725384
     3  F   -0.278651   0.297082
 Sum of Mulliken charges =   0.00000   1.00000

 Dipole moment (field-independent basis, Debye):
    X=             -1.8056    Y=             -0.0000    Z=             -0.0000  Tot=              1.8056
 Quadrupole moment (field-independent basis, Debye-Ang):
   XX=             -7.5871   YY=             -6.6396   ZZ=             -6.6396
   XY=             -0.0000   XZ=             -0.0000   YZ=              0.0000

  Exact polarizability:      14.570       0.000       2.567      -0.000      -0.000       2.567
 Approx polarizability:      17.392       0.000       2.603       0.000      -0.000       2.603

 ******    2 imaginary frequencies (negative Signs) ******

                      1                      2                      3
                      A                      A                      A
 Frequencies --   -996.9246              -996.9246              1953.4774
 Red. masses --      1.0167                 1.0167                 1.0740
 Frc consts  --      0.5954                 0.5954                 2.4147
 IR Inten    --     47.6546                47.6546               101.8876

                      4
                      A
 Frequencies --   2323.4805
 Red. masses --      1.0382
 Frc consts  --      3.3021
 IR Inten    --     12.6581

 - Thermochemistry -
 -------------------
 Temperature   298.150 Kelvin.  Pressure   1.00000 Atm.
 Atom     1 has atomic number  1 and mass   1.00783

 Molecular mass:    21.01405 amu.
 Principal axes and moments of inertia in atomic units:
                           1         2         3
     Eigenvalues --     0.00000  15.13981  15.13981
           X            1.00000  -0.00000   0.00000
           Y            0.00000   1.00000   0.00000
           Z            0.00000   0.00000   1.00000
 This molecule is a prolate symmetric top.
 Rotational symmetry number  1.
 Rotational temperature (Kelvin)      5.72094
 Rotational constant (GHZ):         119.205048
    2 imaginary frequencies ignored.
 Zero-point vibrational energy      25581.9 (Joules/Mol)
                                    6.11422 (Kcal/Mol)
 Vibrational temperatures:   2810.62  3342.97
          (Kelvin)

 Zero-point correction=                           0.009744 (Hartree/Particle)
 Thermal correction to Energy=                    0.012105
 Thermal correction to Enthalpy=                  0.013049
 Thermal correction to Gibbs Free Energy=        -0.008945
 Sum of electronic and zero-point Energies=           -100.943217
 Sum of electronic and thermal Energies=              -100.940856
 Sum of electronic and thermal Enthalpies=            -100.939912
 Sum of electronic and thermal Free Energies=         -100.961906

                     E (Thermal)             CV                S
                      KCal/Mol        Cal/Mol-Kelvin    Cal/Mol-Kelvin
 Total                    7.596              4.986             46.291
 Electronic               0.000              0.000              1.377
 Translational            0.889              2.981             35.068
 Rotational               0.592              1.987              9.844
 Vibrational              6.115              0.018              0.002

 Normal termination of Gaussian 16 at Fri Aug 22 15:59:46 2025.
