 Gaussian 16, Revision C.01,
 Gaussian 16:  ES64L-G16RevC.01  3-Jul-2019

 -----------------------------------------
 # sp b3lyp/6-311g** Force nosymm scf=(qc)
 -----------------------------------------

 -------------------
 Title Card Required
 -------------------
 Symbolic Z-matrix:
 Charge =  0 Multiplicity = 2

                          Input orientation:
 ---------------------------------------------------------------------
 Center     Atomic      Atomic             Coordinates (Angstroms)
 Number     Number       Type             X           Y           Z
 ---------------------------------------------------------------------
      1          1           0        0.000000    0.000000    0.000000
      2          1           0       -1.500000    0.000000    0.000000
      3          9           0        0.600000    0.000000    0.000000
 ---------------------------------------------------------------------

 SCF Done:  E(UB3LYP) =  -100.680671653     a.u. after    7 cycles

 Alpha  occ. eigenvalues --  -24.62921  -1.35162  -0.61837  -0.43197  -0.43197
 Alpha  occ. eigenvalues --   -0.35637
 Alpha virt. eigenvalues --    0.14001   0.21888   0.59446   0.91600   0.91600
 Alpha virt. eigenvalues --    0.92525   1.18235   1.18235   1.40381   1.54012
 Alpha virt. eigenvalues --    1.54012   1.63910   1.96736   2.21639   3.55709

  Beta  occ. eigenvalues --  -24.62819  -1.34842  -0.61328  -0.43126  -0.43126
  Beta virt. eigenvalues --   -0.11543   0.15130   0.30539   0.64062   0.91766
  Beta virt. eigenvalues --    0.91766   0.92746   1.32991   1.32991   1.44108
  Beta virt. eigenvalues --    1.57527   1.57527   1.75106   1.96623   2.45402

 Mulliken charges and spin densities:
               1          2
     1  H    0.220774   0.015543
     2  H    0.010146   0.975455
     3  F   -0.230921   0.009003
 Sum of Mulliken charges =   0.00000   1.00000

 Dipole moment (field-independent basis, Debye):
    X=             -1.4414    Y=              0.0000    Z=             -0.0000  Tot=              1.4414
 Quadrupole moment (field-independent basis, Debye-Ang):
   XX=             -6.8550   YY=             -6.4727   ZZ=             -6.4727
   XY=              0.0000   XZ=             -0.0000   YZ=             -0.0000

  Exact polarizability:       6.295      -0.000       2.515       0.000       0.000       2.515
 Approx polarizability:       6.013       0.000       2.529       0.000       0.000       2.529

 ******    2 imaginary frequencies (negative Signs) ******

                      1                      2                      3
                      A                      A                      A
 Frequencies --  -5740.4952             -5740.4952               906.7785
 Red. masses --      1.0317                 1.0317                 1.0535
 Frc consts  --     20.0305                20.0305                 0.5104
 IR Inten    --    174.7549               174.7549                 5.8799

                      4
                      A
 Frequencies --  13069.1458
 Red. masses --      1.0581
 Frc consts  --    106.4801
 IR Inten    --    110.3316

 - Thermochemistry -
 -------------------
 Temperature   298.150 Kelvin.  Pressure   1.00000 Atm.
 Atom     1 has atomic number  1 and mass   1.00783

 Molecular mass:    21.01405 amu.
 Principal axes and moments of inertia in atomic units:
                           1         2         3
     Eigenvalues --     0.00000  15.90897  15.90897
           X            1.00000  -0.00000   0.00000
           Y            0.00000   1.00000   0.00000
           Z            0.00000   0.00000   1.00000
 This molecule is a prolate symmetric top.
 Rotational symmetry number  1.
 Rotational temperature (Kelvin)      5.44435
 Rotational constant (GHZ):         113.441764
    2 imaginary frequencies ignored.
 Zero-point vibrational energy      83594.6 (Joules/Mol)
                                   19.97959 (Kcal/Mol)
 Vibrational temperatures:   1304.65 18803.59
          (Kelvin)

 Zero-point correction=                           0.031839 (Hartree/Particle)
 Thermal correction to Energy=                    0.034253
 Thermal correction to Enthalpy=                  0.035197
 Thermal correction to Gibbs Free Energy=         0.013092
 Sum of electronic and zero-point Energies=           -100.648832
 Sum of electronic and thermal Energies=              -100.646419
 Sum of electronic and thermal Enthalpies=            -100.645475
 Sum of electronic and thermal Free Energies=         -100.667580

                     E (Thermal)             CV                S
                      KCal/Mol        Cal/Mol-Kelvin    Cal/Mol-Kelvin
 Total                   21.494              5.459             46.523
 Electronic               0.000              0.000              1.377
 Translational            0.889              2.981             35.068
 Rotational               0.592              1.987              9.942
 Vibrational             20.013              0.491              0.136

 Normal termination of Gaussian 16 at Fri Aug 22 15:41:21 2025.
