 Gaussian 16, Revision C.01,
 Gaussian 16:  ES64L-G16RevC.01  3-Jul-2019

 -----------------------------------------
 # sp b3lyp/6-311g** Force nosymm scf=(qc)
 -----------------------------------------

 -------------------
 Title Card Required
 -------------------
 Symbolic Z-matrix:
 Charge =  0 Multiplicity = 2

                          Input orientation:
 ---------------------------------------------------------------------
 Center     Atomic      Atomic             Coordinates (Angstroms)
 Number     Number       Type             X           Y           Z
 ---------------------------------------------------------------------
      1          1           0        0.000000    0.000000    0.000000
      2          1           0       -3.750000    0.000000    0.000000
      3          9           0        0.550000    0.000000    0.000000
 ---------------------------------------------------------------------

 SCF Done:  E(UB3LYP) =  -100.519207253     a.u. after    6 cycles

 Alpha  occ. eigenvalues --  -24.62695  -1.38438  -0.62259  -0.43638  -0.43638
 Alpha  occ. eigenvalues --   -0.33151
 Alpha virt. eigenvalues --    0.07734   0.24750   0.60272   0.91191   0.91209
 Alpha virt. eigenvalues --    0.91209   1.24232   1.24354   1.24354   1.34872
 Alpha virt. eigenvalues --    1.54129   1.54129   1.96746   2.14525   3.65589

  Beta  occ. eigenvalues --  -24.62695  -1.38438  -0.62259  -0.43638  -0.43638
  Beta virt. eigenvalues --   -0.05128   0.07980   0.38754   0.60257   0.91188
  Beta virt. eigenvalues --    0.91208   0.91208   1.34532   1.48613   1.49179
  Beta virt. eigenvalues --    1.49179   1.54129   1.54129   1.96698   2.45836

 Mulliken charges and spin densities:
               1          2
     1  H    0.200510   0.000324
     2  H    0.000452   0.999490
     3  F   -0.200962   0.000186
 Sum of Mulliken charges =   0.00000   1.00000

 Dipole moment (field-independent basis, Debye):
    X=             -1.3641    Y=             -0.0000    Z=              0.0000  Tot=              1.3641
 Quadrupole moment (field-independent basis, Debye-Ang):
   XX=             -6.8293   YY=             -6.4956   ZZ=             -6.4956
   XY=             -0.0000   XZ=              0.0000   YZ=             -0.0000

  Exact polarizability:       3.061      -0.000       2.426       0.000       0.000       2.426
 Approx polarizability:       3.267      -0.000       2.403      -0.000       0.000       2.403

 ******    3 imaginary frequencies (negative Signs) ******

                      1                      2                      3
                      A                      A                      A
 Frequencies --  -7517.1235             -7517.1235               -30.1999
 Red. masses --      1.0456                 1.0456                 1.0532
 Frc consts  --     34.8122                34.8122                 0.0006
 IR Inten    --    260.5030               260.5030                 0.0121

                      4
                      A
 Frequencies --  15777.8471
 Red. masses --      1.0583
 Frc consts  --    155.2240
 IR Inten    --     87.8498

 - Thermochemistry -
 -------------------
 Temperature   298.150 Kelvin.  Pressure   1.00000 Atm.
 Atom     1 has atomic number  1 and mass   1.00783

 Molecular mass:    21.01405 amu.
 Principal axes and moments of inertia in atomic units:
                           1         2         3
     Eigenvalues --     0.00000  63.57422  63.57422
           X            1.00000  -0.00000   0.00000
           Y            0.00000   1.00000   0.00000
           Z            0.00000   0.00000   1.00000
 This molecule is a prolate symmetric top.
 Rotational symmetry number  1.
 Rotational temperature (Kelvin)      1.36241
 Rotational constant (GHZ):          28.387940
    3 imaginary frequencies ignored.
 Zero-point vibrational energy      94372.5 (Joules/Mol)
                                   22.55556 (Kcal/Mol)
 Vibrational temperatures:  22700.80
          (Kelvin)

 Zero-point correction=                           0.035945 (Hartree/Particle)
 Thermal correction to Energy=                    0.038305
 Thermal correction to Enthalpy=                  0.039249
 Thermal correction to Gibbs Free Energy=         0.015901
 Sum of electronic and zero-point Energies=           -100.483263
 Sum of electronic and thermal Energies=              -100.480902
 Sum of electronic and thermal Enthalpies=            -100.479958
 Sum of electronic and thermal Free Energies=         -100.503306

                     E (Thermal)             CV                S
                      KCal/Mol        Cal/Mol-Kelvin    Cal/Mol-Kelvin
 Total                   24.037              4.968             49.140
 Electronic               0.000              0.000              1.377
 Translational            0.889              2.981             35.068
 Rotational               0.592              1.987             12.695
 Vibrational             22.556              0.000              0.000

 Normal termination of Gaussian 16 at Fri Aug 22 15:40:27 2025.
