 Gaussian 16, Revision C.01,
 Gaussian 16:  ES64L-G16RevC.01  3-Jul-2019

 -----------------------------------------
 # sp b3lyp/6-311g** Force nosymm scf=(qc)
 -----------------------------------------

 -------------------
 Title Card Required
 -------------------
 Symbolic Z-matrix:
 Charge =  0 Multiplicity = 2

                          Input orientation:
 ---------------------------------------------------------------------
 Center     Atomic      Atomic             Coordinates (Angstroms)
 Number     Number       Type             X           Y           Z
 ---------------------------------------------------------------------
      1          1           0        0.000000    0.000000    0.000000
      2          1           0       -3.800000    0.000000    0.000000
      3          9           0        2.650000    0.000000    0.000000
 ---------------------------------------------------------------------

 SCF Done:  E(UB3LYP) =  -100.764579210     a.u. after   21 cycles

 Alpha  occ. eigenvalues --  -24.72555  -1.18722  -0.51667  -0.43394  -0.43394
 Alpha  occ. eigenvalues --   -0.32682
 Alpha virt. eigenvalues --   -0.09330   0.23593   0.35697   0.89902   0.93168
 Alpha virt. eigenvalues --    0.93168   1.05770   1.24819   1.24819   1.24863
 Alpha virt. eigenvalues --    1.41802   1.41802   1.44192   2.14278   2.38707

  Beta  occ. eigenvalues --  -24.69643  -1.10410  -0.40486  -0.40486  -0.34780
  Beta virt. eigenvalues --   -0.23860  -0.06226   0.23806   0.38092   0.94581
  Beta virt. eigenvalues --    0.94581   0.97396   1.08629   1.22560   1.22560
  Beta virt. eigenvalues --    1.26295   1.46300   1.46503   1.46503   2.13208

 Mulliken charges and spin densities:
               1          2
     1  H    0.070386  -0.920388
     2  H    0.000340   0.999020
     3  F   -0.070726   0.921369
 Sum of Mulliken charges =  -0.00000   1.00000

 Dipole moment (field-independent basis, Debye):
    X=             -0.9638    Y=             -0.0000    Z=              0.0000  Tot=              0.9638
 Quadrupole moment (field-independent basis, Debye-Ang):
   XX=             -9.0535   YY=             -7.5831   ZZ=             -7.5831
   XY=             -0.0000   XZ=              0.0000   YZ=              0.0000

  Exact polarizability:      31.030      -0.000       2.025       0.000       0.000       2.025
 Approx polarizability:      37.475       0.000       1.922       0.000      -0.000       1.922

 ******    2 imaginary frequencies (negative Signs) ******

                      1                      2                      3
                      A                      A                      A
 Frequencies --   -524.0950               -86.0729               197.7950
 Red. masses --      1.0554                 1.0561                 1.0228
 Frc consts  --      0.1708                 0.0046                 0.0236
 IR Inten    --     67.4966                 0.0913                 4.8050

                      4
                      A
 Frequencies --    197.7950
 Red. masses --      1.0228
 Frc consts  --      0.0236
 IR Inten    --      4.8050

 - Thermochemistry -
 -------------------
 Temperature   298.150 Kelvin.  Pressure   1.00000 Atm.
 Atom     1 has atomic number  1 and mass   1.00783

 Molecular mass:    21.01405 amu.
 Principal axes and moments of inertia in atomic units:
                           1         2         3
     Eigenvalues --     0.00000 160.70821 160.70821
           X            1.00000  -0.00000   0.00000
           Y            0.00000   1.00000   0.00000
           Z            0.00000   0.00000   1.00000
 This molecule is a prolate symmetric top.
 Rotational symmetry number  1.
 Rotational temperature (Kelvin)      0.53895
 Rotational constant (GHZ):          11.229925
    2 imaginary frequencies ignored.
 Zero-point vibrational energy       2366.2 (Joules/Mol)
                                    0.56552 (Kcal/Mol)
 Warning -- explicit consideration of   2 degrees of freedom as
           vibrations may cause significant error
 Vibrational temperatures:    284.58   284.58
          (Kelvin)

 Zero-point correction=                           0.000901 (Hartree/Particle)
 Thermal correction to Energy=                    0.004390
 Thermal correction to Enthalpy=                  0.005334
 Thermal correction to Gibbs Free Energy=        -0.020936
 Sum of electronic and zero-point Energies=           -100.763678
 Sum of electronic and thermal Energies=              -100.760189
 Sum of electronic and thermal Enthalpies=            -100.759245
 Sum of electronic and thermal Free Energies=         -100.785515

                     E (Thermal)             CV                S
                      KCal/Mol        Cal/Mol-Kelvin    Cal/Mol-Kelvin
 Total                    2.755              8.654             55.290
 Electronic               0.000              0.000              1.377
 Translational            0.889              2.981             35.068
 Rotational               0.592              1.987             14.538
 Vibrational              1.274              3.686              4.307
 Vibration     1          0.637              1.843              2.154
 Vibration     2          0.637              1.843              2.154

 Normal termination of Gaussian 16 at Fri Aug 22 18:16:08 2025.
