 Gaussian 16, Revision C.01,
 Gaussian 16:  ES64L-G16RevC.01  3-Jul-2019

 -----------------------------------------
 # sp b3lyp/6-311g** Force nosymm scf=(qc)
 -----------------------------------------

 -------------------
 Title Card Required
 -------------------
 Symbolic Z-matrix:
 Charge =  0 Multiplicity = 2

                          Input orientation:
 ---------------------------------------------------------------------
 Center     Atomic      Atomic             Coordinates (Angstroms)
 Number     Number       Type             X           Y           Z
 ---------------------------------------------------------------------
      1          1           0        0.000000    0.000000    0.000000
      2          1           0       -3.300000    0.000000    0.000000
      3          9           0        0.650000    0.000000    0.000000
 ---------------------------------------------------------------------

 SCF Done:  E(UB3LYP) =  -100.800713671     a.u. after    6 cycles

 Alpha  occ. eigenvalues --  -24.62933  -1.31310  -0.59800  -0.42353  -0.42353
 Alpha  occ. eigenvalues --   -0.33521
 Alpha virt. eigenvalues --    0.07043   0.25220   0.55389   0.92885   0.92885
 Alpha virt. eigenvalues --    0.94693   1.23481   1.23995   1.23995   1.33719
 Alpha virt. eigenvalues --    1.46916   1.46916   1.96113   2.14901   3.09633

  Beta  occ. eigenvalues --  -24.62932  -1.31308  -0.59799  -0.42353  -0.42353
  Beta virt. eigenvalues --   -0.05488   0.07718   0.39491   0.55465   0.92885
  Beta virt. eigenvalues --    0.92885   0.94687   1.32446   1.46917   1.46917
  Beta virt. eigenvalues --    1.50777   1.50777   1.51560   1.96101   2.44845

 Mulliken charges and spin densities:
               1          2
     1  H    0.254206   0.000772
     2  H    0.001085   0.998622
     3  F   -0.255291   0.000606
 Sum of Mulliken charges =   0.00000   1.00000

 Dipole moment (field-independent basis, Debye):
    X=             -1.5206    Y=             -0.0000    Z=              0.0000  Tot=              1.5206
 Quadrupole moment (field-independent basis, Debye-Ang):
   XX=             -7.1023   YY=             -6.6078   ZZ=             -6.6078
   XY=             -0.0000   XZ=              0.0000   YZ=              0.0000

  Exact polarizability:       3.885      -0.000       2.448      -0.000      -0.000       2.448
 Approx polarizability:       4.143       0.000       2.429       0.000      -0.000       2.429

 ******    3 imaginary frequencies (negative Signs) ******

                      1                      2                      3
                      A                      A                      A
 Frequencies --  -4592.8235             -4592.8235               -37.6608
 Red. masses --      1.0422                 1.0422                 1.0532
 Frc consts  --     12.9523                12.9523                 0.0009
 IR Inten    --    224.4170               224.4170                 0.0437

                      4
                      A
 Frequencies --  10873.5017
 Red. masses --      1.0583
 Frc consts  --     73.7230
 IR Inten    --    104.6003

 - Thermochemistry -
 -------------------
 Temperature   298.150 Kelvin.  Pressure   1.00000 Atm.
 Atom     1 has atomic number  1 and mass   1.00783

 Molecular mass:    21.01405 amu.
 Principal axes and moments of inertia in atomic units:
                           1         2         3
     Eigenvalues --     0.00000  54.02175  54.02175
           X            1.00000  -0.00000   0.00000
           Y            0.00000   1.00000   0.00000
           Z            0.00000   0.00000   1.00000
 This molecule is a prolate symmetric top.
 Rotational symmetry number  1.
 Rotational temperature (Kelvin)      1.60332
 Rotational constant (GHZ):          33.407678
    3 imaginary frequencies ignored.
 Zero-point vibrational energy      65038.0 (Joules/Mol)
                                   15.54445 (Kcal/Mol)
 Vibrational temperatures:  15644.54
          (Kelvin)

 Zero-point correction=                           0.024772 (Hartree/Particle)
 Thermal correction to Energy=                    0.027132
 Thermal correction to Enthalpy=                  0.028076
 Thermal correction to Gibbs Free Energy=         0.004882
 Sum of electronic and zero-point Energies=           -100.775942
 Sum of electronic and thermal Energies=              -100.773582
 Sum of electronic and thermal Enthalpies=            -100.772637
 Sum of electronic and thermal Free Energies=         -100.795832

                     E (Thermal)             CV                S
                      KCal/Mol        Cal/Mol-Kelvin    Cal/Mol-Kelvin
 Total                   17.026              4.968             48.817
 Electronic               0.000              0.000              1.377
 Translational            0.889              2.981             35.068
 Rotational               0.592              1.987             12.371
 Vibrational             15.544              0.000              0.000

 Normal termination of Gaussian 16 at Fri Aug 22 15:44:54 2025.
