 Gaussian 16, Revision C.01,
 Gaussian 16:  ES64L-G16RevC.01  3-Jul-2019

 -----------------------------------------
 # sp b3lyp/6-311g** Force nosymm scf=(qc)
 -----------------------------------------

 -------------------
 Title Card Required
 -------------------
 Symbolic Z-matrix:
 Charge =  0 Multiplicity = 2

                          Input orientation:
 ---------------------------------------------------------------------
 Center     Atomic      Atomic             Coordinates (Angstroms)
 Number     Number       Type             X           Y           Z
 ---------------------------------------------------------------------
      1          1           0        0.000000    0.000000    0.000000
      2          1           0       -1.200000    0.000000    0.000000
      3          9           0        3.900000    0.000000    0.000000
 ---------------------------------------------------------------------

 SCF Done:  E(UB3LYP) =  -100.871560033     a.u. after  125 cycles

 Alpha  occ. eigenvalues --  -24.76224  -1.22123  -0.55326  -0.46502  -0.46482
 Alpha  occ. eigenvalues --   -0.36341
 Alpha virt. eigenvalues --   -0.04093   0.22843   0.34293   0.86043   0.90921
 Alpha virt. eigenvalues --    0.91416   1.00923   1.12900   1.12902   1.22153
 Alpha virt. eigenvalues --    1.54400   1.54402   2.07232   2.31573   2.54330

  Beta  occ. eigenvalues --  -24.73069  -1.13049  -0.43339  -0.43319  -0.36340
  Beta virt. eigenvalues --   -0.25976  -0.04092   0.22846   0.34306   0.92421
  Beta virt. eigenvalues --    0.92909   0.95510   1.05071   1.12900   1.12902
  Beta virt. eigenvalues --    1.22156   1.54400   1.54402   2.07234   2.31574

 Mulliken charges and spin densities:
               1          2
     1  H    0.000936  -0.000068
     2  H   -0.001999  -0.000049
     3  F    0.001063   1.000117
 Sum of Mulliken charges =   0.00000   1.00000

 Dipole moment (field-independent basis, Debye):
    X=              0.0231    Y=             -0.0000    Z=             -0.0000  Tot=              0.0231
 Quadrupole moment (field-independent basis, Debye-Ang):
   XX=             -6.3341   YY=             -7.3301   ZZ=             -6.7923
   XY=             -0.0000   XZ=             -0.0000   YZ=              0.3385

  Exact polarizability:      15.793      -0.000       2.167      -0.000       0.184       2.459
 Approx polarizability:      23.915      -0.000       2.214      -0.000       0.228       2.577

 ******    2 imaginary frequencies (negative Signs) ******

                      1                      2                      3
                      A                      A                      A
 Frequencies --   -453.9729               -54.5171              1471.2089
 Red. masses --      1.0078                 1.1085                 1.0096
 Frc consts  --      0.1224                 0.0019                 1.2875
 IR Inten    --      0.0594                 0.0447                 0.0032

                      4
                      A
 Frequencies --   1473.2084
 Red. masses --      1.0096
 Frc consts  --      1.2910
 IR Inten    --      0.0011

 - Thermochemistry -
 -------------------
 Temperature   298.150 Kelvin.  Pressure   1.00000 Atm.
 Atom     1 has atomic number  1 and mass   1.00783

 Molecular mass:    21.01405 amu.
 Principal axes and moments of inertia in atomic units:
                           1         2         3
     Eigenvalues --     0.00000 134.36997 134.36997
           X            1.00000  -0.00000   0.00000
           Y            0.00000   1.00000   0.00000
           Z            0.00000   0.00000   1.00000
 This molecule is a prolate symmetric top.
 Rotational symmetry number  1.
 Rotational temperature (Kelvin)      0.64459
 Rotational constant (GHZ):          13.431135
    2 imaginary frequencies ignored.
 Zero-point vibrational energy      17611.5 (Joules/Mol)
                                    4.20926 (Kcal/Mol)
 Vibrational temperatures:   2116.74  2119.62
          (Kelvin)

 Zero-point correction=                           0.006708 (Hartree/Particle)
 Thermal correction to Energy=                    0.009079
 Thermal correction to Enthalpy=                  0.010024
 Thermal correction to Gibbs Free Energy=        -0.014044
 Sum of electronic and zero-point Energies=           -100.864852
 Sum of electronic and thermal Energies=              -100.862481
 Sum of electronic and thermal Enthalpies=            -100.861536
 Sum of electronic and thermal Free Energies=         -100.885604

                     E (Thermal)             CV                S
                      KCal/Mol        Cal/Mol-Kelvin    Cal/Mol-Kelvin
 Total                    5.697              5.133             50.654
 Electronic               0.000              0.000              1.377
 Translational            0.889              2.981             35.068
 Rotational               0.592              1.987             14.182
 Vibrational              4.216              0.165              0.026

 Normal termination of Gaussian 16 at Sat Aug 23 01:15:53 2025.
