 Gaussian 16, Revision C.01,
 Gaussian 16:  ES64L-G16RevC.01  3-Jul-2019

 -----------------------------------------
 # sp b3lyp/6-311g** Force nosymm scf=(qc)
 -----------------------------------------

 -------------------
 Title Card Required
 -------------------
 Symbolic Z-matrix:
 Charge =  0 Multiplicity = 2

                          Input orientation:
 ---------------------------------------------------------------------
 Center     Atomic      Atomic             Coordinates (Angstroms)
 Number     Number       Type             X           Y           Z
 ---------------------------------------------------------------------
      1          1           0        0.000000    0.000000    0.000000
      2          1           0       -1.850000    0.000000    0.000000
      3          9           0        3.700000    0.000000    0.000000
 ---------------------------------------------------------------------

 SCF Done:  E(UB3LYP) =  -100.782535708     a.u. after  198 cycles

 Alpha  occ. eigenvalues --  -24.76208  -1.22104  -0.55308  -0.46482  -0.46464
 Alpha  occ. eigenvalues --   -0.32845
 Alpha virt. eigenvalues --   -0.10644   0.26035   0.31858   0.86062   0.90939
 Alpha virt. eigenvalues --    0.91597   1.01041   1.11851   1.24983   1.24984
 Alpha virt. eigenvalues --    1.37854   1.37858   1.58726   2.14424   2.38768

  Beta  occ. eigenvalues --  -24.73054  -1.13032  -0.43326  -0.43301  -0.32823
  Beta virt. eigenvalues --   -0.25958  -0.10699   0.26012   0.31920   0.92441
  Beta virt. eigenvalues --    0.93047   0.95530   1.05158   1.11829   1.24987
  Beta virt. eigenvalues --    1.24991   1.37828   1.37829   1.58741   2.14707

 Mulliken charges and spin densities:
               1          2
     1  H    0.000430  -0.763080
     2  H   -0.001762   0.763124
     3  F    0.001332   0.999956
 Sum of Mulliken charges =   0.00000   1.00000

 Dipole moment (field-independent basis, Debye):
    X=              0.0303    Y=             -0.0000    Z=             -0.0000  Tot=              0.0303
 Quadrupole moment (field-independent basis, Debye-Ang):
   XX=             -6.8000   YY=             -6.8891   ZZ=             -7.7537
   XY=              0.0000   XZ=             -0.0000   YZ=              0.0021

  Exact polarizability:      23.259       0.000       2.476      -0.000       0.001       2.012
 Approx polarizability:      31.282       0.000       2.537      -0.000       0.001       1.954

 ******    2 imaginary frequencies (negative Signs) ******

                      1                      2                      3
                      A                      A                      A
 Frequencies --  -1632.5446               -42.6420               713.0215
 Red. masses --      1.0078                 1.1085                 1.0117
 Frc consts  --      1.5826                 0.0012                 0.3031
 IR Inten    --      0.0083                 0.0721                 0.0012

                      4
                      A
 Frequencies --    713.5056
 Red. masses --      1.0117
 Frc consts  --      0.3035
 IR Inten    --      0.0008

 - Thermochemistry -
 -------------------
 Temperature   298.150 Kelvin.  Pressure   1.00000 Atm.
 Atom     1 has atomic number  1 and mass   1.00783

 Molecular mass:    21.01405 amu.
 Principal axes and moments of inertia in atomic units:
                           1         2         3
     Eigenvalues --     0.00000 145.36021 145.36021
           X            1.00000  -0.00000   0.00000
           Y            0.00000   1.00000   0.00000
           Z            0.00000   0.00000   1.00000
 This molecule is a prolate symmetric top.
 Rotational symmetry number  1.
 Rotational temperature (Kelvin)      0.59586
 Rotational constant (GHZ):          12.415648
    2 imaginary frequencies ignored.
 Zero-point vibrational energy       8532.5 (Joules/Mol)
                                    2.03932 (Kcal/Mol)
 Vibrational temperatures:   1025.88  1026.58
          (Kelvin)

 Zero-point correction=                           0.003250 (Hartree/Particle)
 Thermal correction to Energy=                    0.005825
 Thermal correction to Enthalpy=                  0.006769
 Thermal correction to Gibbs Free Energy=        -0.017636
 Sum of electronic and zero-point Energies=           -100.779286
 Sum of electronic and thermal Energies=              -100.776711
 Sum of electronic and thermal Enthalpies=            -100.775766
 Sum of electronic and thermal Free Energies=         -100.800172

                     E (Thermal)             CV                S
                      KCal/Mol        Cal/Mol-Kelvin    Cal/Mol-Kelvin
 Total                    3.655              6.576             51.365
 Electronic               0.000              0.000              1.377
 Translational            0.889              2.981             35.068
 Rotational               0.592              1.987             14.338
 Vibrational              2.174              1.608              0.582

 Normal termination of Gaussian 16 at Sat Aug 23 00:01:45 2025.
