 Gaussian 16, Revision C.01,
 Gaussian 16:  ES64L-G16RevC.01  3-Jul-2019

 -----------------------------------------
 # sp b3lyp/6-311g** Force nosymm scf=(qc)
 -----------------------------------------

 -------------------
 Title Card Required
 -------------------
 Symbolic Z-matrix:
 Charge =  0 Multiplicity = 2

                          Input orientation:
 ---------------------------------------------------------------------
 Center     Atomic      Atomic             Coordinates (Angstroms)
 Number     Number       Type             X           Y           Z
 ---------------------------------------------------------------------
      1          1           0        0.000000    0.000000    0.000000
      2          1           0       -2.450000    0.000000    0.000000
      3          9           0        1.600000    0.000000    0.000000
 ---------------------------------------------------------------------

 SCF Done:  E(UB3LYP) =  -100.836591429     a.u. after   13 cycles

 Alpha  occ. eigenvalues --  -24.64641  -1.10459  -0.43501  -0.36627  -0.36627
 Alpha  occ. eigenvalues --   -0.35894
 Alpha virt. eigenvalues --   -0.14282   0.23201   0.27450   0.94420   0.94420
 Alpha virt. eigenvalues --    1.00773   1.07670   1.21656   1.21656   1.24892
 Alpha virt. eigenvalues --    1.32709   1.32709   1.75205   2.12527   2.22126

  Beta  occ. eigenvalues --  -24.63668  -1.07846  -0.40988  -0.35693  -0.35693
  Beta virt. eigenvalues --   -0.17730  -0.09065   0.24505   0.34767   0.94129
  Beta virt. eigenvalues --    0.94129   1.02235   1.08252   1.27961   1.27961
  Beta virt. eigenvalues --    1.41117   1.41117   1.42746   1.73349   2.14832

 Mulliken charges and spin densities:
               1          2
     1  H    0.305968  -0.277469
     2  H    0.022973   0.970850
     3  F   -0.328941   0.306619
 Sum of Mulliken charges =   0.00000   1.00000

 Dipole moment (field-independent basis, Debye):
    X=             -2.8388    Y=             -0.0000    Z=             -0.0000  Tot=              2.8388
 Quadrupole moment (field-independent basis, Debye-Ang):
   XX=             -9.4385   YY=             -7.3806   ZZ=             -7.3806
   XY=              0.0000   XZ=              0.0000   YZ=              0.0000

  Exact polarizability:      28.464       0.000       2.162       0.000       0.000       2.162
 Approx polarizability:      41.004       0.000       2.077       0.000      -0.000       2.077

 ******    2 imaginary frequencies (negative Signs) ******

                      1                      2                      3
                      A                      A                      A
 Frequencies --  -1898.3422              -329.1404               886.4963
 Red. masses --      1.0503                 1.0613                 1.0238
 Frc consts  --      2.2300                 0.0677                 0.4741
 IR Inten    --     18.8302                 7.8598                78.6664

                      4
                      A
 Frequencies --    886.4963
 Red. masses --      1.0238
 Frc consts  --      0.4741
 IR Inten    --     78.6664

 - Thermochemistry -
 -------------------
 Temperature   298.150 Kelvin.  Pressure   1.00000 Atm.
 Atom     1 has atomic number  1 and mass   1.00783

 Molecular mass:    21.01405 amu.
 Principal axes and moments of inertia in atomic units:
                           1         2         3
     Eigenvalues --     0.00000  62.73616  62.73616
           X            1.00000  -0.00000   0.00000
           Y            0.00000   1.00000   0.00000
           Z            0.00000   0.00000   1.00000
 This molecule is a prolate symmetric top.
 Rotational symmetry number  1.
 Rotational temperature (Kelvin)      1.38061
 Rotational constant (GHZ):          28.767163
    2 imaginary frequencies ignored.
 Zero-point vibrational energy      10604.9 (Joules/Mol)
                                    2.53462 (Kcal/Mol)
 Vibrational temperatures:   1275.47  1275.47
          (Kelvin)

 Zero-point correction=                           0.004039 (Hartree/Particle)
 Thermal correction to Energy=                    0.006513
 Thermal correction to Enthalpy=                  0.007457
 Thermal correction to Gibbs Free Energy=        -0.016018
 Sum of electronic and zero-point Energies=           -100.832552
 Sum of electronic and thermal Energies=              -100.830078
 Sum of electronic and thermal Enthalpies=            -100.829134
 Sum of electronic and thermal Free Energies=         -100.852610

                     E (Thermal)             CV                S
                      KCal/Mol        Cal/Mol-Kelvin    Cal/Mol-Kelvin
 Total                    4.087              6.006             49.409
 Electronic               0.000              0.000              1.377
 Translational            0.889              2.981             35.068
 Rotational               0.592              1.987             12.669
 Vibrational              2.606              1.037              0.295

 Normal termination of Gaussian 16 at Fri Aug 22 16:31:35 2025.
