 Gaussian 16, Revision C.01,
 Gaussian 16:  ES64L-G16RevC.01  3-Jul-2019

 -----------------------------------------
 # sp b3lyp/6-311g** Force nosymm scf=(qc)
 -----------------------------------------

 -------------------
 Title Card Required
 -------------------
 Symbolic Z-matrix:
 Charge =  0 Multiplicity = 2

                          Input orientation:
 ---------------------------------------------------------------------
 Center     Atomic      Atomic             Coordinates (Angstroms)
 Number     Number       Type             X           Y           Z
 ---------------------------------------------------------------------
      1          1           0        0.000000    0.000000    0.000000
      2          1           0       -2.400000    0.000000    0.000000
      3          9           0        3.450000    0.000000    0.000000
 ---------------------------------------------------------------------

 SCF Done:  E(UB3LYP) =  -100.764292835     a.u. after   28 cycles

 Alpha  occ. eigenvalues --  -24.75382  -1.21345  -0.54504  -0.45763  -0.45763
 Alpha  occ. eigenvalues --   -0.32776
 Alpha virt. eigenvalues --   -0.09934   0.25746   0.33902   0.87773   0.91480
 Alpha virt. eigenvalues --    0.91480   1.01909   1.24925   1.24925   1.26199
 Alpha virt. eigenvalues --    1.40543   1.40543   1.43057   2.15330   2.36162

  Beta  occ. eigenvalues --  -24.72270  -1.12404  -0.42645  -0.42645  -0.33062
  Beta virt. eigenvalues --   -0.25499  -0.09435   0.25582   0.34628   0.92968
  Beta virt. eigenvalues --    0.92968   0.96914   1.05939   1.24578   1.24578
  Beta virt. eigenvalues --    1.25788   1.41313   1.41313   1.43809   2.15955

 Mulliken charges and spin densities:
               1          2
     1  H    0.008769  -0.946182
     2  H    0.003179   0.959623
     3  F   -0.011948   0.986559
 Sum of Mulliken charges =   0.00000   1.00000

 Dipole moment (field-independent basis, Debye):
    X=             -0.2479    Y=              0.0000    Z=              0.0000  Tot=              0.2479
 Quadrupole moment (field-independent basis, Debye-Ang):
   XX=             -7.1032   YY=             -7.6741   ZZ=             -7.6741
   XY=             -0.0000   XZ=              0.0000   YZ=              0.0000

  Exact polarizability:      36.885      -0.000       2.021       0.000      -0.000       2.021
 Approx polarizability:      28.092      -0.000       1.928       0.000       0.000       1.928

 ******    2 imaginary frequencies (negative Signs) ******

                      1                      2                      3
                      A                      A                      A
 Frequencies --   -772.2511              -146.6733               287.4620
 Red. masses --      1.0080                 1.1083                 1.0141
 Frc consts  --      0.3542                 0.0140                 0.0494
 IR Inten    --      7.2325                 7.5873                 0.0471

                      4
                      A
 Frequencies --    287.4620
 Red. masses --      1.0141
 Frc consts  --      0.0494
 IR Inten    --      0.0471

 - Thermochemistry -
 -------------------
 Temperature   298.150 Kelvin.  Pressure   1.00000 Atm.
 Atom     1 has atomic number  1 and mass   1.00783

 Molecular mass:    21.01405 amu.
 Principal axes and moments of inertia in atomic units:
                           1         2         3
     Eigenvalues --     0.00000 151.07550 151.07550
           X            1.00000  -0.00000   0.00000
           Y            0.00000   1.00000   0.00000
           Z            0.00000   0.00000   1.00000
 This molecule is a prolate symmetric top.
 Rotational symmetry number  1.
 Rotational temperature (Kelvin)      0.57332
 Rotational constant (GHZ):          11.945956
    2 imaginary frequencies ignored.
 Zero-point vibrational energy       3438.8 (Joules/Mol)
                                    0.82190 (Kcal/Mol)
 Warning -- explicit consideration of   2 degrees of freedom as
           vibrations may cause significant error
 Vibrational temperatures:    413.59   413.59
          (Kelvin)

 Zero-point correction=                           0.001310 (Hartree/Particle)
 Thermal correction to Energy=                    0.004542
 Thermal correction to Enthalpy=                  0.005487
 Thermal correction to Gibbs Free Energy=        -0.020094
 Sum of electronic and zero-point Energies=           -100.762983
 Sum of electronic and thermal Energies=              -100.759750
 Sum of electronic and thermal Enthalpies=            -100.758806
 Sum of electronic and thermal Free Energies=         -100.784387

                     E (Thermal)             CV                S
                      KCal/Mol        Cal/Mol-Kelvin    Cal/Mol-Kelvin
 Total                    2.850              8.362             53.838
 Electronic               0.000              0.000              1.377
 Translational            0.889              2.981             35.068
 Rotational               0.592              1.987             14.415
 Vibrational              1.369              3.394              2.978
 Vibration     1          0.685              1.697              1.489
 Vibration     2          0.685              1.697              1.489

 Normal termination of Gaussian 16 at Fri Aug 22 21:41:42 2025.
