 Gaussian 16, Revision C.01,
 Gaussian 16:  ES64L-G16RevC.01  3-Jul-2019

 -----------------------------------------
 # sp b3lyp/6-311g** Force nosymm scf=(qc)
 -----------------------------------------

 -------------------
 Title Card Required
 -------------------
 Symbolic Z-matrix:
 Charge =  0 Multiplicity = 2

                          Input orientation:
 ---------------------------------------------------------------------
 Center     Atomic      Atomic             Coordinates (Angstroms)
 Number     Number       Type             X           Y           Z
 ---------------------------------------------------------------------
      1          1           0        0.000000    0.000000    0.000000
      2          1           0       -1.100000    0.000000    0.000000
      3          9           0        1.250000    0.000000    0.000000
 ---------------------------------------------------------------------

 SCF Done:  E(UB3LYP) =  -100.937248914     a.u. after    8 cycles

 Alpha  occ. eigenvalues --  -24.65537  -1.14027  -0.53468  -0.38596  -0.38596
 Alpha  occ. eigenvalues --   -0.38283
 Alpha virt. eigenvalues --    0.05440   0.19360   0.33839   0.90600   0.90600
 Alpha virt. eigenvalues --    0.99480   1.08509   1.08509   1.25538   1.57113
 Alpha virt. eigenvalues --    1.57113   1.59991   2.18156   2.31437   2.47519

  Beta  occ. eigenvalues --  -24.64109  -1.10316  -0.46658  -0.37262  -0.37262
  Beta virt. eigenvalues --   -0.21485   0.08269   0.21769   0.37303   0.91544
  Beta virt. eigenvalues --    0.91544   1.02712   1.13748   1.13748   1.30598
  Beta virt. eigenvalues --    1.60373   1.60373   1.63631   2.27859   2.31225

 Mulliken charges and spin densities:
               1          2
     1  H    0.257438  -0.080372
     2  H    0.049988   0.662474
     3  F   -0.307425   0.417897
 Sum of Mulliken charges =   0.00000   1.00000

 Dipole moment (field-independent basis, Debye):
    X=             -2.2885    Y=             -0.0000    Z=              0.0000  Tot=              2.2885
 Quadrupole moment (field-independent basis, Debye-Ang):
   XX=             -7.7310   YY=             -6.9069   ZZ=             -6.9069
   XY=             -0.0000   XZ=              0.0000   YZ=              0.0000

  Exact polarizability:      23.247       0.000       2.489      -0.000      -0.000       2.489
 Approx polarizability:      32.040      -0.000       2.479      -0.000      -0.000       2.479

 ******    1 imaginary frequencies (negative Signs) ******

                      1                      2                      3
                      A                      A                      A
 Frequencies --  -2431.3566               931.8605              1091.8032
 Red. masses --      1.0259                 1.0875                 1.0165
 Frc consts  --      3.5730                 0.5564                 0.7139
 IR Inten    --    312.3205                54.6078                27.3911

                      4
                      A
 Frequencies --   1091.8032
 Red. masses --      1.0165
 Frc consts  --      0.7139
 IR Inten    --     27.3911

 - Thermochemistry -
 -------------------
 Temperature   298.150 Kelvin.  Pressure   1.00000 Atm.
 Atom     1 has atomic number  1 and mass   1.00783

 Molecular mass:    21.01405 amu.
 Principal axes and moments of inertia in atomic units:
                           1         2         3
     Eigenvalues --     0.00000  23.26199  23.26199
           X            1.00000  -0.00000   0.00000
           Y            0.00000   1.00000   0.00000
           Z            0.00000   0.00000   1.00000
 This molecule is a prolate symmetric top.
 Rotational symmetry number  1.
 Rotational temperature (Kelvin)      3.72341
 Rotational constant (GHZ):          77.583268
    1 imaginary frequencies ignored.
 Zero-point vibrational energy      18634.6 (Joules/Mol)
                                    4.45378 (Kcal/Mol)
 Vibrational temperatures:   1340.74  1570.86  1570.86
          (Kelvin)

 Zero-point correction=                           0.007098 (Hartree/Particle)
 Thermal correction to Energy=                    0.009557
 Thermal correction to Enthalpy=                  0.010502
 Thermal correction to Gibbs Free Energy=        -0.012017
 Sum of electronic and zero-point Energies=           -100.930151
 Sum of electronic and thermal Energies=              -100.927692
 Sum of electronic and thermal Enthalpies=            -100.926747
 Sum of electronic and thermal Free Energies=         -100.949266

                     E (Thermal)             CV                S
                      KCal/Mol        Cal/Mol-Kelvin    Cal/Mol-Kelvin
 Total                    5.997              6.000             47.394
 Electronic               0.000              0.000              1.377
 Translational            0.889              2.981             35.068
 Rotational               0.592              1.987             10.697
 Vibrational              4.516              1.032              0.252

 Normal termination of Gaussian 16 at Fri Aug 22 16:11:56 2025.
