 Gaussian 16, Revision C.01,
 Gaussian 16:  ES64L-G16RevC.01  3-Jul-2019

 -----------------------------------------
 # sp b3lyp/6-311g** Force nosymm scf=(qc)
 -----------------------------------------

 -------------------
 Title Card Required
 -------------------
 Symbolic Z-matrix:
 Charge =  0 Multiplicity = 2

                          Input orientation:
 ---------------------------------------------------------------------
 Center     Atomic      Atomic             Coordinates (Angstroms)
 Number     Number       Type             X           Y           Z
 ---------------------------------------------------------------------
      1          1           0        0.000000    0.000000    0.000000
      2          1           0       -2.050000    0.000000    0.000000
      3          9           0        3.550000    0.000000    0.000000
 ---------------------------------------------------------------------

 SCF Done:  E(UB3LYP) =  -100.772500521     a.u. after   31 cycles

 Alpha  occ. eigenvalues --  -24.75636  -1.21581  -0.54759  -0.45981  -0.45981
 Alpha  occ. eigenvalues --   -0.33021
 Alpha virt. eigenvalues --   -0.10870   0.25907   0.32560   0.87436   0.91312
 Alpha virt. eigenvalues --    0.91312   1.01603   1.18985   1.24938   1.24938
 Alpha virt. eigenvalues --    1.38209   1.38209   1.49348   2.13229   2.36089

  Beta  occ. eigenvalues --  -24.72510  -1.12598  -0.42848  -0.42848  -0.33112
  Beta virt. eigenvalues --   -0.25654  -0.10619   0.25784   0.32994   0.92805
  Beta virt. eigenvalues --    0.92805   0.96644   1.05667   1.18941   1.24822
  Beta virt. eigenvalues --    1.24822   1.38560   1.38560   1.49606   2.13741

 Mulliken charges and spin densities:
               1          2
     1  H    0.002763  -0.869715
     2  H    0.005038   0.878770
     3  F   -0.007801   0.990945
 Sum of Mulliken charges =   0.00000   1.00000

 Dipole moment (field-independent basis, Debye):
    X=             -0.1908    Y=              0.0000    Z=             -0.0000  Tot=              0.1908
 Quadrupole moment (field-independent basis, Debye-Ang):
   XX=             -6.6171   YY=             -7.7195   ZZ=             -7.7195
   XY=              0.0000   XZ=             -0.0000   YZ=              0.0000

  Exact polarizability:      40.747      -0.000       2.004       0.000      -0.000       2.004
 Approx polarizability:      34.660       0.000       1.935      -0.000      -0.000       1.935

 ******    2 imaginary frequencies (negative Signs) ******

                      1                      2                      3
                      A                      A                      A
 Frequencies --  -1266.1101              -128.8931               507.7822
 Red. masses --      1.0078                 1.1085                 1.0127
 Frc consts  --      0.9519                 0.0109                 0.1538
 IR Inten    --      7.2150                 5.5527                 0.0007

                      4
                      A
 Frequencies --    507.7822
 Red. masses --      1.0127
 Frc consts  --      0.1538
 IR Inten    --      0.0007

 - Thermochemistry -
 -------------------
 Temperature   298.150 Kelvin.  Pressure   1.00000 Atm.
 Atom     1 has atomic number  1 and mass   1.00783

 Molecular mass:    21.01405 amu.
 Principal axes and moments of inertia in atomic units:
                           1         2         3
     Eigenvalues --     0.00000 143.77033 143.77033
           X            1.00000  -0.00000   0.00000
           Y            0.00000   1.00000   0.00000
           Z            0.00000   0.00000   1.00000
 This molecule is a prolate symmetric top.
 Rotational symmetry number  1.
 Rotational temperature (Kelvin)      0.60245
 Rotational constant (GHZ):          12.552946
    2 imaginary frequencies ignored.
 Zero-point vibrational energy       6074.4 (Joules/Mol)
                                    1.45182 (Kcal/Mol)
 Warning -- explicit consideration of   2 degrees of freedom as
           vibrations may cause significant error
 Vibrational temperatures:    730.59   730.59
          (Kelvin)

 Zero-point correction=                           0.002314 (Hartree/Particle)
 Thermal correction to Energy=                    0.005111
 Thermal correction to Enthalpy=                  0.006055
 Thermal correction to Gibbs Free Energy=        -0.018671
 Sum of electronic and zero-point Energies=           -100.770187
 Sum of electronic and thermal Energies=              -100.767390
 Sum of electronic and thermal Enthalpies=            -100.766445
 Sum of electronic and thermal Free Energies=         -100.791171

                     E (Thermal)             CV                S
                      KCal/Mol        Cal/Mol-Kelvin    Cal/Mol-Kelvin
 Total                    3.207              7.434             52.040
 Electronic               0.000              0.000              1.377
 Translational            0.889              2.981             35.068
 Rotational               0.592              1.987             14.317
 Vibrational              1.726              2.466              1.278
 Vibration     1          0.863              1.233              0.639
 Vibration     2          0.863              1.233              0.639

 Normal termination of Gaussian 16 at Fri Aug 22 22:39:04 2025.
