 Gaussian 16, Revision C.01,
 Gaussian 16:  ES64L-G16RevC.01  3-Jul-2019

 -----------------------------------------
 # sp b3lyp/6-311g** Force nosymm scf=(qc)
 -----------------------------------------

 -------------------
 Title Card Required
 -------------------
 Symbolic Z-matrix:
 Charge =  0 Multiplicity = 2

                          Input orientation:
 ---------------------------------------------------------------------
 Center     Atomic      Atomic             Coordinates (Angstroms)
 Number     Number       Type             X           Y           Z
 ---------------------------------------------------------------------
      1          1           0        0.000000    0.000000    0.000000
      2          1           0       -4.000000    0.000000    0.000000
      3          9           0        3.050000    0.000000    0.000000
 ---------------------------------------------------------------------

 SCF Done:  E(UB3LYP) =  -100.760494790     a.u. after   22 cycles

 Alpha  occ. eigenvalues --  -24.74247  -1.20296  -0.53368  -0.44811  -0.44811
 Alpha  occ. eigenvalues --   -0.32428
 Alpha virt. eigenvalues --   -0.07518   0.23924   0.36334   0.89169   0.92178
 Alpha virt. eigenvalues --    0.92178   1.03593   1.25067   1.25067   1.25084
 Alpha virt. eigenvalues --    1.44702   1.44702   1.45443   2.14364   2.41135

  Beta  occ. eigenvalues --  -24.71209  -1.11584  -0.41769  -0.41769  -0.33600
  Beta virt. eigenvalues --   -0.24865  -0.05878   0.23751   0.38144   0.93643
  Beta virt. eigenvalues --    0.93643   0.97916   1.07345   1.23730   1.23730
  Beta virt. eigenvalues --    1.23987   1.46681   1.46784   1.46784   2.14464

 Mulliken charges and spin densities:
               1          2
     1  H    0.033662  -0.962416
     2  H    0.000112   0.999393
     3  F   -0.033773   0.963024
 Sum of Mulliken charges =  -0.00000   1.00000

 Dipole moment (field-independent basis, Debye):
    X=             -0.5311    Y=             -0.0000    Z=              0.0000  Tot=              0.5311
 Quadrupole moment (field-independent basis, Debye-Ang):
   XX=             -8.2480   YY=             -7.6066   ZZ=             -7.6066
   XY=             -0.0000   XZ=              0.0000   YZ=             -0.0000

  Exact polarizability:      30.458      -0.000       2.028       0.000       0.000       2.028
 Approx polarizability:      30.581      -0.000       1.928       0.000       0.000       1.928

 ******    2 imaginary frequencies (negative Signs) ******

                      1                      2                      3
                      A                      A                      A
 Frequencies --   -344.9179               -69.2730               118.5855
 Red. masses --      1.0540                 1.0576                 1.0215
 Frc consts  --      0.0739                 0.0030                 0.0085
 IR Inten    --     36.2271                 0.0761                 1.0906

                      4
                      A
 Frequencies --    118.5855
 Red. masses --      1.0215
 Frc consts  --      0.0085
 IR Inten    --      1.0906

 - Thermochemistry -
 -------------------
 Temperature   298.150 Kelvin.  Pressure   1.00000 Atm.
 Atom     1 has atomic number  1 and mass   1.00783

 Molecular mass:    21.01405 amu.
 Principal axes and moments of inertia in atomic units:
                           1         2         3
     Eigenvalues --     0.00000 194.75187 194.75187
           X            1.00000  -0.00000   0.00000
           Y            0.00000   1.00000   0.00000
           Z            0.00000   0.00000   1.00000
 This molecule is a prolate symmetric top.
 Rotational symmetry number  1.
 Rotational temperature (Kelvin)      0.44474
 Rotational constant (GHZ):           9.266875
    2 imaginary frequencies ignored.
 Zero-point vibrational energy       1418.6 (Joules/Mol)
                                    0.33905 (Kcal/Mol)
 Warning -- explicit consideration of   2 degrees of freedom as
           vibrations may cause significant error
 Vibrational temperatures:    170.62   170.62
          (Kelvin)

 Zero-point correction=                           0.000540 (Hartree/Particle)
 Thermal correction to Energy=                    0.004300
 Thermal correction to Enthalpy=                  0.005244
 Thermal correction to Gibbs Free Energy=        -0.022129
 Sum of electronic and zero-point Energies=           -100.759954
 Sum of electronic and thermal Energies=              -100.756195
 Sum of electronic and thermal Enthalpies=            -100.755251
 Sum of electronic and thermal Free Energies=         -100.782624

                     E (Thermal)             CV                S
                      KCal/Mol        Cal/Mol-Kelvin    Cal/Mol-Kelvin
 Total                    2.698              8.836             57.612
 Electronic               0.000              0.000              1.377
 Translational            0.889              2.981             35.068
 Rotational               0.592              1.987             14.920
 Vibrational              1.217              3.868              6.247
 Vibration     1          0.609              1.934              3.123
 Vibration     2          0.609              1.934              3.123

 Normal termination of Gaussian 16 at Fri Aug 22 19:45:50 2025.
