 Gaussian 16, Revision C.01,
 Gaussian 16:  ES64L-G16RevC.01  3-Jul-2019

 -----------------------------------------
 # sp b3lyp/6-311g** Force nosymm scf=(qc)
 -----------------------------------------

 -------------------
 Title Card Required
 -------------------
 Symbolic Z-matrix:
 Charge =  0 Multiplicity = 2

                          Input orientation:
 ---------------------------------------------------------------------
 Center     Atomic      Atomic             Coordinates (Angstroms)
 Number     Number       Type             X           Y           Z
 ---------------------------------------------------------------------
      1          1           0        0.000000    0.000000    0.000000
      2          1           0       -1.900000    0.000000    0.000000
      3          9           0        3.400000    0.000000    0.000000
 ---------------------------------------------------------------------

 SCF Done:  E(UB3LYP) =  -100.779796935     a.u. after   30 cycles

 Alpha  occ. eigenvalues --  -24.75489  -1.21445  -0.54613  -0.45859  -0.45859
 Alpha  occ. eigenvalues --   -0.33300
 Alpha virt. eigenvalues --   -0.11242   0.25752   0.31531   0.87947   0.91398
 Alpha virt. eigenvalues --    0.91398   1.01993   1.13127   1.24617   1.24617
 Alpha virt. eigenvalues --    1.37256   1.37256   1.55554   2.13412   2.37827

  Beta  occ. eigenvalues --  -24.72376  -1.12499  -0.42739  -0.42739  -0.33334
  Beta virt. eigenvalues --   -0.25606  -0.11007   0.25721   0.31962   0.92887
  Beta virt. eigenvalues --    0.92887   0.97059   1.06021   1.13156   1.24567
  Beta virt. eigenvalues --    1.24567   1.37562   1.37562   1.55798   2.14059

 Mulliken charges and spin densities:
               1          2
     1  H    0.002810  -0.790461
     2  H    0.008148   0.803302
     3  F   -0.010958   0.987159
 Sum of Mulliken charges =   0.00000   1.00000

 Dipole moment (field-independent basis, Debye):
    X=             -0.2640    Y=             -0.0000    Z=              0.0000  Tot=              0.2640
 Quadrupole moment (field-independent basis, Debye-Ang):
   XX=             -6.5520   YY=             -7.7391   ZZ=             -7.7391
   XY=              0.0000   XZ=             -0.0000   YZ=              0.0000

  Exact polarizability:      47.753      -0.000       1.968       0.000      -0.000       1.968
 Approx polarizability:      44.813       0.000       1.945      -0.000      -0.000       1.945

 ******    2 imaginary frequencies (negative Signs) ******

                      1                      2                      3
                      A                      A                      A
 Frequencies --  -1543.5020              -146.6202               651.2611
 Red. masses --      1.0078                 1.1085                 1.0124
 Frc consts  --      1.4147                 0.0140                 0.2530
 IR Inten    --     18.1863                 9.3571                 0.0001

                      4
                      A
 Frequencies --    651.2611
 Red. masses --      1.0124
 Frc consts  --      0.2530
 IR Inten    --      0.0001

 - Thermochemistry -
 -------------------
 Temperature   298.150 Kelvin.  Pressure   1.00000 Atm.
 Atom     1 has atomic number  1 and mass   1.00783

 Molecular mass:    21.01405 amu.
 Principal axes and moments of inertia in atomic units:
                           1         2         3
     Eigenvalues --     0.00000 129.63607 129.63607
           X            1.00000  -0.00000   0.00000
           Y            0.00000   1.00000   0.00000
           Z            0.00000   0.00000   1.00000
 This molecule is a prolate symmetric top.
 Rotational symmetry number  1.
 Rotational temperature (Kelvin)      0.66813
 Rotational constant (GHZ):          13.921597
    2 imaginary frequencies ignored.
 Zero-point vibrational energy       7790.8 (Joules/Mol)
                                    1.86205 (Kcal/Mol)
 Vibrational temperatures:    937.02   937.02
          (Kelvin)

 Zero-point correction=                           0.002967 (Hartree/Particle)
 Thermal correction to Energy=                    0.005596
 Thermal correction to Enthalpy=                  0.006540
 Thermal correction to Gibbs Free Energy=        -0.017832
 Sum of electronic and zero-point Energies=           -100.776830
 Sum of electronic and thermal Energies=              -100.774201
 Sum of electronic and thermal Enthalpies=            -100.773257
 Sum of electronic and thermal Free Energies=         -100.797629

                     E (Thermal)             CV                S
                      KCal/Mol        Cal/Mol-Kelvin    Cal/Mol-Kelvin
 Total                    3.511              6.819             51.295
 Electronic               0.000              0.000              1.377
 Translational            0.889              2.981             35.068
 Rotational               0.592              1.987             14.111
 Vibrational              2.030              1.851              0.739

 Normal termination of Gaussian 16 at Fri Aug 22 21:16:29 2025.
