 Gaussian 16, Revision C.01,
 Gaussian 16:  ES64L-G16RevC.01  3-Jul-2019

 -----------------------------------------
 # sp b3lyp/6-311g** Force nosymm scf=(qc)
 -----------------------------------------

 -------------------
 Title Card Required
 -------------------
 Symbolic Z-matrix:
 Charge =  0 Multiplicity = 2

                          Input orientation:
 ---------------------------------------------------------------------
 Center     Atomic      Atomic             Coordinates (Angstroms)
 Number     Number       Type             X           Y           Z
 ---------------------------------------------------------------------
      1          1           0        0.000000    0.000000    0.000000
      2          1           0       -3.900000    0.000000    0.000000
      3          9           0        3.200000    0.000000    0.000000
 ---------------------------------------------------------------------

 SCF Done:  E(UB3LYP) =  -100.759769390     a.u. after   21 cycles

 Alpha  occ. eigenvalues --  -24.74711  -1.20725  -0.53832  -0.45199  -0.45199
 Alpha  occ. eigenvalues --   -0.32383
 Alpha virt. eigenvalues --   -0.07114   0.23994   0.36588   0.88634   0.91897
 Alpha virt. eigenvalues --    0.91897   1.02859   1.25113   1.25113   1.25142
 Alpha virt. eigenvalues --    1.45309   1.45309   1.45652   2.14490   2.41523

  Beta  occ. eigenvalues --  -24.71641  -1.11915  -0.42124  -0.42124  -0.33281
  Beta virt. eigenvalues --   -0.25123  -0.05964   0.23765   0.38149   0.93372
  Beta virt. eigenvalues --    0.93372   0.97539   1.06718   1.24081   1.24081
  Beta virt. eigenvalues --    1.24165   1.46555   1.46690   1.46690   2.14717

 Mulliken charges and spin densities:
               1          2
     1  H    0.024374  -0.972424
     2  H    0.000113   0.999219
     3  F   -0.024486   0.973205
 Sum of Mulliken charges =  -0.00000   1.00000

 Dipole moment (field-independent basis, Debye):
    X=             -0.4047    Y=              0.0000    Z=              0.0000  Tot=              0.4047
 Quadrupole moment (field-independent basis, Debye-Ang):
   XX=             -7.9446   YY=             -7.6122   ZZ=             -7.6122
   XY=              0.0000   XZ=              0.0000   YZ=             -0.0000

  Exact polarizability:      29.012       0.000       2.030       0.000      -0.000       2.030
 Approx polarizability:      26.784       0.000       1.930       0.000       0.000       1.930

 ******    2 imaginary frequencies (negative Signs) ******

                      1                      2                      3
                      A                      A                      A
 Frequencies --   -294.4886               -76.0245                96.6645
 Red. masses --      1.0508                 1.0608                 1.0205
 Frc consts  --      0.0537                 0.0036                 0.0056
 IR Inten    --     26.4650                 0.1590                 0.5617

                      4
                      A
 Frequencies --     96.6645
 Red. masses --      1.0205
 Frc consts  --      0.0056
 IR Inten    --      0.5617

 - Thermochemistry -
 -------------------
 Temperature   298.150 Kelvin.  Pressure   1.00000 Atm.
 Atom     1 has atomic number  1 and mass   1.00783

 Molecular mass:    21.01405 amu.
 Principal axes and moments of inertia in atomic units:
                           1         2         3
     Eigenvalues --     0.00000 199.96800 199.96800
           X            1.00000  -0.00000   0.00000
           Y            0.00000   1.00000   0.00000
           Z            0.00000   0.00000   1.00000
 This molecule is a prolate symmetric top.
 Rotational symmetry number  1.
 Rotational temperature (Kelvin)      0.43314
 Rotational constant (GHZ):           9.025150
    2 imaginary frequencies ignored.
 Zero-point vibrational energy       1156.4 (Joules/Mol)
                                    0.27638 (Kcal/Mol)
 Warning -- explicit consideration of   2 degrees of freedom as
           vibrations may cause significant error
 Vibrational temperatures:    139.08   139.08
          (Kelvin)

 Zero-point correction=                           0.000440 (Hartree/Particle)
 Thermal correction to Energy=                    0.004283
 Thermal correction to Enthalpy=                  0.005227
 Thermal correction to Gibbs Free Energy=        -0.022548
 Sum of electronic and zero-point Energies=           -100.759329
 Sum of electronic and thermal Energies=              -100.755486
 Sum of electronic and thermal Enthalpies=            -100.754542
 Sum of electronic and thermal Free Energies=         -100.782318

                     E (Thermal)             CV                S
                      KCal/Mol        Cal/Mol-Kelvin    Cal/Mol-Kelvin
 Total                    2.688              8.871             58.459
 Electronic               0.000              0.000              1.377
 Translational            0.889              2.981             35.068
 Rotational               0.592              1.987             14.972
 Vibrational              1.206              3.903              7.041
 Vibration     1          0.603              1.952              3.520
 Vibration     2          0.603              1.952              3.520

 Normal termination of Gaussian 16 at Fri Aug 22 20:25:20 2025.
