 Gaussian 16, Revision C.01,
 Gaussian 16:  ES64L-G16RevC.01  3-Jul-2019

 -----------------------------------------
 # sp b3lyp/6-311g** Force nosymm scf=(qc)
 -----------------------------------------

 -------------------
 Title Card Required
 -------------------
 Symbolic Z-matrix:
 Charge =  0 Multiplicity = 2

                          Input orientation:
 ---------------------------------------------------------------------
 Center     Atomic      Atomic             Coordinates (Angstroms)
 Number     Number       Type             X           Y           Z
 ---------------------------------------------------------------------
      1          1           0        0.000000    0.000000    0.000000
      2          1           0       -2.600000    0.000000    0.000000
      3          9           0        0.850000    0.000000    0.000000
 ---------------------------------------------------------------------

 SCF Done:  E(UB3LYP) =  -100.965733963     a.u. after    6 cycles

 Alpha  occ. eigenvalues --  -24.63789  -1.20843  -0.54985  -0.40074  -0.40074
 Alpha  occ. eigenvalues --   -0.34575
 Alpha virt. eigenvalues --    0.05259   0.25375   0.42526   0.94395   0.94395
 Alpha virt. eigenvalues --    0.97311   1.19681   1.22973   1.22973   1.38203
 Alpha virt. eigenvalues --    1.38420   1.38420   2.03675   2.14023   2.43042

  Beta  occ. eigenvalues --  -24.63778  -1.20815  -0.54943  -0.40065  -0.40065
  Beta virt. eigenvalues --   -0.08579   0.06740   0.37582   0.42911   0.94396
  Beta virt. eigenvalues --    0.94396   0.97374   1.29265   1.38406   1.38406
  Beta virt. eigenvalues --    1.45965   1.45965   1.52642   2.03579   2.40758

 Mulliken charges and spin densities:
               1          2
     1  H    0.280597   0.002989
     2  H    0.004612   0.993358
     3  F   -0.285209   0.003654
 Sum of Mulliken charges =   0.00000   1.00000

 Dipole moment (field-independent basis, Debye):
    X=             -1.8705    Y=              0.0000    Z=             -0.0000  Tot=              1.8705
 Quadrupole moment (field-independent basis, Debye-Ang):
   XX=             -7.5783   YY=             -6.8146   ZZ=             -6.8146
   XY=              0.0000   XZ=             -0.0000   YZ=             -0.0000

  Exact polarizability:       6.618       0.000       2.460      -0.000       0.000       2.460
 Approx polarizability:       7.123      -0.000       2.443       0.000       0.000       2.443

 ******    2 imaginary frequencies (negative Signs) ******

                      1                      2                      3
                      A                      A                      A
 Frequencies --  -1314.6990             -1314.6990                21.6260
 Red. masses --      1.0349                 1.0349                 1.0532
 Frc consts  --      1.0539                 1.0539                 0.0003
 IR Inten    --    176.5630               176.5630                 0.3917

                      4
                      A
 Frequencies --   5307.9239
 Red. masses --      1.0584
 Frc consts  --     17.5685
 IR Inten    --    123.8432

 - Thermochemistry -
 -------------------
 Temperature   298.150 Kelvin.  Pressure   1.00000 Atm.
 Atom     1 has atomic number  1 and mass   1.00783

 Molecular mass:    21.01405 amu.
 Principal axes and moments of inertia in atomic units:
                           1         2         3
     Eigenvalues --     0.00000  42.24598  42.24598
           X            1.00000  -0.00000   0.00000
           Y            0.00000   1.00000   0.00000
           Z            0.00000   0.00000   1.00000
 This molecule is a prolate symmetric top.
 Rotational symmetry number  1.
 Rotational temperature (Kelvin)      2.05023
 Rotational constant (GHZ):          42.719832
    2 imaginary frequencies ignored.
 Zero-point vibrational energy      31877.8 (Joules/Mol)
                                    7.61897 (Kcal/Mol)
 Warning -- explicit consideration of   1 degrees of freedom as
           vibrations may cause significant error
 Vibrational temperatures:     31.11  7636.92
          (Kelvin)

 Zero-point correction=                           0.012142 (Hartree/Particle)
 Thermal correction to Energy=                    0.015398
 Thermal correction to Enthalpy=                  0.016342
 Thermal correction to Gibbs Free Energy=        -0.009699
 Sum of electronic and zero-point Energies=           -100.953592
 Sum of electronic and thermal Energies=              -100.950336
 Sum of electronic and thermal Enthalpies=            -100.949392
 Sum of electronic and thermal Free Energies=         -100.975433

                     E (Thermal)             CV                S
                      KCal/Mol        Cal/Mol-Kelvin    Cal/Mol-Kelvin
 Total                    9.662              6.953             54.807
 Electronic               0.000              0.000              1.377
 Translational            0.889              2.981             35.068
 Rotational               0.592              1.987             11.883
 Vibrational              8.181              1.985              6.479
 Vibration     1          0.593              1.985              6.479

 Normal termination of Gaussian 16 at Fri Aug 22 15:53:51 2025.
