 Gaussian 16, Revision C.01,
 Gaussian 16:  ES64L-G16RevC.01  3-Jul-2019

 -----------------------------------------
 # sp b3lyp/6-311g** Force nosymm scf=(qc)
 -----------------------------------------

 -------------------
 Title Card Required
 -------------------
 Symbolic Z-matrix:
 Charge =  0 Multiplicity = 2

                          Input orientation:
 ---------------------------------------------------------------------
 Center     Atomic      Atomic             Coordinates (Angstroms)
 Number     Number       Type             X           Y           Z
 ---------------------------------------------------------------------
      1          1           0        0.000000    0.000000    0.000000
      2          1           0       -1.000000    0.000000    0.000000
      3          9           0        1.950000    0.000000    0.000000
 ---------------------------------------------------------------------

 SCF Done:  E(UB3LYP) =  -100.911280048     a.u. after    8 cycles

 Alpha  occ. eigenvalues --  -24.73250  -1.19484  -0.53220  -0.44079  -0.44079
 Alpha  occ. eigenvalues --   -0.41137
 Alpha virt. eigenvalues --    0.00874   0.21080   0.37446   0.91111   0.91268
 Alpha virt. eigenvalues --    0.91268   1.07322   1.07322   1.10168   1.51239
 Alpha virt. eigenvalues --    1.63771   1.63771   2.20662   2.33548   2.60229

  Beta  occ. eigenvalues --  -24.70366  -1.11311  -0.41213  -0.41213  -0.41203
  Beta virt. eigenvalues --   -0.25134   0.02204   0.21840   0.38038   0.92540
  Beta virt. eigenvalues --    0.92540   0.98571   1.08441   1.08441   1.13094
  Beta virt. eigenvalues --    1.53682   1.64500   1.64500   2.22054   2.34740

 Mulliken charges and spin densities:
               1          2
     1  H    0.031473  -0.060916
     2  H    0.042555   0.158016
     3  F   -0.074028   0.902900
 Sum of Mulliken charges =   0.00000   1.00000

 Dipole moment (field-independent basis, Debye):
    X=             -0.8977    Y=              0.0000    Z=              0.0000  Tot=              0.8977
 Quadrupole moment (field-independent basis, Debye-Ang):
   XX=             -6.5740   YY=             -7.1879   ZZ=             -7.1879
   XY=              0.0000   XZ=              0.0000   YZ=             -0.0000

  Exact polarizability:      30.572       0.000       2.182      -0.000      -0.000       2.182
 Approx polarizability:      39.813       0.000       2.204      -0.000      -0.000       2.204

 ******    1 imaginary frequencies (negative Signs) ******

                      1                      2                      3
                      A                      A                      A
 Frequencies --   -512.9509              1435.8357              1435.8357
 Red. masses --      1.1036                 1.0119                 1.0119
 Frc consts  --      0.1711                 1.2291                 1.2291
 IR Inten    --    176.1850                 0.0002                 0.0002

                      4
                      A
 Frequencies --   1473.4830
 Red. masses --      1.0119
 Frc consts  --      1.2944
 IR Inten    --    540.8876

 - Thermochemistry -
 -------------------
 Temperature   298.150 Kelvin.  Pressure   1.00000 Atm.
 Atom     1 has atomic number  1 and mass   1.00783

 Molecular mass:    21.01405 amu.
 Principal axes and moments of inertia in atomic units:
                           1         2         3
     Eigenvalues --     0.00000  40.86131  40.86131
           X            1.00000  -0.00000   0.00000
           Y            0.00000   1.00000   0.00000
           Z            0.00000   0.00000   1.00000
 This molecule is a prolate symmetric top.
 Rotational symmetry number  1.
 Rotational temperature (Kelvin)      2.11970
 Rotational constant (GHZ):          44.167483
    1 imaginary frequencies ignored.
 Zero-point vibrational energy      25989.8 (Joules/Mol)
                                    6.21171 (Kcal/Mol)
 Vibrational temperatures:   2065.85  2065.85  2120.01
          (Kelvin)

 Zero-point correction=                           0.009899 (Hartree/Particle)
 Thermal correction to Energy=                    0.012278
 Thermal correction to Enthalpy=                  0.013222
 Thermal correction to Gibbs Free Energy=        -0.009730
 Sum of electronic and zero-point Energies=           -100.901381
 Sum of electronic and thermal Energies=              -100.899002
 Sum of electronic and thermal Enthalpies=            -100.898058
 Sum of electronic and thermal Free Energies=         -100.921010

                     E (Thermal)             CV                S
                      KCal/Mol        Cal/Mol-Kelvin    Cal/Mol-Kelvin
 Total                    7.704              5.237             48.306
 Electronic               0.000              0.000              1.377
 Translational            0.889              2.981             35.068
 Rotational               0.592              1.987             11.817
 Vibrational              6.223              0.269              0.044

 Normal termination of Gaussian 16 at Fri Aug 22 16:52:21 2025.
