 Gaussian 16, Revision C.01,
 Gaussian 16:  ES64L-G16RevC.01  3-Jul-2019

 -----------------------------------------
 # sp b3lyp/6-311g** Force nosymm scf=(qc)
 -----------------------------------------

 -------------------
 Title Card Required
 -------------------
 Symbolic Z-matrix:
 Charge =  0 Multiplicity = 2

                          Input orientation:
 ---------------------------------------------------------------------
 Center     Atomic      Atomic             Coordinates (Angstroms)
 Number     Number       Type             X           Y           Z
 ---------------------------------------------------------------------
      1          1           0        0.000000    0.000000    0.000000
      2          1           0       -1.050000    0.000000    0.000000
      3          9           0        0.750000    0.000000    0.000000
 ---------------------------------------------------------------------

 SCF Done:  E(UB3LYP) =  -100.893362315     a.u. after    6 cycles

 Alpha  occ. eigenvalues --  -24.64511  -1.27405  -0.61765  -0.42276  -0.42276
 Alpha  occ. eigenvalues --   -0.35059
 Alpha virt. eigenvalues --    0.15700   0.19315   0.61588   0.90283   0.90283
 Alpha virt. eigenvalues --    0.94381   1.09137   1.09137   1.45881   1.63068
 Alpha virt. eigenvalues --    1.63068   1.76124   2.01841   2.35762   3.52347

  Beta  occ. eigenvalues --  -24.64060  -1.26138  -0.58969  -0.41897  -0.41897
  Beta virt. eigenvalues --   -0.14328   0.16671   0.24887   0.67180   0.91607
  Beta virt. eigenvalues --    0.91607   0.95326   1.16647   1.16647   1.47129
  Beta virt. eigenvalues --    1.68902   1.68902   1.86675   2.04311   2.51493

 Mulliken charges and spin densities:
               1          2
     1  H    0.256988  -0.001084
     2  H   -0.007551   0.917484
     3  F   -0.249437   0.083600
 Sum of Mulliken charges =   0.00000   1.00000

 Dipole moment (field-independent basis, Debye):
    X=             -1.4692    Y=              0.0000    Z=              0.0000  Tot=              1.4692
 Quadrupole moment (field-independent basis, Debye-Ang):
   XX=             -7.4024   YY=             -6.5365   ZZ=             -6.5365
   XY=              0.0000   XZ=              0.0000   YZ=              0.0000

  Exact polarizability:       8.919      -0.000       2.572      -0.000      -0.000       2.572
 Approx polarizability:       8.990       0.000       2.617      -0.000      -0.000       2.617

 ******    2 imaginary frequencies (negative Signs) ******

                      1                      2                      3
                      A                      A                      A
 Frequencies --  -2806.1733             -2806.1733              1750.8296
 Red. masses --      1.0225                 1.0225                 1.0549
 Frc consts  --      4.7439                 4.7439                 1.9053
 IR Inten    --    113.3345               113.3345                56.4050

                      4
                      A
 Frequencies --   7466.0247
 Red. masses --      1.0566
 Frc consts  --     34.7009
 IR Inten    --     90.7183

 - Thermochemistry -
 -------------------
 Temperature   298.150 Kelvin.  Pressure   1.00000 Atm.
 Atom     1 has atomic number  1 and mass   1.00783

 Molecular mass:    21.01405 amu.
 Principal axes and moments of inertia in atomic units:
                           1         2         3
     Eigenvalues --     0.00000  12.56285  12.56285
           X            1.00000  -0.00000   0.00000
           Y            0.00000   1.00000   0.00000
           Z            0.00000   0.00000   1.00000
 This molecule is a prolate symmetric top.
 Rotational symmetry number  1.
 Rotational temperature (Kelvin)      6.89445
 Rotational constant (GHZ):         143.656949
    2 imaginary frequencies ignored.
 Zero-point vibrational energy      55129.0 (Joules/Mol)
                                   13.17615 (Kcal/Mol)
 Vibrational temperatures:   2519.05 10741.94
          (Kelvin)

 Zero-point correction=                           0.020998 (Hartree/Particle)
 Thermal correction to Energy=                    0.023360
 Thermal correction to Enthalpy=                  0.024304
 Thermal correction to Gibbs Free Energy=         0.002485
 Sum of electronic and zero-point Energies=           -100.872365
 Sum of electronic and thermal Energies=              -100.870003
 Sum of electronic and thermal Enthalpies=            -100.869058
 Sum of electronic and thermal Free Energies=         -100.890878

                     E (Thermal)             CV                S
                      KCal/Mol        Cal/Mol-Kelvin    Cal/Mol-Kelvin
 Total                   14.658              4.998             45.922
 Electronic               0.000              0.000              1.377
 Translational            0.889              2.981             35.068
 Rotational               0.592              1.987              9.473
 Vibrational             13.177              0.030              0.004

 Normal termination of Gaussian 16 at Fri Aug 22 15:48:06 2025.
