 Gaussian 16, Revision C.01,
 Gaussian 16:  ES64L-G16RevC.01  3-Jul-2019

 -----------------------------------------
 # sp b3lyp/6-311g** Force nosymm scf=(qc)
 -----------------------------------------

 -------------------
 Title Card Required
 -------------------
 Symbolic Z-matrix:
 Charge =  0 Multiplicity = 2

                          Input orientation:
 ---------------------------------------------------------------------
 Center     Atomic      Atomic             Coordinates (Angstroms)
 Number     Number       Type             X           Y           Z
 ---------------------------------------------------------------------
      1          1           0        0.000000    0.000000    0.000000
      2          1           0       -2.200000    0.000000    0.000000
      3          9           0        3.650000    0.000000    0.000000
 ---------------------------------------------------------------------

 SCF Done:  E(UB3LYP) =  -100.767759666     a.u. after   30 cycles

 Alpha  occ. eigenvalues --  -24.75708  -1.21648  -0.54832  -0.46040  -0.46040
 Alpha  occ. eigenvalues --   -0.32827
 Alpha virt. eigenvalues --   -0.10373   0.25937   0.33409   0.87160   0.91271
 Alpha virt. eigenvalues --    0.91271   1.01422   1.23530   1.25017   1.25017
 Alpha virt. eigenvalues --    1.39401   1.39401   1.45470   2.14121   2.35466

  Beta  occ. eigenvalues --  -24.72576  -1.12646  -0.42901  -0.42901  -0.32959
  Beta virt. eigenvalues --   -0.25674  -0.10105   0.25779   0.33835   0.92765
  Beta virt. eigenvalues --    0.92765   0.96422   1.05507   1.23406   1.24858
  Beta virt. eigenvalues --    1.24858   1.39788   1.39788   1.45788   2.14523

 Mulliken charges and spin densities:
               1          2
     1  H    0.002968  -0.917641
     2  H    0.003209   0.924746
     3  F   -0.006177   0.992895
 Sum of Mulliken charges =   0.00000   1.00000

 Dipole moment (field-independent basis, Debye):
    X=             -0.1491    Y=              0.0000    Z=              0.0000  Tot=              0.1491
 Quadrupole moment (field-independent basis, Debye-Ang):
   XX=             -6.6954   YY=             -7.6994   ZZ=             -7.6994
   XY=              0.0000   XZ=              0.0000   YZ=              0.0000

  Exact polarizability:      34.487      -0.000       2.008      -0.000       0.000       2.008
 Approx polarizability:      27.334       0.000       1.931       0.000       0.000       1.931

 ******    2 imaginary frequencies (negative Signs) ******

                      1                      2                      3
                      A                      A                      A
 Frequencies --  -1022.6201              -114.2574               396.0816
 Red. masses --      1.0078                 1.1085                 1.0130
 Frc consts  --      0.6210                 0.0085                 0.0936
 IR Inten    --      3.6908                 3.6266                 0.0029

                      4
                      A
 Frequencies --    396.0816
 Red. masses --      1.0130
 Frc consts  --      0.0936
 IR Inten    --      0.0029

 - Thermochemistry -
 -------------------
 Temperature   298.150 Kelvin.  Pressure   1.00000 Atm.
 Atom     1 has atomic number  1 and mass   1.00783

 Molecular mass:    21.01405 amu.
 Principal axes and moments of inertia in atomic units:
                           1         2         3
     Eigenvalues --     0.00000 155.53709 155.53709
           X            1.00000  -0.00000   0.00000
           Y            0.00000   1.00000   0.00000
           Z            0.00000   0.00000   1.00000
 This molecule is a prolate symmetric top.
 Rotational symmetry number  1.
 Rotational temperature (Kelvin)      0.55687
 Rotational constant (GHZ):          11.603285
    2 imaginary frequencies ignored.
 Zero-point vibrational energy       4738.2 (Joules/Mol)
                                    1.13245 (Kcal/Mol)
 Warning -- explicit consideration of   2 degrees of freedom as
           vibrations may cause significant error
 Vibrational temperatures:    569.87   569.87
          (Kelvin)

 Zero-point correction=                           0.001805 (Hartree/Particle)
 Thermal correction to Energy=                    0.004792
 Thermal correction to Enthalpy=                  0.005736
 Thermal correction to Gibbs Free Energy=        -0.019386
 Sum of electronic and zero-point Energies=           -100.765955
 Sum of electronic and thermal Energies=              -100.762968
 Sum of electronic and thermal Enthalpies=            -100.762024
 Sum of electronic and thermal Free Energies=         -100.787145

                     E (Thermal)             CV                S
                      KCal/Mol        Cal/Mol-Kelvin    Cal/Mol-Kelvin
 Total                    3.007              7.925             52.873
 Electronic               0.000              0.000              1.377
 Translational            0.889              2.981             35.068
 Rotational               0.592              1.987             14.473
 Vibrational              1.526              2.957              1.954
 Vibration     1          0.763              1.479              0.977
 Vibration     2          0.763              1.479              0.977

 Normal termination of Gaussian 16 at Fri Aug 22 23:36:05 2025.
