 Gaussian 16, Revision C.01,
 Gaussian 16:  ES64L-G16RevC.01  3-Jul-2019

 -----------------------------------------
 # sp b3lyp/6-311g** Force nosymm scf=(qc)
 -----------------------------------------

 -------------------
 Title Card Required
 -------------------
 Symbolic Z-matrix:
 Charge =  0 Multiplicity = 2

                          Input orientation:
 ---------------------------------------------------------------------
 Center     Atomic      Atomic             Coordinates (Angstroms)
 Number     Number       Type             X           Y           Z
 ---------------------------------------------------------------------
      1          1           0        0.000000    0.000000    0.000000
      2          1           0       -3.000000    0.000000    0.000000
      3          9           0        3.950000    0.000000    0.000000
 ---------------------------------------------------------------------

 SCF Done:  E(UB3LYP) =  -100.759526466     a.u. after   42 cycles

 Alpha  occ. eigenvalues --  -24.75865  -1.21793  -0.54989  -0.46171  -0.46171
 Alpha  occ. eigenvalues --   -0.32344
 Alpha virt. eigenvalues --   -0.07686   0.25062   0.36519   0.86620   0.91179
 Alpha virt. eigenvalues --    0.91179   1.01111   1.25192   1.25192   1.25893
 Alpha virt. eigenvalues --    1.44384   1.44412   1.44412   2.15812   2.39570

  Beta  occ. eigenvalues --  -24.72720  -1.12752  -0.43019  -0.43019  -0.32528
  Beta virt. eigenvalues --   -0.25727  -0.07464   0.24906   0.36810   0.92677
  Beta virt. eigenvalues --    0.92677   0.95989   1.05235   1.24992   1.24992
  Beta virt. eigenvalues --    1.25676   1.44715   1.44742   1.44742   2.15840

 Mulliken charges and spin densities:
               1          2
     1  H    0.002500  -0.989230
     2  H    0.000271   0.992337
     3  F   -0.002771   0.996893
 Sum of Mulliken charges =   0.00000   1.00000

 Dipole moment (field-independent basis, Debye):
    X=             -0.0605    Y=              0.0000    Z=             -0.0000  Tot=              0.0605
 Quadrupole moment (field-independent basis, Debye-Ang):
   XX=             -6.8626   YY=             -7.6364   ZZ=             -7.6364
   XY=              0.0000   XZ=             -0.0000   YZ=             -0.0000

  Exact polarizability:      14.176       0.000       2.030      -0.000      -0.000       2.030
 Approx polarizability:      10.633       0.000       1.934      -0.000       0.000       1.934

 ******    2 imaginary frequencies (negative Signs) ******

                      1                      2                      3
                      A                      A                      A
 Frequencies --   -336.1519               -76.6909               119.0058
 Red. masses --      1.0081                 1.1082                 1.0150
 Frc consts  --      0.0671                 0.0038                 0.0085
 IR Inten    --      0.7696                 0.7147                 0.0054

                      4
                      A
 Frequencies --    119.0058
 Red. masses --      1.0150
 Frc consts  --      0.0085
 IR Inten    --      0.0054

 - Thermochemistry -
 -------------------
 Temperature   298.150 Kelvin.  Pressure   1.00000 Atm.
 Atom     1 has atomic number  1 and mass   1.00783

 Molecular mass:    21.01405 amu.
 Principal axes and moments of inertia in atomic units:
                           1         2         3
     Eigenvalues --     0.00000 209.48721 209.48721
           X            1.00000  -0.00000   0.00000
           Y            0.00000   1.00000   0.00000
           Z            0.00000   0.00000   1.00000
 This molecule is a prolate symmetric top.
 Rotational symmetry number  1.
 Rotational temperature (Kelvin)      0.41346
 Rotational constant (GHZ):           8.615042
    2 imaginary frequencies ignored.
 Zero-point vibrational energy       1423.6 (Joules/Mol)
                                    0.34025 (Kcal/Mol)
 Warning -- explicit consideration of   2 degrees of freedom as
           vibrations may cause significant error
 Vibrational temperatures:    171.22   171.22
          (Kelvin)

 Zero-point correction=                           0.000542 (Hartree/Particle)
 Thermal correction to Energy=                    0.004300
 Thermal correction to Enthalpy=                  0.005245
 Thermal correction to Gibbs Free Energy=        -0.022191
 Sum of electronic and zero-point Energies=           -100.758984
 Sum of electronic and thermal Energies=              -100.755226
 Sum of electronic and thermal Enthalpies=            -100.754282
 Sum of electronic and thermal Free Energies=         -100.781717

                     E (Thermal)             CV                S
                      KCal/Mol        Cal/Mol-Kelvin    Cal/Mol-Kelvin
 Total                    2.699              8.835             57.743
 Electronic               0.000              0.000              1.377
 Translational            0.889              2.981             35.068
 Rotational               0.592              1.987             15.065
 Vibrational              1.217              3.867              6.233
 Vibration     1          0.609              1.933              3.116
 Vibration     2          0.609              1.933              3.116

 Normal termination of Gaussian 16 at Sat Aug 23 01:40:44 2025.
