 Gaussian 16, Revision C.01,
 Gaussian 16:  ES64L-G16RevC.01  3-Jul-2019

 -----------------------------------------
 # sp b3lyp/6-311g** Force nosymm scf=(qc)
 -----------------------------------------

 -------------------
 Title Card Required
 -------------------
 Symbolic Z-matrix:
 Charge =  0 Multiplicity = 2

                          Input orientation:
 ---------------------------------------------------------------------
 Center     Atomic      Atomic             Coordinates (Angstroms)
 Number     Number       Type             X           Y           Z
 ---------------------------------------------------------------------
      1          1           0        0.000000    0.000000    0.000000
      2          1           0       -3.100000    0.000000    0.000000
      3          9           0        2.450000    0.000000    0.000000
 ---------------------------------------------------------------------

 SCF Done:  E(UB3LYP) =  -100.769190387     a.u. after   18 cycles

 Alpha  occ. eigenvalues --  -24.71443  -1.17675  -0.50540  -0.42462  -0.42462
 Alpha  occ. eigenvalues --   -0.33183
 Alpha virt. eigenvalues --   -0.10946   0.23847   0.34537   0.89618   0.93770
 Alpha virt. eigenvalues --    0.93770   1.06460   1.24350   1.24350   1.25028
 Alpha virt. eigenvalues --    1.39912   1.39912   1.45031   2.14901   2.34822

  Beta  occ. eigenvalues --  -24.68630  -1.09676  -0.39659  -0.39659  -0.35567
  Beta virt. eigenvalues --   -0.23151  -0.07635   0.24450   0.37028   0.95107
  Beta virt. eigenvalues --    0.95107   0.95629   1.08749   1.21983   1.21983
  Beta virt. eigenvalues --    1.31248   1.44810   1.44869   1.44869   2.13389

 Mulliken charges and spin densities:
               1          2
     1  H    0.095052  -0.882808
     2  H    0.002629   0.994205
     3  F   -0.097681   0.888603
 Sum of Mulliken charges =  -0.00000   1.00000

 Dipole moment (field-independent basis, Debye):
    X=             -1.2541    Y=             -0.0000    Z=             -0.0000  Tot=              1.2541
 Quadrupole moment (field-independent basis, Debye-Ang):
   XX=             -9.2830   YY=             -7.5739   ZZ=             -7.5739
   XY=             -0.0000   XZ=             -0.0000   YZ=              0.0000

  Exact polarizability:      32.976      -0.000       2.024      -0.000       0.000       2.024
 Approx polarizability:      40.630      -0.000       1.920      -0.000       0.000       1.920

 ******    2 imaginary frequencies (negative Signs) ******

                      1                      2                      3
                      A                      A                      A
 Frequencies --   -672.9973              -191.9853               266.5272
 Red. masses --      1.0486                 1.0631                 1.0210
 Frc consts  --      0.2798                 0.0231                 0.0427
 IR Inten    --     81.9049                 1.8655                 8.3440

                      4
                      A
 Frequencies --    266.5272
 Red. masses --      1.0210
 Frc consts  --      0.0427
 IR Inten    --      8.3440

 - Thermochemistry -
 -------------------
 Temperature   298.150 Kelvin.  Pressure   1.00000 Atm.
 Atom     1 has atomic number  1 and mass   1.00783

 Molecular mass:    21.01405 amu.
 Principal axes and moments of inertia in atomic units:
                           1         2         3
     Eigenvalues --     0.00000 121.41467 121.41467
           X            1.00000  -0.00000   0.00000
           Y            0.00000   1.00000   0.00000
           Z            0.00000   0.00000   1.00000
 This molecule is a prolate symmetric top.
 Rotational symmetry number  1.
 Rotational temperature (Kelvin)      0.71337
 Rotational constant (GHZ):          14.864277
    2 imaginary frequencies ignored.
 Zero-point vibrational energy       3188.4 (Joules/Mol)
                                    0.76204 (Kcal/Mol)
 Warning -- explicit consideration of   2 degrees of freedom as
           vibrations may cause significant error
 Vibrational temperatures:    383.47   383.47
          (Kelvin)

 Zero-point correction=                           0.001214 (Hartree/Particle)
 Thermal correction to Energy=                    0.004502
 Thermal correction to Enthalpy=                  0.005446
 Thermal correction to Gibbs Free Energy=        -0.020051
 Sum of electronic and zero-point Energies=           -100.767976
 Sum of electronic and thermal Energies=              -100.764688
 Sum of electronic and thermal Enthalpies=            -100.763744
 Sum of electronic and thermal Free Energies=         -100.789241

                     E (Thermal)             CV                S
                      KCal/Mol        Cal/Mol-Kelvin    Cal/Mol-Kelvin
 Total                    2.825              8.437             53.663
 Electronic               0.000              0.000              1.377
 Translational            0.889              2.981             35.068
 Rotational               0.592              1.987             13.981
 Vibrational              1.344              3.469              3.237
 Vibration     1          0.672              1.735              1.619
 Vibration     2          0.672              1.735              1.619

 Normal termination of Gaussian 16 at Fri Aug 22 17:39:23 2025.
