 Gaussian 16, Revision C.01,
 Gaussian 16:  ES64L-G16RevC.01  3-Jul-2019

 -----------------------------------------
 # sp b3lyp/6-311g** Force nosymm scf=(qc)
 -----------------------------------------

 -------------------
 Title Card Required
 -------------------
 Symbolic Z-matrix:
 Charge =  0 Multiplicity = 2

                          Input orientation:
 ---------------------------------------------------------------------
 Center     Atomic      Atomic             Coordinates (Angstroms)
 Number     Number       Type             X           Y           Z
 ---------------------------------------------------------------------
      1          1           0        0.000000    0.000000    0.000000
      2          1           0       -2.100000    0.000000    0.000000
      3          9           0        2.600000    0.000000    0.000000
 ---------------------------------------------------------------------

 SCF Done:  E(UB3LYP) =  -100.776723843     a.u. after   20 cycles

 Alpha  occ. eigenvalues --  -24.72414  -1.18578  -0.51522  -0.43263  -0.43263
 Alpha  occ. eigenvalues --   -0.34357
 Alpha virt. eigenvalues --   -0.12448   0.25047   0.32293   0.90299   0.93267
 Alpha virt. eigenvalues --    0.93267   1.06059   1.22332   1.23547   1.23547
 Alpha virt. eigenvalues --    1.35994   1.35994   1.45881   2.11917   2.34416

  Beta  occ. eigenvalues --  -24.69516  -1.10311  -0.40370  -0.40370  -0.34861
  Beta virt. eigenvalues --   -0.23870  -0.11187   0.26398   0.32690   0.94669
  Beta virt. eigenvalues --    0.94669   0.97921   1.09326   1.23021   1.23021
  Beta virt. eigenvalues --    1.23834   1.38070   1.38070   1.46922   2.12713

 Mulliken charges and spin densities:
               1          2
     1  H    0.050529  -0.819263
     2  H    0.022230   0.902651
     3  F   -0.072759   0.916612
 Sum of Mulliken charges =  -0.00000   1.00000

 Dipole moment (field-independent basis, Debye):
    X=             -1.1890    Y=             -0.0000    Z=              0.0000  Tot=              1.1890
 Quadrupole moment (field-independent basis, Debye-Ang):
   XX=             -8.1707   YY=             -7.6625   ZZ=             -7.6625
   XY=             -0.0000   XZ=              0.0000   YZ=              0.0000

  Exact polarizability:      57.145       0.000       2.007      -0.000      -0.000       2.007
 Approx polarizability:      58.009      -0.000       1.923      -0.000      -0.000       1.923

 ******    2 imaginary frequencies (negative Signs) ******

                      1                      2                      3
                      A                      A                      A
 Frequencies --  -1223.5080              -357.0243               484.9440
 Red. masses --      1.0093                 1.1068                 1.0156
 Frc consts  --      0.8902                 0.0831                 0.1407
 IR Inten    --     51.2298                45.0907                 1.5163

                      4
                      A
 Frequencies --    484.9440
 Red. masses --      1.0156
 Frc consts  --      0.1407
 IR Inten    --      1.5163

 - Thermochemistry -
 -------------------
 Temperature   298.150 Kelvin.  Pressure   1.00000 Atm.
 Atom     1 has atomic number  1 and mass   1.00783

 Molecular mass:    21.01405 amu.
 Principal axes and moments of inertia in atomic units:
                           1         2         3
     Eigenvalues --     0.00000  94.63317  94.63317
           X            1.00000  -0.00000   0.00000
           Y            0.00000   1.00000   0.00000
           Z            0.00000   0.00000   1.00000
 This molecule is a prolate symmetric top.
 Rotational symmetry number  1.
 Rotational temperature (Kelvin)      0.91526
 Rotational constant (GHZ):          19.070915
    2 imaginary frequencies ignored.
 Zero-point vibrational energy       5801.2 (Joules/Mol)
                                    1.38652 (Kcal/Mol)
 Warning -- explicit consideration of   2 degrees of freedom as
           vibrations may cause significant error
 Vibrational temperatures:    697.73   697.73
          (Kelvin)

 Zero-point correction=                           0.002210 (Hartree/Particle)
 Thermal correction to Energy=                    0.005041
 Thermal correction to Enthalpy=                  0.005985
 Thermal correction to Gibbs Free Energy=        -0.018401
 Sum of electronic and zero-point Energies=           -100.774514
 Sum of electronic and thermal Energies=              -100.771683
 Sum of electronic and thermal Enthalpies=            -100.770739
 Sum of electronic and thermal Free Energies=         -100.795125

                     E (Thermal)             CV                S
                      KCal/Mol        Cal/Mol-Kelvin    Cal/Mol-Kelvin
 Total                    3.163              7.535             51.325
 Electronic               0.000              0.000              1.377
 Translational            0.889              2.981             35.068
 Rotational               0.592              1.987             13.485
 Vibrational              1.682              2.567              1.394
 Vibration     1          0.841              1.283              0.697
 Vibration     2          0.841              1.283              0.697

 Normal termination of Gaussian 16 at Fri Aug 22 18:03:50 2025.
