 Gaussian 16, Revision C.01,
 Gaussian 16:  ES64L-G16RevC.01  3-Jul-2019

 -----------------------------------------
 # sp b3lyp/6-311g** Force nosymm scf=(qc)
 -----------------------------------------

 -------------------
 Title Card Required
 -------------------
 Symbolic Z-matrix:
 Charge =  0 Multiplicity = 2

                          Input orientation:
 ---------------------------------------------------------------------
 Center     Atomic      Atomic             Coordinates (Angstroms)
 Number     Number       Type             X           Y           Z
 ---------------------------------------------------------------------
      1          1           0        0.000000    0.000000    0.000000
      2          1           0       -0.950000    0.000000    0.000000
      3          9           0        0.750000    0.000000    0.000000
 ---------------------------------------------------------------------

 SCF Done:  E(UB3LYP) =  -100.880253530     a.u. after    6 cycles

 Alpha  occ. eigenvalues --  -24.65091  -1.28292  -0.63226  -0.42817  -0.42817
 Alpha  occ. eigenvalues --   -0.34270
 Alpha virt. eigenvalues --    0.16145   0.18874   0.65848   0.88987   0.88987
 Alpha virt. eigenvalues --    0.94070   1.08715   1.08715   1.46138   1.68493
 Alpha virt. eigenvalues --    1.68493   1.78177   2.08822   2.36798   3.70732

  Beta  occ. eigenvalues --  -24.64519  -1.26676  -0.59820  -0.42332  -0.42332
  Beta virt. eigenvalues --   -0.14208   0.17052   0.24059   0.71413   0.90635
  Beta virt. eigenvalues --    0.90635   0.95316   1.15332   1.15332   1.47374
  Beta virt. eigenvalues --    1.74244   1.74244   1.86602   2.13855   2.49999

 Mulliken charges and spin densities:
               1          2
     1  H    0.258781  -0.008424
     2  H   -0.021983   0.902203
     3  F   -0.236798   0.106221
 Sum of Mulliken charges =   0.00000   1.00000

 Dipole moment (field-independent basis, Debye):
    X=             -1.3457    Y=             -0.0000    Z=             -0.0000  Tot=              1.3457
 Quadrupole moment (field-independent basis, Debye-Ang):
   XX=             -7.4497   YY=             -6.5142   ZZ=             -6.5142
   XY=             -0.0000   XZ=             -0.0000   YZ=             -0.0000

  Exact polarizability:       9.095      -0.000       2.565       0.000       0.000       2.565
 Approx polarizability:       9.254       0.000       2.620      -0.000       0.000       2.620

 ******    2 imaginary frequencies (negative Signs) ******

                      1                      2                      3
                      A                      A                      A
 Frequencies --  -2928.9277             -2928.9277              2148.1337
 Red. masses --      1.0210                 1.0210                 1.0566
 Frc consts  --      5.1608                 5.1608                 2.8726
 IR Inten    --    107.7572               107.7572                87.1522

                      4
                      A
 Frequencies --   7463.7596
 Red. masses --      1.0550
 Frc consts  --     34.6256
 IR Inten    --     69.5613

 - Thermochemistry -
 -------------------
 Temperature   298.150 Kelvin.  Pressure   1.00000 Atm.
 Atom     1 has atomic number  1 and mass   1.00783

 Molecular mass:    21.01405 amu.
 Principal axes and moments of inertia in atomic units:
                           1         2         3
     Eigenvalues --     0.00000  11.38950  11.38950
           X            1.00000  -0.00000   0.00000
           Y            0.00000   1.00000   0.00000
           Z            0.00000   0.00000   1.00000
 This molecule is a prolate symmetric top.
 Rotational symmetry number  1.
 Rotational temperature (Kelvin)      7.60471
 Rotational constant (GHZ):         158.456523
    2 imaginary frequencies ignored.
 Zero-point vibrational energy      57491.9 (Joules/Mol)
                                   13.74089 (Kcal/Mol)
 Vibrational temperatures:   3090.69 10738.69
          (Kelvin)

 Zero-point correction=                           0.021898 (Hartree/Particle)
 Thermal correction to Energy=                    0.024258
 Thermal correction to Enthalpy=                  0.025202
 Thermal correction to Gibbs Free Energy=         0.003477
 Sum of electronic and zero-point Energies=           -100.858356
 Sum of electronic and thermal Energies=              -100.855995
 Sum of electronic and thermal Enthalpies=            -100.855051
 Sum of electronic and thermal Free Energies=         -100.876776

                     E (Thermal)             CV                S
                      KCal/Mol        Cal/Mol-Kelvin    Cal/Mol-Kelvin
 Total                   15.222              4.975             45.724
 Electronic               0.000              0.000              1.377
 Translational            0.889              2.981             35.068
 Rotational               0.592              1.987              9.278
 Vibrational             13.741              0.007              0.001

 Normal termination of Gaussian 16 at Fri Aug 22 15:48:01 2025.
