 Gaussian 16, Revision C.01,
 Gaussian 16:  ES64L-G16RevC.01  3-Jul-2019

 -----------------------------------------
 # sp b3lyp/6-311g** Force nosymm scf=(qc)
 -----------------------------------------

 -------------------
 Title Card Required
 -------------------
 Symbolic Z-matrix:
 Charge =  0 Multiplicity = 2

                          Input orientation:
 ---------------------------------------------------------------------
 Center     Atomic      Atomic             Coordinates (Angstroms)
 Number     Number       Type             X           Y           Z
 ---------------------------------------------------------------------
      1          1           0        0.000000    0.000000    0.000000
      2          1           0       -2.100000    0.000000    0.000000
      3          9           0        2.250000    0.000000    0.000000
 ---------------------------------------------------------------------

 SCF Done:  E(UB3LYP) =  -100.785295322     a.u. after   15 cycles

 Alpha  occ. eigenvalues --  -24.70099  -1.16383  -0.49182  -0.41314  -0.41314
 Alpha  occ. eigenvalues --   -0.35297
 Alpha virt. eigenvalues --   -0.13257   0.24504   0.31914   0.88837   0.94425
 Alpha virt. eigenvalues --    0.94425   1.05828   1.22593   1.22593   1.26494
 Alpha virt. eigenvalues --    1.34762   1.34762   1.49841   2.11247   2.31987

  Beta  occ. eigenvalues --  -24.67424  -1.08818  -0.38658  -0.38658  -0.36186
  Beta virt. eigenvalues --   -0.22462  -0.11441   0.26427   0.32491   0.93528
  Beta virt. eigenvalues --    0.95608   0.95608   1.08736   1.22389   1.22389
  Beta virt. eigenvalues --    1.34792   1.37573   1.37573   1.47406   2.11623

 Mulliken charges and spin densities:
               1          2
     1  H    0.097808  -0.750342
     2  H    0.031843   0.907148
     3  F   -0.129650   0.843194
 Sum of Mulliken charges =  -0.00000   1.00000

 Dipole moment (field-independent basis, Debye):
    X=             -1.7900    Y=             -0.0000    Z=              0.0000  Tot=              1.7900
 Quadrupole moment (field-independent basis, Debye-Ang):
   XX=             -8.6518   YY=             -7.6064   ZZ=             -7.6064
   XY=             -0.0000   XZ=              0.0000   YZ=              0.0000

  Exact polarizability:      52.585      -0.000       2.025       0.000      -0.000       2.025
 Approx polarizability:      58.551       0.000       1.933      -0.000      -0.000       1.933

 ******    2 imaginary frequencies (negative Signs) ******

                      1                      2                      3
                      A                      A                      A
 Frequencies --  -1297.1875              -476.1225               529.1923
 Red. masses --      1.0141                 1.1011                 1.0171
 Frc consts  --      1.0054                 0.1471                 0.1678
 IR Inten    --     74.4990                46.9763                 6.2332

                      4
                      A
 Frequencies --    529.1923
 Red. masses --      1.0171
 Frc consts  --      0.1678
 IR Inten    --      6.2332

 - Thermochemistry -
 -------------------
 Temperature   298.150 Kelvin.  Pressure   1.00000 Atm.
 Atom     1 has atomic number  1 and mass   1.00783

 Molecular mass:    21.01405 amu.
 Principal axes and moments of inertia in atomic units:
                           1         2         3
     Eigenvalues --     0.00000  78.80346  78.80346
           X            1.00000  -0.00000   0.00000
           Y            0.00000   1.00000   0.00000
           Z            0.00000   0.00000   1.00000
 This molecule is a prolate symmetric top.
 Rotational symmetry number  1.
 Rotational temperature (Kelvin)      1.09911
 Rotational constant (GHZ):          22.901801
    2 imaginary frequencies ignored.
 Zero-point vibrational energy       6330.5 (Joules/Mol)
                                    1.51304 (Kcal/Mol)
 Warning -- explicit consideration of   2 degrees of freedom as
           vibrations may cause significant error
 Vibrational temperatures:    761.39   761.39
          (Kelvin)

 Zero-point correction=                           0.002411 (Hartree/Particle)
 Thermal correction to Energy=                    0.005178
 Thermal correction to Enthalpy=                  0.006123
 Thermal correction to Gibbs Free Energy=        -0.017988
 Sum of electronic and zero-point Energies=           -100.782884
 Sum of electronic and thermal Energies=              -100.780117
 Sum of electronic and thermal Enthalpies=            -100.779173
 Sum of electronic and thermal Free Energies=         -100.803283

                     E (Thermal)             CV                S
                      KCal/Mol        Cal/Mol-Kelvin    Cal/Mol-Kelvin
 Total                    3.250              7.339             50.745
 Electronic               0.000              0.000              1.377
 Translational            0.889              2.981             35.068
 Rotational               0.592              1.987             13.122
 Vibrational              1.768              2.371              1.178
 Vibration     1          0.884              1.185              0.589
 Vibration     2          0.884              1.185              0.589

 Normal termination of Gaussian 16 at Fri Aug 22 17:16:32 2025.
