 Gaussian 16, Revision C.01,
 Gaussian 16:  ES64L-G16RevC.01  3-Jul-2019

 -----------------------------------------
 # sp b3lyp/6-311g** Force nosymm scf=(qc)
 -----------------------------------------

 -------------------
 Title Card Required
 -------------------
 Symbolic Z-matrix:
 Charge =  0 Multiplicity = 2

                          Input orientation:
 ---------------------------------------------------------------------
 Center     Atomic      Atomic             Coordinates (Angstroms)
 Number     Number       Type             X           Y           Z
 ---------------------------------------------------------------------
      1          1           0        0.000000    0.000000    0.000000
      2          1           0       -1.400000    0.000000    0.000000
      3          9           0        2.800000    0.000000    0.000000
 ---------------------------------------------------------------------

 SCF Done:  E(UB3LYP) =  -100.837226320     a.u. after   62 cycles

 Alpha  occ. eigenvalues --  -24.76191  -1.22067  -0.55234  -0.46547  -0.46446
 Alpha  occ. eigenvalues --   -0.34651
 Alpha virt. eigenvalues --   -0.08222   0.24240   0.31743   0.86866   0.90909
 Alpha virt. eigenvalues --    0.92848   1.05136   1.10913   1.17596   1.17601
 Alpha virt. eigenvalues --    1.44803   1.44808   1.90246   2.25512   2.50812

  Beta  occ. eigenvalues --  -24.73066  -1.13092  -0.43433  -0.43315  -0.34528
  Beta virt. eigenvalues --   -0.26183  -0.08055   0.24370   0.31968   0.92392
  Beta virt. eigenvalues --    0.93577   0.96820   1.08669   1.11518   1.17699
  Beta virt. eigenvalues --    1.17704   1.44898   1.44903   1.90387   2.25684

 Mulliken charges and spin densities:
               1          2
     1  H   -0.000343  -0.033677
     2  H    0.002801   0.044079
     3  F   -0.002458   0.989597
 Sum of Mulliken charges =  -0.00000   1.00000

 Dipole moment (field-independent basis, Debye):
    X=             -0.0872    Y=             -0.0014    Z=              0.0018  Tot=              0.0872
 Quadrupole moment (field-independent basis, Debye-Ang):
   XX=             -6.1555   YY=             -7.4858   ZZ=             -7.3265
   XY=             -0.2438   XZ=              0.3295   YZ=             -0.2604

  Exact polarizability:    -624.861      -3.817       2.151      -1.614      -0.142       2.250
 Approx polarizability:      49.496      -0.060       2.198       0.081      -0.175       2.305

 ******    1 imaginary frequencies (negative Signs) ******

                      1                      2                      3
                      A                      A                      A
 Frequencies --   -400.3758              1267.2823              1299.1833
 Red. masses --      1.0912                 1.0129                 1.0117
 Frc consts  --      0.1031                 0.9584                 1.0061
 IR Inten    --   1333.3233              2626.4548                17.3848

                      4
                      A
 Frequencies --   1828.4876
 Red. masses --      1.0214
 Frc consts  --      2.0119
 IR Inten    -- 104783.3330

 - Thermochemistry -
 -------------------
 Temperature   298.150 Kelvin.  Pressure   1.00000 Atm.
 Atom     1 has atomic number  1 and mass   1.00783

 Molecular mass:    21.01405 amu.
 Principal axes and moments of inertia in atomic units:
                           1         2         3
     Eigenvalues --     0.00000  83.24500  83.24500
           X            1.00000  -0.00000   0.00000
           Y            0.00000   1.00000   0.00000
           Z            0.00000   0.00000   1.00000
 This molecule is a prolate symmetric top.
 Rotational symmetry number  1.
 Rotational temperature (Kelvin)      1.04047
 Rotational constant (GHZ):          21.679875
    1 imaginary frequencies ignored.
 Zero-point vibrational energy      26287.7 (Joules/Mol)
                                    6.28290 (Kcal/Mol)
 Vibrational temperatures:   1823.34  1869.23  2630.79
          (Kelvin)

 Zero-point correction=                           0.010012 (Hartree/Particle)
 Thermal correction to Energy=                    0.012398
 Thermal correction to Enthalpy=                  0.013342
 Thermal correction to Gibbs Free Energy=        -0.010290
 Sum of electronic and zero-point Energies=           -100.827214
 Sum of electronic and thermal Energies=              -100.824828
 Sum of electronic and thermal Enthalpies=            -100.823884
 Sum of electronic and thermal Free Energies=         -100.847516

                     E (Thermal)             CV                S
                      KCal/Mol        Cal/Mol-Kelvin    Cal/Mol-Kelvin
 Total                    7.780              5.304             49.738
 Electronic               0.000              0.000              1.377
 Translational            0.889              2.981             35.068
 Rotational               0.592              1.987             13.231
 Vibrational              6.299              0.336              0.062

 Normal termination of Gaussian 16 at Fri Aug 22 18:42:06 2025.
