 Gaussian 16, Revision C.01,
 Gaussian 16:  ES64L-G16RevC.01  3-Jul-2019

 -----------------------------------------
 # sp b3lyp/6-311g** Force nosymm scf=(qc)
 -----------------------------------------

 -------------------
 Title Card Required
 -------------------
 Symbolic Z-matrix:
 Charge =  0 Multiplicity = 2

                          Input orientation:
 ---------------------------------------------------------------------
 Center     Atomic      Atomic             Coordinates (Angstroms)
 Number     Number       Type             X           Y           Z
 ---------------------------------------------------------------------
      1          1           0        0.000000    0.000000    0.000000
      2          1           0       -1.050000    0.000000    0.000000
      3          9           0        2.350000    0.000000    0.000000
 ---------------------------------------------------------------------

 SCF Done:  E(UB3LYP) =  -100.899741315     a.u. after   14 cycles

 Alpha  occ. eigenvalues --  -24.75093  -1.21092  -0.54387  -0.45547  -0.45547
 Alpha  occ. eigenvalues --   -0.39500
 Alpha virt. eigenvalues --   -0.00945   0.21621   0.38006   0.89226   0.91400
 Alpha virt. eigenvalues --    0.91400   1.08580   1.08580   1.10366   1.35640
 Alpha virt. eigenvalues --    1.61494   1.61494   2.19285   2.34458   2.56022

  Beta  occ. eigenvalues --  -24.72040  -1.12353  -0.42495  -0.42495  -0.39316
  Beta virt. eigenvalues --   -0.25854  -0.00257   0.22010   0.38436   0.92836
  Beta virt. eigenvalues --    0.92836   0.97394   1.08978   1.08978   1.14009
  Beta virt. eigenvalues --    1.36808   1.61795   1.61795   2.19840   2.34873

 Mulliken charges and spin densities:
               1          2
     1  H   -0.002691  -0.031193
     2  H    0.027775   0.067772
     3  F   -0.025084   0.963421
 Sum of Mulliken charges =  -0.00000   1.00000

 Dipole moment (field-independent basis, Debye):
    X=             -0.4332    Y=             -0.0000    Z=             -0.0000  Tot=              0.4332
 Quadrupole moment (field-independent basis, Debye-Ang):
   XX=             -6.0443   YY=             -7.3024   ZZ=             -7.3024
   XY=             -0.0000   XZ=             -0.0000   YZ=              0.0000

  Exact polarizability:      28.531       0.000       1.950       0.000       0.000       1.950
 Approx polarizability:      34.143      -0.000       2.143      -0.000      -0.000       2.143

 ******    1 imaginary frequencies (negative Signs) ******

                      1                      2                      3
                      A                      A                      A
 Frequencies --   -283.3887              1264.6918              1648.8308
 Red. masses --      1.1073                 1.0088                 1.0111
 Frc consts  --      0.0524                 0.9507                 1.6195
 IR Inten    --     43.0538               230.8406                 4.1564

                      4
                      A
 Frequencies --   1648.8343
 Red. masses --      1.0111
 Frc consts  --      1.6196
 IR Inten    --      4.1565

 - Thermochemistry -
 -------------------
 Temperature   298.150 Kelvin.  Pressure   1.00000 Atm.
 Atom     1 has atomic number  1 and mass   1.00783

 Molecular mass:    21.01405 amu.
 Principal axes and moments of inertia in atomic units:
                           1         2         3
     Eigenvalues --     0.00000  55.77325  55.77325
           X            1.00000  -0.00000   0.00000
           Y            0.00000   1.00000   0.00000
           Z            0.00000   0.00000   1.00000
 This molecule is a prolate symmetric top.
 Rotational symmetry number  1.
 Rotational temperature (Kelvin)      1.55297
 Rotational constant (GHZ):          32.358546
    1 imaginary frequencies ignored.
 Zero-point vibrational energy      27289.0 (Joules/Mol)
                                    6.52222 (Kcal/Mol)
 Vibrational temperatures:   1819.61  2372.30  2372.30
          (Kelvin)

 Zero-point correction=                           0.010394 (Hartree/Particle)
 Thermal correction to Energy=                    0.012772
 Thermal correction to Enthalpy=                  0.013717
 Thermal correction to Gibbs Free Energy=        -0.009529
 Sum of electronic and zero-point Energies=           -100.889348
 Sum of electronic and thermal Energies=              -100.886969
 Sum of electronic and thermal Enthalpies=            -100.886025
 Sum of electronic and thermal Free Energies=         -100.909270

                     E (Thermal)             CV                S
                      KCal/Mol        Cal/Mol-Kelvin    Cal/Mol-Kelvin
 Total                    8.015              5.222             48.924
 Electronic               0.000              0.000              1.377
 Translational            0.889              2.981             35.068
 Rotational               0.592              1.987             12.435
 Vibrational              6.534              0.254              0.044

 Normal termination of Gaussian 16 at Fri Aug 22 17:25:21 2025.
