 Gaussian 16, Revision C.01,
 Gaussian 16:  ES64L-G16RevC.01  3-Jul-2019

 -----------------------------------------
 # sp b3lyp/6-311g** Force nosymm scf=(qc)
 -----------------------------------------

 -------------------
 Title Card Required
 -------------------
 Symbolic Z-matrix:
 Charge =  0 Multiplicity = 2

                          Input orientation:
 ---------------------------------------------------------------------
 Center     Atomic      Atomic             Coordinates (Angstroms)
 Number     Number       Type             X           Y           Z
 ---------------------------------------------------------------------
      1          1           0        0.000000    0.000000    0.000000
      2          1           0       -3.350000    0.000000    0.000000
      3          9           0        1.900000    0.000000    0.000000
 ---------------------------------------------------------------------

 SCF Done:  E(UB3LYP) =  -100.795012179     a.u. after   13 cycles

 Alpha  occ. eigenvalues --  -24.67425  -1.13704  -0.46331  -0.39070  -0.39070
 Alpha  occ. eigenvalues --   -0.33706
 Alpha virt. eigenvalues --   -0.14385   0.22111   0.31051   0.90418   0.94875
 Alpha virt. eigenvalues --    0.94875   1.05738   1.23815   1.23815   1.24009
 Alpha virt. eigenvalues --    1.34482   1.34482   1.65282   2.13987   2.27847

  Beta  occ. eigenvalues --  -24.65248  -1.07657  -0.38596  -0.36933  -0.36933
  Beta virt. eigenvalues --   -0.20055  -0.07349   0.22455   0.37636   0.91360
  Beta virt. eigenvalues --    0.95205   0.95205   1.08109   1.22669   1.22669
  Beta virt. eigenvalues --    1.44974   1.45455   1.45455   1.59408   2.12254

 Mulliken charges and spin densities:
               1          2
     1  H    0.220894  -0.681197
     2  H    0.002624   0.996433
     3  F   -0.223517   0.684764
 Sum of Mulliken charges =   0.00000   1.00000

 Dipole moment (field-independent basis, Debye):
    X=             -2.1268    Y=              0.0000    Z=             -0.0000  Tot=              2.1268
 Quadrupole moment (field-independent basis, Debye-Ang):
   XX=            -10.0562   YY=             -7.4682   ZZ=             -7.4682
   XY=             -0.0000   XZ=              0.0000   YZ=             -0.0000

  Exact polarizability:      25.560      -0.000       2.077       0.000      -0.000       2.077
 Approx polarizability:      37.329       0.000       1.964      -0.000       0.000       1.964

 ******    2 imaginary frequencies (negative Signs) ******

                      1                      2                      3
                      A                      A                      A
 Frequencies --  -1310.0016              -142.3836               558.2234
 Red. masses --      1.0569                 1.0546                 1.0260
 Frc consts  --      1.0687                 0.0126                 0.1884
 IR Inten    --    126.9403                 0.5624                44.9984

                      4
                      A
 Frequencies --    558.2234
 Red. masses --      1.0260
 Frc consts  --      0.1884
 IR Inten    --     44.9984

 - Thermochemistry -
 -------------------
 Temperature   298.150 Kelvin.  Pressure   1.00000 Atm.
 Atom     1 has atomic number  1 and mass   1.00783

 Molecular mass:    21.01405 amu.
 Principal axes and moments of inertia in atomic units:
                           1         2         3
     Eigenvalues --     0.00000 103.36600 103.36600
           X            1.00000  -0.00000   0.00000
           Y            0.00000   1.00000   0.00000
           Z            0.00000   0.00000   1.00000
 This molecule is a prolate symmetric top.
 Rotational symmetry number  1.
 Rotational temperature (Kelvin)      0.83793
 Rotational constant (GHZ):          17.459718
    2 imaginary frequencies ignored.
 Zero-point vibrational energy       6677.8 (Joules/Mol)
                                    1.59604 (Kcal/Mol)
 Warning -- explicit consideration of   2 degrees of freedom as
           vibrations may cause significant error
 Vibrational temperatures:    803.16   803.16
          (Kelvin)

 Zero-point correction=                           0.002543 (Hartree/Particle)
 Thermal correction to Energy=                    0.005273
 Thermal correction to Enthalpy=                  0.006217
 Thermal correction to Gibbs Free Energy=        -0.018091
 Sum of electronic and zero-point Energies=           -100.792469
 Sum of electronic and thermal Energies=              -100.789739
 Sum of electronic and thermal Enthalpies=            -100.788795
 Sum of electronic and thermal Free Energies=         -100.813103

                     E (Thermal)             CV                S
                      KCal/Mol        Cal/Mol-Kelvin    Cal/Mol-Kelvin
 Total                    3.309              7.211             51.161
 Electronic               0.000              0.000              1.377
 Translational            0.889              2.981             35.068
 Rotational               0.592              1.987             13.661
 Vibrational              1.828              2.243              1.055
 Vibration     1          0.914              1.122              0.527
 Vibration     2          0.914              1.122              0.527

 Normal termination of Gaussian 16 at Fri Aug 22 16:51:10 2025.
