 Gaussian 16, Revision C.01,
 Gaussian 16:  ES64L-G16RevC.01  3-Jul-2019

 -----------------------------------------
 # sp b3lyp/6-311g** Force nosymm scf=(qc)
 -----------------------------------------

 -------------------
 Title Card Required
 -------------------
 Symbolic Z-matrix:
 Charge =  0 Multiplicity = 2

                          Input orientation:
 ---------------------------------------------------------------------
 Center     Atomic      Atomic             Coordinates (Angstroms)
 Number     Number       Type             X           Y           Z
 ---------------------------------------------------------------------
      1          1           0        0.000000    0.000000    0.000000
      2          1           0       -2.750000    0.000000    0.000000
      3          9           0        0.700000    0.000000    0.000000
 ---------------------------------------------------------------------

 SCF Done:  E(UB3LYP) =  -100.874916402     a.u. after    6 cycles

 Alpha  occ. eigenvalues --  -24.63171  -1.28198  -0.58576  -0.41732  -0.41732
 Alpha  occ. eigenvalues --   -0.34129
 Alpha virt. eigenvalues --    0.07227   0.25568   0.52534   0.93512   0.93512
 Alpha virt. eigenvalues --    0.95758   1.20523   1.23410   1.23410   1.38391
 Alpha virt. eigenvalues --    1.44093   1.44093   1.98190   2.14559   2.86593

  Beta  occ. eigenvalues --  -24.63166  -1.28184  -0.58562  -0.41729  -0.41729
  Beta virt. eigenvalues --   -0.07251   0.08467   0.38622   0.52673   0.93511
  Beta virt. eigenvalues --    0.93511   0.95794   1.30779   1.44091   1.44091
  Beta virt. eigenvalues --    1.48710   1.48710   1.52938   1.98003   2.43741

 Mulliken charges and spin densities:
               1          2
     1  H    0.259631   0.002144
     2  H    0.003014   0.995750
     3  F   -0.262645   0.002106
 Sum of Mulliken charges =   0.00000   1.00000

 Dipole moment (field-independent basis, Debye):
    X=             -1.6223    Y=             -0.0000    Z=              0.0000  Tot=              1.6223
 Quadrupole moment (field-independent basis, Debye-Ang):
   XX=             -7.1670   YY=             -6.6603   ZZ=             -6.6603
   XY=             -0.0000   XZ=              0.0000   YZ=             -0.0000

  Exact polarizability:       4.992      -0.000       2.465       0.000      -0.000       2.465
 Approx polarizability:       5.202       0.000       2.448      -0.000       0.000       2.448

 ******    2 imaginary frequencies (negative Signs) ******

                      1                      2                      3
                      A                      A                      A
 Frequencies --  -3539.3818             -3539.3818                43.2105
 Red. masses --      1.0387                 1.0387                 1.0532
 Frc consts  --      7.6662                 7.6662                 0.0012
 IR Inten    --    205.3828               205.3828                 0.1672

                      4
                      A
 Frequencies --   9072.8537
 Red. masses --      1.0583
 Frc consts  --     51.3279
 IR Inten    --    115.5510

 - Thermochemistry -
 -------------------
 Temperature   298.150 Kelvin.  Pressure   1.00000 Atm.
 Atom     1 has atomic number  1 and mass   1.00783

 Molecular mass:    21.01405 amu.
 Principal axes and moments of inertia in atomic units:
                           1         2         3
     Eigenvalues --     0.00000  41.62799  41.62799
           X            1.00000  -0.00000   0.00000
           Y            0.00000   1.00000   0.00000
           Z            0.00000   0.00000   1.00000
 This molecule is a prolate symmetric top.
 Rotational symmetry number  1.
 Rotational temperature (Kelvin)      2.08067
 Rotational constant (GHZ):          43.354031
    2 imaginary frequencies ignored.
 Zero-point vibrational energy      54526.2 (Joules/Mol)
                                   13.03207 (Kcal/Mol)
 Warning -- explicit consideration of   1 degrees of freedom as
           vibrations may cause significant error
 Vibrational temperatures:     62.17 13053.81
          (Kelvin)

 Zero-point correction=                           0.020768 (Hartree/Particle)
 Thermal correction to Energy=                    0.023978
 Thermal correction to Enthalpy=                  0.024922
 Thermal correction to Gibbs Free Energy=        -0.000453
 Sum of electronic and zero-point Energies=           -100.854148
 Sum of electronic and thermal Energies=              -100.850939
 Sum of electronic and thermal Enthalpies=            -100.849995
 Sum of electronic and thermal Free Energies=         -100.875369

                     E (Thermal)             CV                S
                      KCal/Mol        Cal/Mol-Kelvin    Cal/Mol-Kelvin
 Total                   15.046              6.948             53.405
 Electronic               0.000              0.000              1.377
 Translational            0.889              2.981             35.068
 Rotational               0.592              1.987             11.853
 Vibrational             13.565              1.980              5.106
 Vibration     1          0.595              1.980              5.106

 Normal termination of Gaussian 16 at Fri Aug 22 15:46:55 2025.
