 Gaussian 16, Revision C.01,
 Gaussian 16:  ES64L-G16RevC.01  3-Jul-2019

 -----------------------------------------
 # sp b3lyp/6-311g** Force nosymm scf=(qc)
 -----------------------------------------

 -------------------
 Title Card Required
 -------------------
 Symbolic Z-matrix:
 Charge =  0 Multiplicity = 2

                          Input orientation:
 ---------------------------------------------------------------------
 Center     Atomic      Atomic             Coordinates (Angstroms)
 Number     Number       Type             X           Y           Z
 ---------------------------------------------------------------------
      1          1           0        0.000000    0.000000    0.000000
      2          1           0       -0.650000    0.000000    0.000000
      3          9           0        3.250000    0.000000    0.000000
 ---------------------------------------------------------------------

 SCF Done:  E(UB3LYP) =  -100.926969980     a.u. after   43 cycles

 Alpha  occ. eigenvalues --  -24.76466  -1.22293  -0.55490  -0.46745  -0.46641
 Alpha  occ. eigenvalues --   -0.45239
 Alpha virt. eigenvalues --    0.07750   0.19245   0.50027   0.85949   0.90823
 Alpha virt. eigenvalues --    0.93688   1.03897   1.09564   1.09569   1.59708
 Alpha virt. eigenvalues --    1.85823   1.89367   1.89373   2.37833   3.64748

  Beta  occ. eigenvalues --  -24.73306  -1.13209  -0.45345  -0.43473  -0.43468
  Beta virt. eigenvalues --   -0.26119   0.07785   0.19266   0.50121   0.92323
  Beta virt. eigenvalues --    0.95377   0.95410   1.07704   1.09564   1.09569
  Beta virt. eigenvalues --    1.59721   1.85861   1.89366   1.89372   2.37836

 Mulliken charges and spin densities:
               1          2
     1  H   -0.004709  -0.000955
     2  H   -0.002215   0.000094
     3  F    0.006923   1.000861
 Sum of Mulliken charges =   0.00000   1.00000

 Dipole moment (field-independent basis, Debye):
    X=              0.0697    Y=              0.0000    Z=             -0.0000  Tot=              0.0697
 Quadrupole moment (field-independent basis, Debye-Ang):
   XX=             -6.0873   YY=             -6.3819   ZZ=             -6.3860
   XY=              0.0000   XZ=             -0.0000   YZ=             -0.4319

  Exact polarizability:       7.231       0.000       2.134      -0.000      -0.231       2.132
 Approx polarizability:       7.949       0.000       2.274      -0.000      -0.290       2.271

 ******    2 imaginary frequencies (negative Signs) ******

                      1                      2                      3
                      A                      A                      A
 Frequencies --  -1949.0872             -1948.8984                46.8301
 Red. masses --      1.0087                 1.0087                 1.1085
 Frc consts  --      2.2576                 2.2572                 0.0014
 IR Inten    --      0.0109                 0.0107                 0.1650

                      4
                      A
 Frequencies --   5975.9749
 Red. masses --      1.0078
 Frc consts  --     21.2057
 IR Inten    --      0.1226

 - Thermochemistry -
 -------------------
 Temperature   298.150 Kelvin.  Pressure   1.00000 Atm.
 Atom     1 has atomic number  1 and mass   1.00783

 Molecular mass:    21.01405 amu.
 Principal axes and moments of inertia in atomic units:
                           1         2         3
     Eigenvalues --     0.00000  83.93135  83.93135
           X            1.00000  -0.00000   0.00000
           Y            0.00000   1.00000   0.00000
           Z            0.00000   0.00000   1.00000
 This molecule is a prolate symmetric top.
 Rotational symmetry number  1.
 Rotational temperature (Kelvin)      1.03196
 Rotational constant (GHZ):          21.502587
    2 imaginary frequencies ignored.
 Zero-point vibrational energy      36024.4 (Joules/Mol)
                                    8.61003 (Kcal/Mol)
 Warning -- explicit consideration of   1 degrees of freedom as
           vibrations may cause significant error
 Vibrational temperatures:     67.38  8598.10
          (Kelvin)

 Zero-point correction=                           0.013721 (Hartree/Particle)
 Thermal correction to Energy=                    0.016923
 Thermal correction to Enthalpy=                  0.017867
 Thermal correction to Gibbs Free Energy=        -0.008094
 Sum of electronic and zero-point Energies=           -100.913249
 Sum of electronic and thermal Energies=              -100.910047
 Sum of electronic and thermal Enthalpies=            -100.909103
 Sum of electronic and thermal Free Energies=         -100.935064

                     E (Thermal)             CV                S
                      KCal/Mol        Cal/Mol-Kelvin    Cal/Mol-Kelvin
 Total                   10.619              6.947             54.639
 Electronic               0.000              0.000              1.377
 Translational            0.889              2.981             35.068
 Rotational               0.592              1.987             13.247
 Vibrational              9.138              1.979              4.947
 Vibration     1          0.595              1.979              4.947

 Normal termination of Gaussian 16 at Fri Aug 22 20:26:26 2025.
