 Gaussian 16, Revision C.01,
 Gaussian 16:  ES64L-G16RevC.01  3-Jul-2019

 -----------------------------------------
 # sp b3lyp/6-311g** Force nosymm scf=(qc)
 -----------------------------------------

 -------------------
 Title Card Required
 -------------------
 Symbolic Z-matrix:
 Charge =  0 Multiplicity = 2

                          Input orientation:
 ---------------------------------------------------------------------
 Center     Atomic      Atomic             Coordinates (Angstroms)
 Number     Number       Type             X           Y           Z
 ---------------------------------------------------------------------
      1          1           0        0.000000    0.000000    0.000000
      2          1           0       -2.650000    0.000000    0.000000
      3          9           0        3.700000    0.000000    0.000000
 ---------------------------------------------------------------------

 SCF Done:  E(UB3LYP) =  -100.761368442     a.u. after   37 cycles

 Alpha  occ. eigenvalues --  -24.75694  -1.21634  -0.54818  -0.46027  -0.46027
 Alpha  occ. eigenvalues --   -0.32514
 Alpha virt. eigenvalues --   -0.08848   0.25564   0.35072   0.87056   0.91286
 Alpha virt. eigenvalues --    0.91286   1.01380   1.25086   1.25086   1.26530
 Alpha virt. eigenvalues --    1.42507   1.42507   1.43316   2.16032   2.37830

  Beta  occ. eigenvalues --  -24.72562  -1.12629  -0.42886  -0.42886  -0.32754
  Beta virt. eigenvalues --   -0.25649  -0.08502   0.25368   0.35577   0.92780
  Beta virt. eigenvalues --    0.92780   0.96332   1.05466   1.24811   1.24811
  Beta virt. eigenvalues --    1.26215   1.43032   1.43032   1.43840   2.16274

 Mulliken charges and spin densities:
               1          2
     1  H    0.004941  -0.973577
     2  H    0.001070   0.980328
     3  F   -0.006012   0.993249
 Sum of Mulliken charges =   0.00000   1.00000

 Dipole moment (field-independent basis, Debye):
    X=             -0.1279    Y=              0.0000    Z=              0.0000  Tot=              0.1279
 Quadrupole moment (field-independent basis, Debye-Ang):
   XX=             -6.9556   YY=             -7.6546   ZZ=             -7.6546
   XY=             -0.0000   XZ=              0.0000   YZ=             -0.0000

  Exact polarizability:      24.358      -0.000       2.021       0.000       0.000       2.021
 Approx polarizability:      17.978      -0.000       1.931       0.000       0.000       1.931

 ******    2 imaginary frequencies (negative Signs) ******

                      1                      2                      3
                      A                      A                      A
 Frequencies --   -539.5308              -108.7427               196.1206
 Red. masses --      1.0080                 1.1083                 1.0144
 Frc consts  --      0.1729                 0.0077                 0.0230
 IR Inten    --      2.6242                 2.6352                 0.0195

                      4
                      A
 Frequencies --    196.1206
 Red. masses --      1.0144
 Frc consts  --      0.0230
 IR Inten    --      0.0195

 - Thermochemistry -
 -------------------
 Temperature   298.150 Kelvin.  Pressure   1.00000 Atm.
 Atom     1 has atomic number  1 and mass   1.00783

 Molecular mass:    21.01405 amu.
 Principal axes and moments of inertia in atomic units:
                           1         2         3
     Eigenvalues --     0.00000 176.95772 176.95772
           X            1.00000  -0.00000   0.00000
           Y            0.00000   1.00000   0.00000
           Z            0.00000   0.00000   1.00000
 This molecule is a prolate symmetric top.
 Rotational symmetry number  1.
 Rotational temperature (Kelvin)      0.48946
 Rotational constant (GHZ):          10.198714
    2 imaginary frequencies ignored.
 Zero-point vibrational energy       2346.1 (Joules/Mol)
                                    0.56074 (Kcal/Mol)
 Warning -- explicit consideration of   2 degrees of freedom as
           vibrations may cause significant error
 Vibrational temperatures:    282.17   282.17
          (Kelvin)

 Zero-point correction=                           0.000894 (Hartree/Particle)
 Thermal correction to Energy=                    0.004388
 Thermal correction to Enthalpy=                  0.005332
 Thermal correction to Gibbs Free Energy=        -0.021044
 Sum of electronic and zero-point Energies=           -100.760475
 Sum of electronic and thermal Energies=              -100.756981
 Sum of electronic and thermal Enthalpies=            -100.756037
 Sum of electronic and thermal Free Energies=         -100.782413

                     E (Thermal)             CV                S
                      KCal/Mol        Cal/Mol-Kelvin    Cal/Mol-Kelvin
 Total                    2.753              8.659             55.513
 Electronic               0.000              0.000              1.377
 Translational            0.889              2.981             35.068
 Rotational               0.592              1.987             14.729
 Vibrational              1.272              3.691              4.338
 Vibration     1          0.636              1.845              2.169
 Vibration     2          0.636              1.845              2.169

 Normal termination of Gaussian 16 at Sat Aug 23 00:03:36 2025.
