 Gaussian 16, Revision C.01,
 Gaussian 16:  ES64L-G16RevC.01  3-Jul-2019

 -----------------------------------------
 # sp b3lyp/6-311g** Force nosymm scf=(qc)
 -----------------------------------------

 -------------------
 Title Card Required
 -------------------
 Symbolic Z-matrix:
 Charge =  0 Multiplicity = 2

                          Input orientation:
 ---------------------------------------------------------------------
 Center     Atomic      Atomic             Coordinates (Angstroms)
 Number     Number       Type             X           Y           Z
 ---------------------------------------------------------------------
      1          1           0        0.000000    0.000000    0.000000
      2          1           0       -3.200000    0.000000    0.000000
      3          9           0        1.850000    0.000000    0.000000
 ---------------------------------------------------------------------

 SCF Done:  E(UB3LYP) =  -100.799009237     a.u. after   20 cycles

 Alpha  occ. eigenvalues --  -24.64824  -1.07474  -0.38994  -0.36587  -0.36587
 Alpha  occ. eigenvalues --   -0.33806
 Alpha virt. eigenvalues --   -0.19566   0.20009   0.27439   0.92375   0.95088
 Alpha virt. eigenvalues --    0.95088   1.08134   1.23161   1.23161   1.23622
 Alpha virt. eigenvalues --    1.23622   1.23879   1.62254   2.12397   2.14186

  Beta  occ. eigenvalues --  -24.66857  -1.13094  -0.45688  -0.38576  -0.38576
  Beta virt. eigenvalues --   -0.15147  -0.05530   0.27723   0.38969   0.91728
  Beta virt. eigenvalues --    0.94933   0.94933   1.06007   1.34063   1.34063
  Beta virt. eigenvalues --    1.46552   1.46552   1.46768   1.67792   2.26977

 Mulliken charges and spin densities:
               1          2
     1  H    0.239640   0.642323
     2  H    0.003390   0.996732
     3  F   -0.243030  -0.639055
 Sum of Mulliken charges =   0.00000   1.00000

 Dipole moment (field-independent basis, Debye):
    X=             -2.2538    Y=             -0.0000    Z=             -0.0000  Tot=              2.2538
 Quadrupole moment (field-independent basis, Debye-Ang):
   XX=            -10.1533   YY=             -7.4433   ZZ=             -7.4433
   XY=             -0.0000   XZ=             -0.0000   YZ=              0.0000

  Exact polarizability:      26.107      -0.000       2.087      -0.000      -0.000       2.087
 Approx polarizability:      39.170      -0.000       1.977      -0.000      -0.000       1.977

 ******    1 imaginary frequencies (negative Signs) ******

                      1                      2                      3
                      A                      A                      A
 Frequencies --  -1400.0654                60.5044               601.3313
 Red. masses --      1.0591                 1.0524                 1.0257
 Frc consts  --      1.2232                 0.0023                 0.2185
 IR Inten    --    116.1681                 1.2726                52.4327

                      4
                      A
 Frequencies --    601.3313
 Red. masses --      1.0257
 Frc consts  --      0.2185
 IR Inten    --     52.4327

 - Thermochemistry -
 -------------------
 Temperature   298.150 Kelvin.  Pressure   1.00000 Atm.
 Atom     1 has atomic number  1 and mass   1.00783

 Molecular mass:    21.01405 amu.
 Principal axes and moments of inertia in atomic units:
                           1         2         3
     Eigenvalues --     0.00000  95.88351  95.88351
           X            1.00000  -0.00000   0.00000
           Y            0.00000   1.00000   0.00000
           Z            0.00000   0.00000   1.00000
 This molecule is a prolate symmetric top.
 Rotational symmetry number  1.
 Rotational temperature (Kelvin)      0.90332
 Rotational constant (GHZ):          18.822228
    1 imaginary frequencies ignored.
 Zero-point vibrational energy       7555.4 (Joules/Mol)
                                    1.80579 (Kcal/Mol)
 Warning -- explicit consideration of   3 degrees of freedom as
           vibrations may cause significant error
 Vibrational temperatures:     87.05   865.18   865.18
          (Kelvin)

 Zero-point correction=                           0.002878 (Hartree/Particle)
 Thermal correction to Energy=                    0.006370
 Thermal correction to Enthalpy=                  0.007314
 Thermal correction to Gibbs Free Energy=        -0.018957
 Sum of electronic and zero-point Energies=           -100.796132
 Sum of electronic and thermal Energies=              -100.792640
 Sum of electronic and thermal Enthalpies=            -100.791695
 Sum of electronic and thermal Free Energies=         -100.817967

                     E (Thermal)             CV                S
                      KCal/Mol        Cal/Mol-Kelvin    Cal/Mol-Kelvin
 Total                    3.997              8.999             55.292
 Electronic               0.000              0.000              1.377
 Translational            0.889              2.981             35.068
 Rotational               0.592              1.987             13.512
 Vibrational              2.516              4.031              5.335
 Vibration     1          0.597              1.973              4.441
 Vibration     2          0.960              1.029              0.447
 Vibration     3          0.960              1.029              0.447

 Normal termination of Gaussian 16 at Fri Aug 22 16:47:55 2025.
