 Gaussian 16, Revision C.01,
 Gaussian 16:  ES64L-G16RevC.01  3-Jul-2019

 -----------------------------------------
 # sp b3lyp/6-311g** Force nosymm scf=(qc)
 -----------------------------------------

 -------------------
 Title Card Required
 -------------------
 Symbolic Z-matrix:
 Charge =  0 Multiplicity = 2

                          Input orientation:
 ---------------------------------------------------------------------
 Center     Atomic      Atomic             Coordinates (Angstroms)
 Number     Number       Type             X           Y           Z
 ---------------------------------------------------------------------
      1          1           0        0.000000    0.000000    0.000000
      2          1           0       -3.400000    0.000000    0.000000
      3          9           0        3.900000    0.000000    0.000000
 ---------------------------------------------------------------------

 SCF Done:  E(UB3LYP) =  -100.758791714     a.u. after   37 cycles

 Alpha  occ. eigenvalues --  -24.75827  -1.21758  -0.54952  -0.46139  -0.46139
 Alpha  occ. eigenvalues --   -0.32280
 Alpha virt. eigenvalues --   -0.06855   0.24481   0.37466   0.86692   0.91204
 Alpha virt. eigenvalues --    0.91204   1.01159   1.25228   1.25228   1.25440
 Alpha virt. eigenvalues --    1.45324   1.45563   1.45563   2.15233   2.40914

  Beta  occ. eigenvalues --  -24.72685  -1.12724  -0.42989  -0.42989  -0.32502
  Beta virt. eigenvalues --   -0.25706  -0.06613   0.24314   0.37814   0.92701
  Beta virt. eigenvalues --    0.92701   0.96040   1.05273   1.24985   1.24985
  Beta virt. eigenvalues --    1.25182   1.45702   1.45931   1.45931   2.15246

 Mulliken charges and spin densities:
               1          2
     1  H    0.003274  -0.993488
     2  H    0.000105   0.997246
     3  F   -0.003379   0.996242
 Sum of Mulliken charges =   0.00000   1.00000

 Dipole moment (field-independent basis, Debye):
    X=             -0.0699    Y=              0.0000    Z=              0.0000  Tot=              0.0699
 Quadrupole moment (field-independent basis, Debye-Ang):
   XX=             -6.9534   YY=             -7.6254   ZZ=             -7.6254
   XY=             -0.0000   XZ=             -0.0000   YZ=             -0.0000

  Exact polarizability:      13.277      -0.000       2.033      -0.000       0.000       2.033
 Approx polarizability:       9.854      -0.000       1.936      -0.000       0.000       1.936

 ******    2 imaginary frequencies (negative Signs) ******

                      1                      2                      3
                      A                      A                      A
 Frequencies --   -215.7400               -75.8338                73.3688
 Red. masses --      1.0103                 1.1056                 1.0164
 Frc consts  --      0.0277                 0.0037                 0.0032
 IR Inten    --      1.2654                 0.7299                 0.0100

                      4
                      A
 Frequencies --     73.3689
 Red. masses --      1.0164
 Frc consts  --      0.0032
 IR Inten    --      0.0100

 - Thermochemistry -
 -------------------
 Temperature   298.150 Kelvin.  Pressure   1.00000 Atm.
 Atom     1 has atomic number  1 and mass   1.00783

 Molecular mass:    21.01405 amu.
 Principal axes and moments of inertia in atomic units:
                           1         2         3
     Eigenvalues --     0.00000 224.88027 224.88027
           X            1.00000  -0.00000   0.00000
           Y            0.00000   1.00000   0.00000
           Z            0.00000   0.00000   1.00000
 This molecule is a prolate symmetric top.
 Rotational symmetry number  1.
 Rotational temperature (Kelvin)      0.38516
 Rotational constant (GHZ):           8.025342
    2 imaginary frequencies ignored.
 Zero-point vibrational energy        877.7 (Joules/Mol)
                                    0.20977 (Kcal/Mol)
 Warning -- explicit consideration of   2 degrees of freedom as
           vibrations may cause significant error
 Vibrational temperatures:    105.56   105.56
          (Kelvin)

 Zero-point correction=                           0.000334 (Hartree/Particle)
 Thermal correction to Energy=                    0.004269
 Thermal correction to Enthalpy=                  0.005213
 Thermal correction to Gibbs Free Energy=        -0.023187
 Sum of electronic and zero-point Energies=           -100.758457
 Sum of electronic and thermal Energies=              -100.754523
 Sum of electronic and thermal Enthalpies=            -100.753579
 Sum of electronic and thermal Free Energies=         -100.781979

                     E (Thermal)             CV                S
                      KCal/Mol        Cal/Mol-Kelvin    Cal/Mol-Kelvin
 Total                    2.679              8.901             59.773
 Electronic               0.000              0.000              1.377
 Translational            0.889              2.981             35.068
 Rotational               0.592              1.987             15.205
 Vibrational              1.197              3.933              8.122
 Vibration     1          0.599              1.967              4.061
 Vibration     2          0.599              1.967              4.061

 Normal termination of Gaussian 16 at Sat Aug 23 01:26:59 2025.
