 Gaussian 16, Revision C.01,
 Gaussian 16:  ES64L-G16RevC.01  3-Jul-2019

 -----------------------------------------
 # sp b3lyp/6-311g** Force nosymm scf=(qc)
 -----------------------------------------

 -------------------
 Title Card Required
 -------------------
 Symbolic Z-matrix:
 Charge =  0 Multiplicity = 2

                          Input orientation:
 ---------------------------------------------------------------------
 Center     Atomic      Atomic             Coordinates (Angstroms)
 Number     Number       Type             X           Y           Z
 ---------------------------------------------------------------------
      1          1           0        0.000000    0.000000    0.000000
      2          1           0       -2.300000    0.000000    0.000000
      3          9           0        3.350000    0.000000    0.000000
 ---------------------------------------------------------------------

 SCF Done:  E(UB3LYP) =  -100.766142863     a.u. after   33 cycles

 Alpha  occ. eigenvalues --  -24.75209  -1.21184  -0.54330  -0.45618  -0.45618
 Alpha  occ. eigenvalues --   -0.32931
 Alpha virt. eigenvalues --   -0.10399   0.25758   0.33423   0.88144   0.91587
 Alpha virt. eigenvalues --    0.91587   1.02226   1.24834   1.24834   1.25215
 Alpha virt. eigenvalues --    1.39646   1.39646   1.43593   2.14648   2.35710

  Beta  occ. eigenvalues --  -24.72109  -1.12280  -0.42511  -0.42511  -0.33214
  Beta virt. eigenvalues --   -0.25415  -0.09848   0.25656   0.34192   0.93071
  Beta virt. eigenvalues --    0.93071   0.97222   1.06233   1.24478   1.24478
  Beta virt. eigenvalues --    1.24821   1.40497   1.40497   1.44388   2.15455

 Mulliken charges and spin densities:
               1          2
     1  H    0.010494  -0.928248
     2  H    0.004784   0.945466
     3  F   -0.015278   0.982782
 Sum of Mulliken charges =  -0.00000   1.00000

 Dipole moment (field-independent basis, Debye):
    X=             -0.3150    Y=              0.0000    Z=             -0.0000  Tot=              0.3150
 Quadrupole moment (field-independent basis, Debye-Ang):
   XX=             -7.1586   YY=             -7.6833   ZZ=             -7.6833
   XY=             -0.0000   XZ=             -0.0000   YZ=             -0.0000

  Exact polarizability:      42.433      -0.000       2.016      -0.000      -0.000       2.016
 Approx polarizability:      33.200      -0.000       1.927      -0.000       0.000       1.927

 ******    2 imaginary frequencies (negative Signs) ******

                      1                      2                      3
                      A                      A                      A
 Frequencies --   -893.1711              -166.4635               337.8921
 Red. masses --      1.0080                 1.1083                 1.0140
 Frc consts  --      0.4738                 0.0181                 0.0682
 IR Inten    --     10.4993                10.9386                 0.0630

                      4
                      A
 Frequencies --    337.8921
 Red. masses --      1.0140
 Frc consts  --      0.0682
 IR Inten    --      0.0630

 - Thermochemistry -
 -------------------
 Temperature   298.150 Kelvin.  Pressure   1.00000 Atm.
 Atom     1 has atomic number  1 and mass   1.00783

 Molecular mass:    21.01405 amu.
 Principal axes and moments of inertia in atomic units:
                           1         2         3
     Eigenvalues --     0.00000 141.29806 141.29806
           X            1.00000  -0.00000   0.00000
           Y            0.00000   1.00000   0.00000
           Z            0.00000   0.00000   1.00000
 This molecule is a prolate symmetric top.
 Rotational symmetry number  1.
 Rotational temperature (Kelvin)      0.61299
 Rotational constant (GHZ):          12.772583
    2 imaginary frequencies ignored.
 Zero-point vibrational energy       4042.1 (Joules/Mol)
                                    0.96608 (Kcal/Mol)
 Warning -- explicit consideration of   2 degrees of freedom as
           vibrations may cause significant error
 Vibrational temperatures:    486.15   486.15
          (Kelvin)

 Zero-point correction=                           0.001540 (Hartree/Particle)
 Thermal correction to Energy=                    0.004650
 Thermal correction to Enthalpy=                  0.005594
 Thermal correction to Gibbs Free Energy=        -0.019670
 Sum of electronic and zero-point Energies=           -100.764603
 Sum of electronic and thermal Energies=              -100.761493
 Sum of electronic and thermal Enthalpies=            -100.760549
 Sum of electronic and thermal Free Energies=         -100.785812

                     E (Thermal)             CV                S
                      KCal/Mol        Cal/Mol-Kelvin    Cal/Mol-Kelvin
 Total                    2.918              8.168             53.172
 Electronic               0.000              0.000              1.377
 Translational            0.889              2.981             35.068
 Rotational               0.592              1.987             14.282
 Vibrational              1.437              3.200              2.444
 Vibration     1          0.718              1.600              1.222
 Vibration     2          0.718              1.600              1.222

 Normal termination of Gaussian 16 at Fri Aug 22 21:01:40 2025.
