 Gaussian 16, Revision C.01,
 Gaussian 16:  ES64L-G16RevC.01  3-Jul-2019

 -----------------------------------------
 # sp b3lyp/6-311g** Force nosymm scf=(qc)
 -----------------------------------------

 -------------------
 Title Card Required
 -------------------
 Symbolic Z-matrix:
 Charge =  0 Multiplicity = 2

                          Input orientation:
 ---------------------------------------------------------------------
 Center     Atomic      Atomic             Coordinates (Angstroms)
 Number     Number       Type             X           Y           Z
 ---------------------------------------------------------------------
      1          1           0        0.000000    0.000000    0.000000
      2          1           0       -1.150000    0.000000    0.000000
      3          9           0        0.650000    0.000000    0.000000
 ---------------------------------------------------------------------

 SCF Done:  E(UB3LYP) =  -100.775561973     a.u. after    7 cycles

 Alpha  occ. eigenvalues --  -24.63934  -1.33075  -0.62765  -0.43370  -0.43370
 Alpha  occ. eigenvalues --   -0.35060
 Alpha virt. eigenvalues --    0.15688   0.20262   0.66643   0.90312   0.90312
 Alpha virt. eigenvalues --    0.92324   1.11156   1.11156   1.47351   1.62808
 Alpha virt. eigenvalues --    1.62808   1.75573   1.97751   2.34724   3.74694

  Beta  occ. eigenvalues --  -24.63653  -1.32216  -0.61156  -0.43149  -0.43149
  Beta virt. eigenvalues --   -0.12833   0.16565   0.27184   0.72184   0.91183
  Beta virt. eigenvalues --    0.91183   0.92960   1.20580   1.20580   1.48307
  Beta virt. eigenvalues --    1.68474   1.68474   1.84837   2.02323   2.53334

 Mulliken charges and spin densities:
               1          2
     1  H    0.249886   0.005955
     2  H   -0.006215   0.956701
     3  F   -0.243671   0.037344
 Sum of Mulliken charges =   0.00000   1.00000

 Dipole moment (field-independent basis, Debye):
    X=             -1.3278    Y=             -0.0000    Z=              0.0000  Tot=              1.3278
 Quadrupole moment (field-independent basis, Debye-Ang):
   XX=             -7.1942   YY=             -6.4746   ZZ=             -6.4746
   XY=             -0.0000   XZ=              0.0000   YZ=              0.0000

  Exact polarizability:       7.242      -0.000       2.547       0.000      -0.000       2.547
 Approx polarizability:       7.017       0.000       2.588      -0.000      -0.000       2.588

 ******    2 imaginary frequencies (negative Signs) ******

                      1                      2                      3
                      A                      A                      A
 Frequencies --  -4490.1613             -4490.1613              1596.3653
 Red. masses --      1.0261                 1.0261                 1.0542
 Frc consts  --     12.1887                12.1887                 1.5828
 IR Inten    --    142.2723               142.2723                41.6627

                      4
                      A
 Frequencies --  10847.3234
 Red. masses --      1.0574
 Frc consts  --     73.3040
 IR Inten    --     90.2442

 - Thermochemistry -
 -------------------
 Temperature   298.150 Kelvin.  Pressure   1.00000 Atm.
 Atom     1 has atomic number  1 and mass   1.00783

 Molecular mass:    21.01405 amu.
 Principal axes and moments of inertia in atomic units:
                           1         2         3
     Eigenvalues --     0.00000  12.14530  12.14530
           X            1.00000  -0.00000   0.00000
           Y            0.00000   1.00000   0.00000
           Z            0.00000   0.00000   1.00000
 This molecule is a prolate symmetric top.
 Rotational symmetry number  1.
 Rotational temperature (Kelvin)      7.13148
 Rotational constant (GHZ):         148.595904
    2 imaginary frequencies ignored.
 Zero-point vibrational energy      74429.8 (Joules/Mol)
                                   17.78915 (Kcal/Mol)
 Vibrational temperatures:   2296.81 15606.88
          (Kelvin)

 Zero-point correction=                           0.028349 (Hartree/Particle)
 Thermal correction to Energy=                    0.030713
 Thermal correction to Enthalpy=                  0.031657
 Thermal correction to Gibbs Free Energy=         0.009868
 Sum of electronic and zero-point Energies=           -100.747213
 Sum of electronic and thermal Energies=              -100.744849
 Sum of electronic and thermal Enthalpies=            -100.743905
 Sum of electronic and thermal Free Energies=         -100.765694

                     E (Thermal)             CV                S
                      KCal/Mol        Cal/Mol-Kelvin    Cal/Mol-Kelvin
 Total                   19.272              5.021             45.859
 Electronic               0.000              0.000              1.377
 Translational            0.889              2.981             35.068
 Rotational               0.592              1.987              9.406
 Vibrational             17.791              0.053              0.008

 Normal termination of Gaussian 16 at Fri Aug 22 15:43:29 2025.
