 Gaussian 16, Revision C.01,
 Gaussian 16:  ES64L-G16RevC.01  3-Jul-2019

 -----------------------------------------
 # sp b3lyp/6-311g** Force nosymm scf=(qc)
 -----------------------------------------

 -------------------
 Title Card Required
 -------------------
 Symbolic Z-matrix:
 Charge =  0 Multiplicity = 2

                          Input orientation:
 ---------------------------------------------------------------------
 Center     Atomic      Atomic             Coordinates (Angstroms)
 Number     Number       Type             X           Y           Z
 ---------------------------------------------------------------------
      1          1           0        0.000000    0.000000    0.000000
      2          1           0       -2.350000    0.000000    0.000000
      3          9           0        2.800000    0.000000    0.000000
 ---------------------------------------------------------------------

 SCF Done:  E(UB3LYP) =  -100.768466592     a.u. after   20 cycles

 Alpha  occ. eigenvalues --  -24.73359  -1.19465  -0.52472  -0.44060  -0.44060
 Alpha  occ. eigenvalues --   -0.33522
 Alpha virt. eigenvalues --   -0.11401   0.25278   0.33037   0.90174   0.92715
 Alpha virt. eigenvalues --    0.92715   1.05228   1.24206   1.24206   1.25955
 Alpha virt. eigenvalues --    1.38272   1.38272   1.41831   2.14330   2.35038

  Beta  occ. eigenvalues --  -24.70386  -1.10960  -0.41087  -0.41087  -0.34304
  Beta virt. eigenvalues --   -0.24382  -0.09987   0.25885   0.34142   0.94157
  Beta virt. eigenvalues --    0.94157   0.98597   1.09020   1.23280   1.23280
  Beta virt. eigenvalues --    1.25326   1.40585   1.40585   1.43729   2.15243

 Mulliken charges and spin densities:
               1          2
     1  H    0.041569  -0.895676
     2  H    0.010592   0.954289
     3  F   -0.052160   0.941387
 Sum of Mulliken charges =   0.00000   1.00000

 Dipole moment (field-independent basis, Debye):
    X=             -0.8670    Y=              0.0000    Z=              0.0000  Tot=              0.8670
 Quadrupole moment (field-independent basis, Debye-Ang):
   XX=             -8.1616   YY=             -7.6540   ZZ=             -7.6540
   XY=             -0.0000   XZ=              0.0000   YZ=             -0.0000

  Exact polarizability:      49.374      -0.000       2.010       0.000      -0.000       2.010
 Approx polarizability:      46.880      -0.000       1.920       0.000      -0.000       1.920

 ******    2 imaginary frequencies (negative Signs) ******

                      1                      2                      3
                      A                      A                      A
 Frequencies --   -873.4815              -289.9993               334.4672
 Red. masses --      1.0100                 1.1059                 1.0160
 Frc consts  --      0.4540                 0.0548                 0.0670
 IR Inten    --     30.6717                29.5356                 1.2580

                      4
                      A
 Frequencies --    334.4672
 Red. masses --      1.0160
 Frc consts  --      0.0670
 IR Inten    --      1.2580

 - Thermochemistry -
 -------------------
 Temperature   298.150 Kelvin.  Pressure   1.00000 Atm.
 Atom     1 has atomic number  1 and mass   1.00783

 Molecular mass:    21.01405 amu.
 Principal axes and moments of inertia in atomic units:
                           1         2         3
     Eigenvalues --     0.00000 112.76174 112.76174
           X            1.00000  -0.00000   0.00000
           Y            0.00000   1.00000   0.00000
           Z            0.00000   0.00000   1.00000
 This molecule is a prolate symmetric top.
 Rotational symmetry number  1.
 Rotational temperature (Kelvin)      0.76811
 Rotational constant (GHZ):          16.004907
    2 imaginary frequencies ignored.
 Zero-point vibrational energy       4001.1 (Joules/Mol)
                                    0.95629 (Kcal/Mol)
 Warning -- explicit consideration of   2 degrees of freedom as
           vibrations may cause significant error
 Vibrational temperatures:    481.22   481.22
          (Kelvin)

 Zero-point correction=                           0.001524 (Hartree/Particle)
 Thermal correction to Energy=                    0.004642
 Thermal correction to Enthalpy=                  0.005586
 Thermal correction to Gibbs Free Energy=        -0.019480
 Sum of electronic and zero-point Energies=           -100.766943
 Sum of electronic and thermal Energies=              -100.763825
 Sum of electronic and thermal Enthalpies=            -100.762880
 Sum of electronic and thermal Free Energies=         -100.787946

                     E (Thermal)             CV                S
                      KCal/Mol        Cal/Mol-Kelvin    Cal/Mol-Kelvin
 Total                    2.913              8.181             52.756
 Electronic               0.000              0.000              1.377
 Translational            0.889              2.981             35.068
 Rotational               0.592              1.987             13.834
 Vibrational              1.432              3.213              2.477
 Vibration     1          0.716              1.607              1.238
 Vibration     2          0.716              1.607              1.238

 Normal termination of Gaussian 16 at Fri Aug 22 18:43:24 2025.
