 Gaussian 16, Revision C.01,
 Gaussian 16:  ES64L-G16RevC.01  3-Jul-2019

 -----------------------------------------
 # sp b3lyp/6-311g** Force nosymm scf=(qc)
 -----------------------------------------

 -------------------
 Title Card Required
 -------------------
 Symbolic Z-matrix:
 Charge =  0 Multiplicity = 2

                          Input orientation:
 ---------------------------------------------------------------------
 Center     Atomic      Atomic             Coordinates (Angstroms)
 Number     Number       Type             X           Y           Z
 ---------------------------------------------------------------------
      1          1           0        0.000000    0.000000    0.000000
      2          1           0       -3.750000    0.000000    0.000000
      3          9           0        0.600000    0.000000    0.000000
 ---------------------------------------------------------------------

 SCF Done:  E(UB3LYP) =  -100.687895923     a.u. after    6 cycles

 Alpha  occ. eigenvalues --  -24.62731  -1.34731  -0.61026  -0.42982  -0.42982
 Alpha  occ. eigenvalues --   -0.33189
 Alpha virt. eigenvalues --    0.07382   0.24701   0.58070   0.92119   0.92119
 Alpha virt. eigenvalues --    0.93148   1.24191   1.24317   1.24317   1.33370
 Alpha virt. eigenvalues --    1.50261   1.50261   1.95408   2.14465   3.36520

  Beta  occ. eigenvalues --  -24.62731  -1.34730  -0.61026  -0.42982  -0.42982
  Beta virt. eigenvalues --   -0.05042   0.07639   0.38975   0.58055   0.92119
  Beta virt. eigenvalues --    0.92119   0.93144   1.33060   1.49227   1.49730
  Beta virt. eigenvalues --    1.49730   1.50261   1.50261   1.95382   2.45666

 Mulliken charges and spin densities:
               1          2
     1  H    0.238327   0.000347
     2  H    0.000455   0.999480
     3  F   -0.238781   0.000174
 Sum of Mulliken charges =   0.00000   1.00000

 Dipole moment (field-independent basis, Debye):
    X=             -1.4357    Y=             -0.0000    Z=             -0.0000  Tot=              1.4357
 Quadrupole moment (field-independent basis, Debye-Ang):
   XX=             -6.9899   YY=             -6.5520   ZZ=             -6.5520
   XY=             -0.0000   XZ=             -0.0000   YZ=             -0.0000

  Exact polarizability:       3.276      -0.000       2.436       0.000       0.000       2.436
 Approx polarizability:       3.523       0.000       2.414       0.000      -0.000       2.414

 ******    3 imaginary frequencies (negative Signs) ******

                      1                      2                      3
                      A                      A                      A
 Frequencies --  -5891.7523             -5891.7523               -32.0133
 Red. masses --      1.0447                 1.0447                 1.0532
 Frc consts  --     21.3658                21.3658                 0.0006
 IR Inten    --    241.9914               241.9914                 0.0125

                      4
                      A
 Frequencies --  13070.5881
 Red. masses --      1.0583
 Frc consts  --    106.5255
 IR Inten    --     96.4921

 - Thermochemistry -
 -------------------
 Temperature   298.150 Kelvin.  Pressure   1.00000 Atm.
 Atom     1 has atomic number  1 and mass   1.00783

 Molecular mass:    21.01405 amu.
 Principal axes and moments of inertia in atomic units:
                           1         2         3
     Eigenvalues --     0.00000  65.16858  65.16858
           X            1.00000  -0.00000   0.00000
           Y            0.00000   1.00000   0.00000
           Z            0.00000   0.00000   1.00000
 This molecule is a prolate symmetric top.
 Rotational symmetry number  1.
 Rotational temperature (Kelvin)      1.32907
 Rotational constant (GHZ):          27.693425
    3 imaginary frequencies ignored.
 Zero-point vibrational energy      78179.5 (Joules/Mol)
                                   18.68534 (Kcal/Mol)
 Vibrational temperatures:  18805.66
          (Kelvin)

 Zero-point correction=                           0.029777 (Hartree/Particle)
 Thermal correction to Energy=                    0.032137
 Thermal correction to Enthalpy=                  0.033082
 Thermal correction to Gibbs Free Energy=         0.009710
 Sum of electronic and zero-point Energies=           -100.658119
 Sum of electronic and thermal Energies=              -100.655758
 Sum of electronic and thermal Enthalpies=            -100.654814
 Sum of electronic and thermal Free Energies=         -100.678186

                     E (Thermal)             CV                S
                      KCal/Mol        Cal/Mol-Kelvin    Cal/Mol-Kelvin
 Total                   20.167              4.968             49.190
 Electronic               0.000              0.000              1.377
 Translational            0.889              2.981             35.068
 Rotational               0.592              1.987             12.744
 Vibrational             18.685              0.000              0.000

 Normal termination of Gaussian 16 at Fri Aug 22 15:42:50 2025.
