 Gaussian 16, Revision C.01,
 Gaussian 16:  ES64L-G16RevC.01  3-Jul-2019

 -----------------------------------------
 # sp b3lyp/6-311g** Force nosymm scf=(qc)
 -----------------------------------------

 -------------------
 Title Card Required
 -------------------
 Symbolic Z-matrix:
 Charge =  0 Multiplicity = 2

                          Input orientation:
 ---------------------------------------------------------------------
 Center     Atomic      Atomic             Coordinates (Angstroms)
 Number     Number       Type             X           Y           Z
 ---------------------------------------------------------------------
      1          1           0        0.000000    0.000000    0.000000
      2          1           0       -3.300000    0.000000    0.000000
      3          9           0        2.300000    0.000000    0.000000
 ---------------------------------------------------------------------

 SCF Done:  E(UB3LYP) =  -100.773100764     a.u. after   14 cycles

 Alpha  occ. eigenvalues --  -24.70471  -1.16752  -0.49549  -0.41649  -0.41649
 Alpha  occ. eigenvalues --   -0.33217
 Alpha virt. eigenvalues --   -0.11612   0.23292   0.34185   0.88871   0.94225
 Alpha virt. eigenvalues --    0.94225   1.06287   1.24303   1.24303   1.24629
 Alpha virt. eigenvalues --    1.38569   1.38569   1.48519   2.14528   2.33763

  Beta  occ. eigenvalues --  -24.67759  -1.09073  -0.38955  -0.38955  -0.36256
  Beta virt. eigenvalues --   -0.22477  -0.07246   0.23836   0.37568   0.93079
  Beta virt. eigenvalues --    0.95443   0.95443   1.08382   1.21623   1.21623
  Beta virt. eigenvalues --    1.37037   1.45304   1.45447   1.45447   2.12389

 Mulliken charges and spin densities:
               1          2
     1  H    0.121876  -0.851648
     2  H    0.001898   0.996436
     3  F   -0.123774   0.855212
 Sum of Mulliken charges =  -0.00000   1.00000

 Dipole moment (field-independent basis, Debye):
    X=             -1.4649    Y=              0.0000    Z=              0.0000  Tot=              1.4649
 Quadrupole moment (field-independent basis, Debye-Ang):
   XX=             -9.5913   YY=             -7.5480   ZZ=             -7.5480
   XY=              0.0000   XZ=              0.0000   YZ=             -0.0000

  Exact polarizability:      30.177       0.000       2.032       0.000      -0.000       2.032
 Approx polarizability:      39.629       0.000       1.923       0.000       0.000       1.923

 ******    2 imaginary frequencies (negative Signs) ******

                      1                      2                      3
                      A                      A                      A
 Frequencies --   -775.5546              -152.8922               316.6516
 Red. masses --      1.0541                 1.0575                 1.0229
 Frc consts  --      0.3735                 0.0146                 0.0604
 IR Inten    --     96.2690                 0.6320                13.9318

                      4
                      A
 Frequencies --    316.6516
 Red. masses --      1.0229
 Frc consts  --      0.0604
 IR Inten    --     13.9318

 - Thermochemistry -
 -------------------
 Temperature   298.150 Kelvin.  Pressure   1.00000 Atm.
 Atom     1 has atomic number  1 and mass   1.00783

 Molecular mass:    21.01405 amu.
 Principal axes and moments of inertia in atomic units:
                           1         2         3
     Eigenvalues --     0.00000 121.13127 121.13127
           X            1.00000  -0.00000   0.00000
           Y            0.00000   1.00000   0.00000
           Z            0.00000   0.00000   1.00000
 This molecule is a prolate symmetric top.
 Rotational symmetry number  1.
 Rotational temperature (Kelvin)      0.71504
 Rotational constant (GHZ):          14.899053
    2 imaginary frequencies ignored.
 Zero-point vibrational energy       3788.0 (Joules/Mol)
                                    0.90535 (Kcal/Mol)
 Warning -- explicit consideration of   2 degrees of freedom as
           vibrations may cause significant error
 Vibrational temperatures:    455.59   455.59
          (Kelvin)

 Zero-point correction=                           0.001443 (Hartree/Particle)
 Thermal correction to Energy=                    0.004603
 Thermal correction to Enthalpy=                  0.005547
 Thermal correction to Gibbs Free Energy=        -0.019671
 Sum of electronic and zero-point Energies=           -100.771658
 Sum of electronic and thermal Energies=              -100.768498
 Sum of electronic and thermal Enthalpies=            -100.767554
 Sum of electronic and thermal Free Energies=         -100.792772

                     E (Thermal)             CV                S
                      KCal/Mol        Cal/Mol-Kelvin    Cal/Mol-Kelvin
 Total                    2.888              8.252             53.076
 Electronic               0.000              0.000              1.377
 Translational            0.889              2.981             35.068
 Rotational               0.592              1.987             13.976
 Vibrational              1.407              3.284              2.655
 Vibration     1          0.704              1.642              1.327
 Vibration     2          0.704              1.642              1.327

 Normal termination of Gaussian 16 at Fri Aug 22 17:23:03 2025.
