 Gaussian 16, Revision C.01,
 Gaussian 16:  ES64L-G16RevC.01  3-Jul-2019

 -----------------------------------------
 # sp b3lyp/6-311g** Force nosymm scf=(qc)
 -----------------------------------------

 -------------------
 Title Card Required
 -------------------
 Symbolic Z-matrix:
 Charge =  0 Multiplicity = 2

                          Input orientation:
 ---------------------------------------------------------------------
 Center     Atomic      Atomic             Coordinates (Angstroms)
 Number     Number       Type             X           Y           Z
 ---------------------------------------------------------------------
      1          1           0        0.000000    0.000000    0.000000
      2          1           0       -2.150000    0.000000    0.000000
      3          9           0        1.650000    0.000000    0.000000
 ---------------------------------------------------------------------

 SCF Done:  E(UB3LYP) =  -100.831559021     a.u. after   13 cycles

 Alpha  occ. eigenvalues --  -24.64957  -1.11024  -0.44109  -0.36928  -0.36928
 Alpha  occ. eigenvalues --   -0.36814
 Alpha virt. eigenvalues --   -0.13548   0.23497   0.28188   0.94727   0.94727
 Alpha virt. eigenvalues --    0.97746   1.06117   1.20803   1.20803   1.28143
 Alpha virt. eigenvalues --    1.33459   1.33459   1.73635   2.10621   2.25436

  Beta  occ. eigenvalues --  -24.63583  -1.07303  -0.40117  -0.35602  -0.35602
  Beta virt. eigenvalues --   -0.18955  -0.09740   0.25159   0.32935   0.94497
  Beta virt. eigenvalues --    0.94497   0.99609   1.08172   1.27094   1.27094
  Beta virt. eigenvalues --    1.38114   1.38114   1.42749   1.71366   2.13237

 Mulliken charges and spin densities:
               1          2
     1  H    0.268444  -0.370903
     2  H    0.039539   0.938924
     3  F   -0.307983   0.431979
 Sum of Mulliken charges =   0.00000   1.00000

 Dipole moment (field-independent basis, Debye):
    X=             -2.8880    Y=             -0.0000    Z=              0.0000  Tot=              2.8880
 Quadrupole moment (field-independent basis, Debye-Ang):
   XX=             -9.0964   YY=             -7.4034   ZZ=             -7.4034
   XY=             -0.0000   XZ=              0.0000   YZ=             -0.0000

  Exact polarizability:      34.984      -0.000       2.155       0.000      -0.000       2.155
 Approx polarizability:      46.705      -0.000       2.067       0.000       0.000       2.067

 ******    2 imaginary frequencies (negative Signs) ******

                      1                      2                      3
                      A                      A                      A
 Frequencies --  -1933.9772              -475.6521               835.4647
 Red. masses --      1.0422                 1.0697                 1.0215
 Frc consts  --      2.2966                 0.1426                 0.4201
 IR Inten    --     47.5455                11.0712                53.8928

                      4
                      A
 Frequencies --    835.4648
 Red. masses --      1.0215
 Frc consts  --      0.4201
 IR Inten    --     53.8928

 - Thermochemistry -
 -------------------
 Temperature   298.150 Kelvin.  Pressure   1.00000 Atm.
 Atom     1 has atomic number  1 and mass   1.00783

 Molecular mass:    21.01405 amu.
 Principal axes and moments of inertia in atomic units:
                           1         2         3
     Eigenvalues --     0.00000  56.64113  56.64113
           X            1.00000  -0.00000   0.00000
           Y            0.00000   1.00000   0.00000
           Z            0.00000   0.00000   1.00000
 This molecule is a prolate symmetric top.
 Rotational symmetry number  1.
 Rotational temperature (Kelvin)      1.52917
 Rotational constant (GHZ):          31.862735
    2 imaginary frequencies ignored.
 Zero-point vibrational energy       9994.4 (Joules/Mol)
                                    2.38871 (Kcal/Mol)
 Vibrational temperatures:   1202.05  1202.05
          (Kelvin)

 Zero-point correction=                           0.003807 (Hartree/Particle)
 Thermal correction to Energy=                    0.006305
 Thermal correction to Enthalpy=                  0.007249
 Thermal correction to Gibbs Free Energy=        -0.016162
 Sum of electronic and zero-point Energies=           -100.827752
 Sum of electronic and thermal Energies=              -100.825254
 Sum of electronic and thermal Enthalpies=            -100.824310
 Sum of electronic and thermal Free Energies=         -100.847721

                     E (Thermal)             CV                S
                      KCal/Mol        Cal/Mol-Kelvin    Cal/Mol-Kelvin
 Total                    3.956              6.156             49.272
 Electronic               0.000              0.000              1.377
 Translational            0.889              2.981             35.068
 Rotational               0.592              1.987             12.465
 Vibrational              2.475              1.188              0.361

 Normal termination of Gaussian 16 at Fri Aug 22 16:34:26 2025.
