 Gaussian 16, Revision C.01,
 Gaussian 16:  ES64L-G16RevC.01  3-Jul-2019

 -----------------------------------------
 # sp b3lyp/6-311g** Force nosymm scf=(qc)
 -----------------------------------------

 -------------------
 Title Card Required
 -------------------
 Symbolic Z-matrix:
 Charge =  0 Multiplicity = 2

                          Input orientation:
 ---------------------------------------------------------------------
 Center     Atomic      Atomic             Coordinates (Angstroms)
 Number     Number       Type             X           Y           Z
 ---------------------------------------------------------------------
      1          1           0        0.000000    0.000000    0.000000
      2          1           0       -0.800000    0.000000    0.000000
      3          9           0        2.400000    0.000000    0.000000
 ---------------------------------------------------------------------

 SCF Done:  E(UB3LYP) =  -100.932158501     a.u. after    5 cycles

 Alpha  occ. eigenvalues --  -24.75853  -1.21781  -0.55129  -0.46170  -0.46170
 Alpha  occ. eigenvalues --   -0.43024
 Alpha virt. eigenvalues --    0.05132   0.20290   0.45478   0.89704   0.91010
 Alpha virt. eigenvalues --    0.91010   1.07425   1.07425   1.12442   1.52160
 Alpha virt. eigenvalues --    1.78080   1.78080   2.04666   2.38833   3.04312

  Beta  occ. eigenvalues --  -24.72743  -1.12856  -0.43056  -0.43056  -0.43001
  Beta virt. eigenvalues --   -0.26125   0.05660   0.20629   0.45749   0.92475
  Beta virt. eigenvalues --    0.92475   0.98078   1.07634   1.07634   1.16689
  Beta virt. eigenvalues --    1.52521   1.78206   1.78206   2.04849   2.39066

 Mulliken charges and spin densities:
               1          2
     1  H   -0.012694  -0.011776
     2  H    0.020281   0.029246
     3  F   -0.007587   0.982530
 Sum of Mulliken charges =   0.00000   1.00000

 Dipole moment (field-independent basis, Debye):
    X=             -0.1722    Y=             -0.0000    Z=             -0.0000  Tot=              0.1722
 Quadrupole moment (field-independent basis, Debye-Ang):
   XX=             -5.6803   YY=             -7.0094   ZZ=             -7.0094
   XY=             -0.0000   XZ=             -0.0000   YZ=             -0.0000

  Exact polarizability:      15.005      -0.000       2.020      -0.000      -0.000       2.020
 Approx polarizability:      16.303      -0.000       2.094       0.000      -0.000       2.094

 ******    1 imaginary frequencies (negative Signs) ******

                      1                      2                      3
                      A                      A                      A
 Frequencies --   -145.8113              1045.6550              1045.6550
 Red. masses --      1.1085                 1.0098                 1.0098
 Frc consts  --      0.0139                 0.6506                 0.6506
 IR Inten    --      6.0053                 0.3892                 0.3892

                      4
                      A
 Frequencies --   3663.7298
 Red. masses --      1.0078
 Frc consts  --      7.9705
 IR Inten    --     61.6638

 - Thermochemistry -
 -------------------
 Temperature   298.150 Kelvin.  Pressure   1.00000 Atm.
 Atom     1 has atomic number  1 and mass   1.00783

 Molecular mass:    21.01405 amu.
 Principal axes and moments of inertia in atomic units:
                           1         2         3
     Eigenvalues --     0.00000  52.17118  52.17118
           X            1.00000  -0.00000   0.00000
           Y            0.00000   1.00000   0.00000
           Z            0.00000   0.00000   1.00000
 This molecule is a prolate symmetric top.
 Rotational symmetry number  1.
 Rotational temperature (Kelvin)      1.66019
 Rotational constant (GHZ):          34.592683
    1 imaginary frequencies ignored.
 Zero-point vibrational energy      34422.8 (Joules/Mol)
                                    8.22724 (Kcal/Mol)
 Vibrational temperatures:   1504.46  1504.46  5271.29
          (Kelvin)

 Zero-point correction=                           0.013111 (Hartree/Particle)
 Thermal correction to Energy=                    0.015533
 Thermal correction to Enthalpy=                  0.016477
 Thermal correction to Gibbs Free Energy=        -0.006758
 Sum of electronic and zero-point Energies=           -100.919048
 Sum of electronic and thermal Energies=              -100.916625
 Sum of electronic and thermal Enthalpies=            -100.915681
 Sum of electronic and thermal Free Energies=         -100.938917

                     E (Thermal)             CV                S
                      KCal/Mol        Cal/Mol-Kelvin    Cal/Mol-Kelvin
 Total                    9.747              5.628             48.903
 Electronic               0.000              0.000              1.377
 Translational            0.889              2.981             35.068
 Rotational               0.592              1.987             12.302
 Vibrational              8.266              0.660              0.156

 Normal termination of Gaussian 16 at Fri Aug 22 17:30:27 2025.
