 Gaussian 16, Revision C.01,
 Gaussian 16:  ES64L-G16RevC.01  3-Jul-2019

 -----------------------------------------
 # sp b3lyp/6-311g** Force nosymm scf=(qc)
 -----------------------------------------

 -------------------
 Title Card Required
 -------------------
 Symbolic Z-matrix:
 Charge =  0 Multiplicity = 2

                          Input orientation:
 ---------------------------------------------------------------------
 Center     Atomic      Atomic             Coordinates (Angstroms)
 Number     Number       Type             X           Y           Z
 ---------------------------------------------------------------------
      1          1           0        0.000000    0.000000    0.000000
      2          1           0       -2.150000    0.000000    0.000000
      3          9           0        3.200000    0.000000    0.000000
 ---------------------------------------------------------------------

 SCF Done:  E(UB3LYP) =  -100.770069186     a.u. after   23 cycles

 Alpha  occ. eigenvalues --  -24.74894  -1.20891  -0.54014  -0.45353  -0.45353
 Alpha  occ. eigenvalues --   -0.33232
 Alpha virt. eigenvalues --   -0.11073   0.25700   0.32664   0.88770   0.91780
 Alpha virt. eigenvalues --    0.91780   1.02852   1.22017   1.24649   1.24649
 Alpha virt. eigenvalues --    1.38249   1.38249   1.45884   2.13381   2.35699

  Beta  occ. eigenvalues --  -24.71816  -1.12056  -0.42269  -0.42269  -0.33471
  Beta virt. eigenvalues --   -0.25262  -0.10486   0.25772   0.33401   0.93258
  Beta virt. eigenvalues --    0.93258   0.97731   1.06825   1.21755   1.24329
  Beta virt. eigenvalues --    1.24329   1.39157   1.39157   1.46642   2.14412

 Mulliken charges and spin densities:
               1          2
     1  H    0.013024  -0.889066
     2  H    0.008409   0.913322
     3  F   -0.021433   0.975744
 Sum of Mulliken charges =   0.00000   1.00000

 Dipole moment (field-independent basis, Debye):
    X=             -0.4379    Y=             -0.0000    Z=              0.0000  Tot=              0.4379
 Quadrupole moment (field-independent basis, Debye-Ang):
   XX=             -7.2222   YY=             -7.6983   ZZ=             -7.6983
   XY=             -0.0000   XZ=              0.0000   YZ=              0.0000

  Exact polarizability:      50.640      -0.000       2.010       0.000       0.000       2.010
 Approx polarizability:      42.101      -0.000       1.928       0.000      -0.000       1.928

 ******    2 imaginary frequencies (negative Signs) ******

                      1                      2                      3
                      A                      A                      A
 Frequencies --  -1108.5900              -194.5094               431.5265
 Red. masses --      1.0080                 1.1083                 1.0138
 Frc consts  --      0.7299                 0.0247                 0.1112
 IR Inten    --     18.5086                17.4619                 0.0800

                      4
                      A
 Frequencies --    431.5265
 Red. masses --      1.0138
 Frc consts  --      0.1112
 IR Inten    --      0.0800

 - Thermochemistry -
 -------------------
 Temperature   298.150 Kelvin.  Pressure   1.00000 Atm.
 Atom     1 has atomic number  1 and mass   1.00783

 Molecular mass:    21.01405 amu.
 Principal axes and moments of inertia in atomic units:
                           1         2         3
     Eigenvalues --     0.00000 127.24847 127.24847
           X            1.00000  -0.00000   0.00000
           Y            0.00000   1.00000   0.00000
           Z            0.00000   0.00000   1.00000
 This molecule is a prolate symmetric top.
 Rotational symmetry number  1.
 Rotational temperature (Kelvin)      0.68067
 Rotational constant (GHZ):          14.182812
    2 imaginary frequencies ignored.
 Zero-point vibrational energy       5162.2 (Joules/Mol)
                                    1.23380 (Kcal/Mol)
 Warning -- explicit consideration of   2 degrees of freedom as
           vibrations may cause significant error
 Vibrational temperatures:    620.87   620.87
          (Kelvin)

 Zero-point correction=                           0.001966 (Hartree/Particle)
 Thermal correction to Energy=                    0.004887
 Thermal correction to Enthalpy=                  0.005831
 Thermal correction to Gibbs Free Energy=        -0.018984
 Sum of electronic and zero-point Energies=           -100.768103
 Sum of electronic and thermal Energies=              -100.765183
 Sum of electronic and thermal Enthalpies=            -100.764238
 Sum of electronic and thermal Free Energies=         -100.789053

                     E (Thermal)             CV                S
                      KCal/Mol        Cal/Mol-Kelvin    Cal/Mol-Kelvin
 Total                    3.066              7.771             52.227
 Electronic               0.000              0.000              1.377
 Translational            0.889              2.981             35.068
 Rotational               0.592              1.987             14.074
 Vibrational              1.585              2.803              1.707
 Vibration     1          0.793              1.402              0.854
 Vibration     2          0.793              1.402              0.854

 Normal termination of Gaussian 16 at Fri Aug 22 20:23:18 2025.
