 Gaussian 16, Revision C.01,
 Gaussian 16:  ES64L-G16RevC.01  3-Jul-2019

 -----------------------------------------
 # sp b3lyp/6-311g** Force nosymm scf=(qc)
 -----------------------------------------

 -------------------
 Title Card Required
 -------------------
 Symbolic Z-matrix:
 Charge =  0 Multiplicity = 2

                          Input orientation:
 ---------------------------------------------------------------------
 Center     Atomic      Atomic             Coordinates (Angstroms)
 Number     Number       Type             X           Y           Z
 ---------------------------------------------------------------------
      1          1           0        0.000000    0.000000    0.000000
      2          1           0       -0.900000    0.000000    0.000000
      3          9           0        0.950000    0.000000    0.000000
 ---------------------------------------------------------------------

 SCF Done:  E(UB3LYP) =  -100.949727666     a.u. after    6 cycles

 Alpha  occ. eigenvalues --  -24.65445  -1.19830  -0.60575  -0.40597  -0.40597
 Alpha  occ. eigenvalues --   -0.35632
 Alpha virt. eigenvalues --    0.13995   0.18457   0.51664   0.88854   0.88854
 Alpha virt. eigenvalues --    0.96258   1.08388   1.08388   1.44810   1.67254
 Alpha virt. eigenvalues --    1.67254   1.72505   2.16027   2.30643   3.27191

  Beta  occ. eigenvalues --  -24.64413  -1.17207  -0.54702  -0.39679  -0.39679
  Beta virt. eigenvalues --   -0.17650   0.15859   0.21053   0.57295   0.90714
  Beta virt. eigenvalues --    0.90714   0.98350   1.13625   1.13625   1.46703
  Beta virt. eigenvalues --    1.72084   1.72084   1.81782   2.15812   2.42326

 Mulliken charges and spin densities:
               1          2
     1  H    0.275701  -0.017304
     2  H   -0.005097   0.763162
     3  F   -0.270605   0.254142
 Sum of Mulliken charges =   0.00000   1.00000

 Dipole moment (field-independent basis, Debye):
    X=             -1.7300    Y=             -0.0000    Z=              0.0000  Tot=              1.7300
 Quadrupole moment (field-independent basis, Debye-Ang):
   XX=             -7.5775   YY=             -6.6114   ZZ=             -6.6114
   XY=             -0.0000   XZ=              0.0000   YZ=             -0.0000

  Exact polarizability:      13.332      -0.000       2.574      -0.000       0.000       2.574
 Approx polarizability:      15.382       0.000       2.616      -0.000       0.000       2.616

 ******    2 imaginary frequencies (negative Signs) ******

                      1                      2                      3
                      A                      A                      A
 Frequencies --  -1289.1796             -1289.1796              2036.5166
 Red. masses --      1.0173                 1.0173                 1.0639
 Frc consts  --      0.9962                 0.9962                 2.5998
 IR Inten    --     57.4928                57.4928               102.3804

                      4
                      A
 Frequencies --   3160.6986
 Red. masses --      1.0477
 Frc consts  --      6.1668
 IR Inten    --      0.6334

 - Thermochemistry -
 -------------------
 Temperature   298.150 Kelvin.  Pressure   1.00000 Atm.
 Atom     1 has atomic number  1 and mass   1.00783

 Molecular mass:    21.01405 amu.
 Principal axes and moments of inertia in atomic units:
                           1         2         3
     Eigenvalues --     0.00000  14.21247  14.21247
           X            1.00000  -0.00000   0.00000
           Y            0.00000   1.00000   0.00000
           Z            0.00000   0.00000   1.00000
 This molecule is a prolate symmetric top.
 Rotational symmetry number  1.
 Rotational temperature (Kelvin)      6.09422
 Rotational constant (GHZ):         126.982905
    2 imaginary frequencies ignored.
 Zero-point vibrational energy      31086.3 (Joules/Mol)
                                    7.42979 (Kcal/Mol)
 Vibrational temperatures:   2930.09  4547.54
          (Kelvin)

 Zero-point correction=                           0.011840 (Hartree/Particle)
 Thermal correction to Energy=                    0.014201
 Thermal correction to Enthalpy=                  0.015145
 Thermal correction to Gibbs Free Energy=        -0.006789
 Sum of electronic and zero-point Energies=           -100.937888
 Sum of electronic and thermal Energies=              -100.935527
 Sum of electronic and thermal Enthalpies=            -100.934582
 Sum of electronic and thermal Free Energies=         -100.956517

                     E (Thermal)             CV                S
                      KCal/Mol        Cal/Mol-Kelvin    Cal/Mol-Kelvin
 Total                    8.911              4.978             46.165
 Electronic               0.000              0.000              1.377
 Translational            0.889              2.981             35.068
 Rotational               0.592              1.987              9.718
 Vibrational              7.430              0.010              0.001

 Normal termination of Gaussian 16 at Fri Aug 22 15:57:23 2025.
