 Gaussian 16, Revision C.01,
 Gaussian 16:  ES64L-G16RevC.01  3-Jul-2019

 -----------------------------------------
 # sp b3lyp/6-311g** Force nosymm scf=(qc)
 -----------------------------------------

 -------------------
 Title Card Required
 -------------------
 Symbolic Z-matrix:
 Charge =  0 Multiplicity = 2

                          Input orientation:
 ---------------------------------------------------------------------
 Center     Atomic      Atomic             Coordinates (Angstroms)
 Number     Number       Type             X           Y           Z
 ---------------------------------------------------------------------
      1          1           0        0.000000    0.000000    0.000000
      2          1           0       -2.850000    0.000000    0.000000
      3          9           0        1.450000    0.000000    0.000000
 ---------------------------------------------------------------------

 SCF Done:  E(UB3LYP) =  -100.866299046     a.u. after    8 cycles

 Alpha  occ. eigenvalues --  -24.64235  -1.09901  -0.43866  -0.36455  -0.36455
 Alpha  occ. eigenvalues --   -0.34872
 Alpha virt. eigenvalues --   -0.12875   0.21938   0.27327   0.93406   0.93406
 Alpha virt. eigenvalues --    1.03538   1.12927   1.22643   1.22643   1.23563
 Alpha virt. eigenvalues --    1.32162   1.32162   1.73219   2.13598   2.20538

  Beta  occ. eigenvalues --  -24.64155  -1.09692  -0.43634  -0.36380  -0.36380
  Beta virt. eigenvalues --   -0.14206  -0.07194   0.24724   0.36896   0.93380
  Beta virt. eigenvalues --    0.93380   1.03747   1.13118   1.31841   1.31841
  Beta virt. eigenvalues --    1.44252   1.44378   1.44378   1.73281   2.20017

 Mulliken charges and spin densities:
               1          2
     1  H    0.347733  -0.016162
     2  H    0.008164   0.990948
     3  F   -0.355897   0.025213
 Sum of Mulliken charges =  -0.00000   1.00000

 Dipole moment (field-independent basis, Debye):
    X=             -2.6584    Y=             -0.0000    Z=             -0.0000  Tot=              2.6584
 Quadrupole moment (field-independent basis, Debye-Ang):
   XX=             -9.4562   YY=             -7.2957   ZZ=             -7.2957
   XY=             -0.0000   XZ=              0.0000   YZ=              0.0000

  Exact polarizability:      17.320      -0.000       2.217       0.000      -0.000       2.217
 Approx polarizability:      28.259      -0.000       2.149      -0.000      -0.000       2.149

 ******    2 imaginary frequencies (negative Signs) ******

                      1                      2                      3
                      A                      A                      A
 Frequencies --  -1143.9574              -162.4139              1041.0916
 Red. masses --      1.0540                 1.0576                 1.0278
 Frc consts  --      0.8126                 0.0164                 0.6563
 IR Inten    --     83.0939                 1.3213               113.1986

                      4
                      A
 Frequencies --   1041.0916
 Red. masses --      1.0278
 Frc consts  --      0.6563
 IR Inten    --    113.1986

 - Thermochemistry -
 -------------------
 Temperature   298.150 Kelvin.  Pressure   1.00000 Atm.
 Atom     1 has atomic number  1 and mass   1.00783

 Molecular mass:    21.01405 amu.
 Principal axes and moments of inertia in atomic units:
                           1         2         3
     Eigenvalues --     0.00000  68.40577  68.40577
           X            1.00000  -0.00000   0.00000
           Y            0.00000   1.00000   0.00000
           Z            0.00000   0.00000   1.00000
 This molecule is a prolate symmetric top.
 Rotational symmetry number  1.
 Rotational temperature (Kelvin)      1.26618
 Rotational constant (GHZ):          26.382881
    2 imaginary frequencies ignored.
 Zero-point vibrational energy      12454.2 (Joules/Mol)
                                    2.97663 (Kcal/Mol)
 Vibrational temperatures:   1497.90  1497.90
          (Kelvin)

 Zero-point correction=                           0.004744 (Hartree/Particle)
 Thermal correction to Energy=                    0.007167
 Thermal correction to Enthalpy=                  0.008111
 Thermal correction to Gibbs Free Energy=        -0.015382
 Sum of electronic and zero-point Energies=           -100.861555
 Sum of electronic and thermal Energies=              -100.859132
 Sum of electronic and thermal Enthalpies=            -100.858188
 Sum of electronic and thermal Free Energies=         -100.881681

                     E (Thermal)             CV                S
                      KCal/Mol        Cal/Mol-Kelvin    Cal/Mol-Kelvin
 Total                    4.497              5.637             49.444
 Electronic               0.000              0.000              1.377
 Translational            0.889              2.981             35.068
 Rotational               0.592              1.987             12.841
 Vibrational              3.016              0.669              0.158

 Normal termination of Gaussian 16 at Fri Aug 22 16:23:26 2025.
