 Gaussian 16, Revision C.01,
 Gaussian 16:  ES64L-G16RevC.01  3-Jul-2019

 -----------------------------------------
 # sp b3lyp/6-311g** Force nosymm scf=(qc)
 -----------------------------------------

 -------------------
 Title Card Required
 -------------------
 Symbolic Z-matrix:
 Charge =  0 Multiplicity = 2

                          Input orientation:
 ---------------------------------------------------------------------
 Center     Atomic      Atomic             Coordinates (Angstroms)
 Number     Number       Type             X           Y           Z
 ---------------------------------------------------------------------
      1          1           0        0.000000    0.000000    0.000000
      2          1           0       -2.200000    0.000000    0.000000
      3          9           0        3.600000    0.000000    0.000000
 ---------------------------------------------------------------------

 SCF Done:  E(UB3LYP) =  -100.767818492     a.u. after   31 cycles

 Alpha  occ. eigenvalues --  -24.75651  -1.21595  -0.54774  -0.45992  -0.45992
 Alpha  occ. eigenvalues --   -0.32852
 Alpha virt. eigenvalues --   -0.10416   0.25919   0.33354   0.87295   0.91307
 Alpha virt. eigenvalues --    0.91307   1.01517   1.23509   1.24991   1.24991
 Alpha virt. eigenvalues --    1.39342   1.39342   1.45422   2.14094   2.35486

  Beta  occ. eigenvalues --  -24.72523  -1.12604  -0.42857  -0.42857  -0.32996
  Beta virt. eigenvalues --   -0.25646  -0.10120   0.25764   0.33822   0.92800
  Beta virt. eigenvalues --    0.92800   0.96532   1.05591   1.23369   1.24817
  Beta virt. eigenvalues --    1.24817   1.39774   1.39774   1.45779   2.14557

 Mulliken charges and spin densities:
               1          2
     1  H    0.003668  -0.916569
     2  H    0.003552   0.924851
     3  F   -0.007220   0.991718
 Sum of Mulliken charges =   0.00000   1.00000

 Dipole moment (field-independent basis, Debye):
    X=             -0.1704    Y=             -0.0000    Z=              0.0000  Tot=              0.1704
 Quadrupole moment (field-independent basis, Debye-Ang):
   XX=             -6.7437   YY=             -7.6990   ZZ=             -7.6990
   XY=             -0.0000   XZ=              0.0000   YZ=             -0.0000

  Exact polarizability:      36.243       0.000       2.007      -0.000      -0.000       2.007
 Approx polarizability:      28.554      -0.000       1.931       0.000       0.000       1.931

 ******    2 imaginary frequencies (negative Signs) ******

                      1                      2                      3
                      A                      A                      A
 Frequencies --  -1023.4756              -122.7263               396.0367
 Red. masses --      1.0079                 1.1085                 1.0131
 Frc consts  --      0.6220                 0.0098                 0.0936
 IR Inten    --      4.6714                 4.5604                 0.0053

                      4
                      A
 Frequencies --    396.0367
 Red. masses --      1.0131
 Frc consts  --      0.0936
 IR Inten    --      0.0053

 - Thermochemistry -
 -------------------
 Temperature   298.150 Kelvin.  Pressure   1.00000 Atm.
 Atom     1 has atomic number  1 and mass   1.00783

 Molecular mass:    21.01405 amu.
 Principal axes and moments of inertia in atomic units:
                           1         2         3
     Eigenvalues --     0.00000 152.46225 152.46225
           X            1.00000  -0.00000   0.00000
           Y            0.00000   1.00000   0.00000
           Z            0.00000   0.00000   1.00000
 This molecule is a prolate symmetric top.
 Rotational symmetry number  1.
 Rotational temperature (Kelvin)      0.56810
 Rotational constant (GHZ):          11.837299
    2 imaginary frequencies ignored.
 Zero-point vibrational energy       4737.7 (Joules/Mol)
                                    1.13233 (Kcal/Mol)
 Warning -- explicit consideration of   2 degrees of freedom as
           vibrations may cause significant error
 Vibrational temperatures:    569.81   569.81
          (Kelvin)

 Zero-point correction=                           0.001804 (Hartree/Particle)
 Thermal correction to Energy=                    0.004791
 Thermal correction to Enthalpy=                  0.005736
 Thermal correction to Gibbs Free Energy=        -0.019367
 Sum of electronic and zero-point Energies=           -100.766014
 Sum of electronic and thermal Energies=              -100.763027
 Sum of electronic and thermal Enthalpies=            -100.762083
 Sum of electronic and thermal Free Energies=         -100.787186

                     E (Thermal)             CV                S
                      KCal/Mol        Cal/Mol-Kelvin    Cal/Mol-Kelvin
 Total                    3.007              7.925             52.833
 Electronic               0.000              0.000              1.377
 Translational            0.889              2.981             35.068
 Rotational               0.592              1.987             14.433
 Vibrational              1.525              2.957              1.955
 Vibration     1          0.763              1.479              0.977
 Vibration     2          0.763              1.479              0.977

 Normal termination of Gaussian 16 at Fri Aug 22 23:05:52 2025.
