 Gaussian 16, Revision C.01,
 Gaussian 16:  ES64L-G16RevC.01  3-Jul-2019

 -----------------------------------------
 # sp b3lyp/6-311g** Force nosymm scf=(qc)
 -----------------------------------------

 -------------------
 Title Card Required
 -------------------
 Symbolic Z-matrix:
 Charge =  0 Multiplicity = 2

                          Input orientation:
 ---------------------------------------------------------------------
 Center     Atomic      Atomic             Coordinates (Angstroms)
 Number     Number       Type             X           Y           Z
 ---------------------------------------------------------------------
      1          1           0        0.000000    0.000000    0.000000
      2          1           0       -3.250000    0.000000    0.000000
      3          9           0        3.350000    0.000000    0.000000
 ---------------------------------------------------------------------

 SCF Done:  E(UB3LYP) =  -100.759789300     a.u. after   25 cycles

 Alpha  occ. eigenvalues --  -24.75102  -1.21086  -0.54223  -0.45527  -0.45527
 Alpha  occ. eigenvalues --   -0.32436
 Alpha virt. eigenvalues --   -0.07704   0.24509   0.36305   0.88117   0.91657
 Alpha virt. eigenvalues --    0.91657   1.02273   1.25080   1.25080   1.25437
 Alpha virt. eigenvalues --    1.44323   1.44351   1.44351   2.15329   2.40354

  Beta  occ. eigenvalues --  -24.72006  -1.12196  -0.42425  -0.42425  -0.33051
  Beta virt. eigenvalues --   -0.25335  -0.06961   0.24295   0.37453   0.93140
  Beta virt. eigenvalues --    0.93140   0.97155   1.06226   1.24366   1.24366
  Beta virt. eigenvalues --    1.24700   1.45312   1.45533   1.45533   2.15676

 Mulliken charges and spin densities:
               1          2
     1  H    0.016483  -0.977434
     2  H    0.000466   0.996074
     3  F   -0.016949   0.981360
 Sum of Mulliken charges =  -0.00000   1.00000

 Dipole moment (field-independent basis, Debye):
    X=             -0.2991    Y=              0.0000    Z=              0.0000  Tot=              0.2991
 Quadrupole moment (field-independent basis, Debye-Ang):
   XX=             -7.6007   YY=             -7.6246   ZZ=             -7.6246
   XY=              0.0000   XZ=              0.0000   YZ=             -0.0000

  Exact polarizability:      28.258       0.000       2.030       0.000      -0.000       2.030
 Approx polarizability:      23.676       0.000       1.931       0.000       0.000       1.931

 ******    2 imaginary frequencies (negative Signs) ******

                      1                      2                      3
                      A                      A                      A
 Frequencies --   -311.0286              -132.1621               105.1374
 Red. masses --      1.0229                 1.0908                 1.0176
 Frc consts  --      0.0583                 0.0112                 0.0066
 IR Inten    --     15.6692                 2.8574                 0.2404

                      4
                      A
 Frequencies --    105.1374
 Red. masses --      1.0176
 Frc consts  --      0.0066
 IR Inten    --      0.2404

 - Thermochemistry -
 -------------------
 Temperature   298.150 Kelvin.  Pressure   1.00000 Atm.
 Atom     1 has atomic number  1 and mass   1.00783

 Molecular mass:    21.01405 amu.
 Principal axes and moments of inertia in atomic units:
                           1         2         3
     Eigenvalues --     0.00000 180.07417 180.07417
           X            1.00000  -0.00000   0.00000
           Y            0.00000   1.00000   0.00000
           Z            0.00000   0.00000   1.00000
 This molecule is a prolate symmetric top.
 Rotational symmetry number  1.
 Rotational temperature (Kelvin)      0.48099
 Rotational constant (GHZ):          10.022210
    2 imaginary frequencies ignored.
 Zero-point vibrational energy       1257.7 (Joules/Mol)
                                    0.30060 (Kcal/Mol)
 Warning -- explicit consideration of   2 degrees of freedom as
           vibrations may cause significant error
 Vibrational temperatures:    151.27   151.27
          (Kelvin)

 Zero-point correction=                           0.000479 (Hartree/Particle)
 Thermal correction to Energy=                    0.004289
 Thermal correction to Enthalpy=                  0.005233
 Thermal correction to Gibbs Free Energy=        -0.022288
 Sum of electronic and zero-point Energies=           -100.759310
 Sum of electronic and thermal Energies=              -100.755500
 Sum of electronic and thermal Enthalpies=            -100.754556
 Sum of electronic and thermal Free Energies=         -100.782077

                     E (Thermal)             CV                S
                      KCal/Mol        Cal/Mol-Kelvin    Cal/Mol-Kelvin
 Total                    2.691              8.858             57.923
 Electronic               0.000              0.000              1.377
 Translational            0.889              2.981             35.068
 Rotational               0.592              1.987             14.764
 Vibrational              1.210              3.890              6.714
 Vibration     1          0.605              1.945              3.357
 Vibration     2          0.605              1.945              3.357

 Normal termination of Gaussian 16 at Fri Aug 22 21:02:55 2025.
