 Gaussian 16, Revision C.01,
 Gaussian 16:  ES64L-G16RevC.01  3-Jul-2019

 -----------------------------------------
 # sp b3lyp/6-311g** Force nosymm scf=(qc)
 -----------------------------------------

 -------------------
 Title Card Required
 -------------------
 Symbolic Z-matrix:
 Charge =  0 Multiplicity = 2

                          Input orientation:
 ---------------------------------------------------------------------
 Center     Atomic      Atomic             Coordinates (Angstroms)
 Number     Number       Type             X           Y           Z
 ---------------------------------------------------------------------
      1          1           0        0.000000    0.000000    0.000000
      2          1           0       -0.800000    0.000000    0.000000
      3          9           0        3.150000    0.000000    0.000000
 ---------------------------------------------------------------------

 SCF Done:  E(UB3LYP) =  -100.932440498     a.u. after  262 cycles

 Alpha  occ. eigenvalues --  -24.76536  -1.22359  -0.55554  -0.46789  -0.46704
 Alpha  occ. eigenvalues --   -0.42067
 Alpha virt. eigenvalues --    0.04946   0.20206   0.44981   0.85893   0.90767
 Alpha virt. eigenvalues --    0.93646   1.04072   1.08377   1.08382   1.52550
 Alpha virt. eigenvalues --    1.79044   1.79051   2.05852   2.38539   3.05487

  Beta  occ. eigenvalues --  -24.73375  -1.13274  -0.43680  -0.43536  -0.42003
  Beta virt. eigenvalues --   -0.26181   0.04977   0.20227   0.45068   0.92266
  Beta virt. eigenvalues --    0.95349   0.95353   1.07887   1.08376   1.08382
  Beta virt. eigenvalues --    1.52562   1.79044   1.79050   2.05878   2.38544

 Mulliken charges and spin densities:
               1          2
     1  H   -0.003932  -0.000847
     2  H   -0.003492  -0.000090
     3  F    0.007424   1.000937
 Sum of Mulliken charges =   0.00000   1.00000

 Dipole moment (field-independent basis, Debye):
    X=              0.0791    Y=              0.0000    Z=              0.0000  Tot=              0.0791
 Quadrupole moment (field-independent basis, Debye-Ang):
   XX=             -6.1206   YY=             -6.3494   ZZ=             -6.8389
   XY=             -0.0000   XZ=             -0.0000   YZ=              0.3558

  Exact polarizability:       9.252      -0.000       2.347      -0.000       0.190       2.086
 Approx polarizability:      10.813      -0.000       2.513      -0.000       0.239       2.184

                      1                      2                      3
                      A                      A                      A
 Frequencies --     49.4671              1077.5031              1078.7324
 Red. masses --      1.1085                 1.0091                 1.0091
 Frc consts  --      0.0016                 0.6903                 0.6918
 IR Inten    --      0.2341                 0.0043                 0.0036

                      4
                      A
 Frequencies --   3695.1689
 Red. masses --      1.0078
 Frc consts  --      8.1078
 IR Inten    --      0.2740

 - Thermochemistry -
 -------------------
 Temperature   298.150 Kelvin.  Pressure   1.00000 Atm.
 Atom     1 has atomic number  1 and mass   1.00783

 Molecular mass:    21.01405 amu.
 Principal axes and moments of inertia in atomic units:
                           1         2         3
     Eigenvalues --     0.00000  83.16358  83.16358
           X            1.00000  -0.00000   0.00000
           Y            0.00000   1.00000   0.00000
           Z            0.00000   0.00000   1.00000
 This molecule is a prolate symmetric top.
 Rotational symmetry number  1.
 Rotational temperature (Kelvin)      1.04149
 Rotational constant (GHZ):          21.701101
 Zero-point vibrational energy      35295.0 (Joules/Mol)
                                    8.43572 (Kcal/Mol)
 Warning -- explicit consideration of   1 degrees of freedom as
           vibrations may cause significant error
 Vibrational temperatures:     71.17  1550.29  1552.06  5316.52
          (Kelvin)

 Zero-point correction=                           0.013443 (Hartree/Particle)
 Thermal correction to Energy=                    0.016694
 Thermal correction to Enthalpy=                  0.017638
 Thermal correction to Gibbs Free Energy=        -0.008327
 Sum of electronic and zero-point Energies=           -100.918997
 Sum of electronic and thermal Energies=              -100.915747
 Sum of electronic and thermal Enthalpies=            -100.914802
 Sum of electronic and thermal Free Energies=         -100.940768

                     E (Thermal)             CV                S
                      KCal/Mol        Cal/Mol-Kelvin    Cal/Mol-Kelvin
 Total                   10.476              7.544             54.649
 Electronic               0.000              0.000              1.377
 Translational            0.889              2.981             35.068
 Rotational               0.592              1.987             13.229
 Vibrational              8.994              2.576              4.975
 Vibration     1          0.595              1.978              4.839

 Normal termination of Gaussian 16 at Fri Aug 22 20:01:31 2025.
