 Gaussian 16, Revision C.01,
 Gaussian 16:  ES64L-G16RevC.01  3-Jul-2019

 -----------------------------------------
 # sp b3lyp/6-311g** Force nosymm scf=(qc)
 -----------------------------------------

 -------------------
 Title Card Required
 -------------------
 Symbolic Z-matrix:
 Charge =  0 Multiplicity = 2

                          Input orientation:
 ---------------------------------------------------------------------
 Center     Atomic      Atomic             Coordinates (Angstroms)
 Number     Number       Type             X           Y           Z
 ---------------------------------------------------------------------
      1          1           0        0.000000    0.000000    0.000000
      2          1           0       -2.450000    0.000000    0.000000
      3          9           0        2.800000    0.000000    0.000000
 ---------------------------------------------------------------------

 SCF Done:  E(UB3LYP) =  -100.767095085     a.u. after   21 cycles

 Alpha  occ. eigenvalues --  -24.73343  -1.19450  -0.52456  -0.44047  -0.44047
 Alpha  occ. eigenvalues --   -0.33384
 Alpha virt. eigenvalues --   -0.11119   0.25215   0.33294   0.90144   0.92724
 Alpha virt. eigenvalues --    0.92724   1.05217   1.24291   1.24291   1.26464
 Alpha virt. eigenvalues --    1.38895   1.38895   1.41465   2.14922   2.35479

  Beta  occ. eigenvalues --  -24.70370  -1.10949  -0.41076  -0.41076  -0.34309
  Beta virt. eigenvalues --   -0.24365  -0.09576   0.25739   0.34572   0.94165
  Beta virt. eigenvalues --    0.94165   0.98560   1.08983   1.23210   1.23210
  Beta virt. eigenvalues --    1.25716   1.41402   1.41402   1.43491   2.15691

 Mulliken charges and spin densities:
               1          2
     1  H    0.044122  -0.907154
     2  H    0.008453   0.966067
     3  F   -0.052576   0.941087
 Sum of Mulliken charges =  -0.00000   1.00000

 Dipole moment (field-independent basis, Debye):
    X=             -0.8530    Y=             -0.0000    Z=             -0.0000  Tot=              0.8530
 Quadrupole moment (field-independent basis, Debye-Ang):
   XX=             -8.2613   YY=             -7.6445   ZZ=             -7.6445
   XY=             -0.0000   XZ=             -0.0000   YZ=             -0.0000

  Exact polarizability:      46.260      -0.000       2.012      -0.000      -0.000       2.012
 Approx polarizability:      44.642      -0.000       1.919      -0.000       0.000       1.919

 ******    2 imaginary frequencies (negative Signs) ******

                      1                      2                      3
                      A                      A                      A
 Frequencies --   -775.7926              -283.0853               295.9189
 Red. masses --      1.0115                 1.1041                 1.0164
 Frc consts  --      0.3587                 0.0521                 0.0524
 IR Inten    --     32.0917                25.5502                 1.5091

                      4
                      A
 Frequencies --    295.9189
 Red. masses --      1.0164
 Frc consts  --      0.0524
 IR Inten    --      1.5091

 - Thermochemistry -
 -------------------
 Temperature   298.150 Kelvin.  Pressure   1.00000 Atm.
 Atom     1 has atomic number  1 and mass   1.00783

 Molecular mass:    21.01405 amu.
 Principal axes and moments of inertia in atomic units:
                           1         2         3
     Eigenvalues --     0.00000 116.22854 116.22854
           X            1.00000  -0.00000   0.00000
           Y            0.00000   1.00000   0.00000
           Z            0.00000   0.00000   1.00000
 This molecule is a prolate symmetric top.
 Rotational symmetry number  1.
 Rotational temperature (Kelvin)      0.74520
 Rotational constant (GHZ):          15.527522
    2 imaginary frequencies ignored.
 Zero-point vibrational energy       3540.0 (Joules/Mol)
                                    0.84607 (Kcal/Mol)
 Warning -- explicit consideration of   2 degrees of freedom as
           vibrations may cause significant error
 Vibrational temperatures:    425.76   425.76
          (Kelvin)

 Zero-point correction=                           0.001348 (Hartree/Particle)
 Thermal correction to Energy=                    0.004559
 Thermal correction to Enthalpy=                  0.005504
 Thermal correction to Gibbs Free Energy=        -0.019783
 Sum of electronic and zero-point Energies=           -100.765747
 Sum of electronic and thermal Energies=              -100.762536
 Sum of electronic and thermal Enthalpies=            -100.761592
 Sum of electronic and thermal Free Energies=         -100.786878

                     E (Thermal)             CV                S
                      KCal/Mol        Cal/Mol-Kelvin    Cal/Mol-Kelvin
 Total                    2.861              8.331             53.219
 Electronic               0.000              0.000              1.377
 Translational            0.889              2.981             35.068
 Rotational               0.592              1.987             13.894
 Vibrational              1.380              3.363              2.880
 Vibration     1          0.690              1.681              1.440
 Vibration     2          0.690              1.681              1.440

 Normal termination of Gaussian 16 at Fri Aug 22 18:43:31 2025.
