 Gaussian 16, Revision C.01,
 Gaussian 16:  ES64L-G16RevC.01  3-Jul-2019

 -----------------------------------------
 # sp b3lyp/6-311g** Force nosymm scf=(qc)
 -----------------------------------------

 -------------------
 Title Card Required
 -------------------
 Symbolic Z-matrix:
 Charge =  0 Multiplicity = 2

                          Input orientation:
 ---------------------------------------------------------------------
 Center     Atomic      Atomic             Coordinates (Angstroms)
 Number     Number       Type             X           Y           Z
 ---------------------------------------------------------------------
      1          1           0        0.000000    0.000000    0.000000
      2          1           0       -2.750000    0.000000    0.000000
      3          9           0        2.050000    0.000000    0.000000
 ---------------------------------------------------------------------

 SCF Done:  E(UB3LYP) =  -100.783130943     a.u. after   25 cycles

 Alpha  occ. eigenvalues --  -24.65694  -1.07712  -0.37984  -0.37277  -0.37277
 Alpha  occ. eigenvalues --   -0.33639
 Alpha virt. eigenvalues --   -0.20772   0.21797   0.27058   0.91223   0.95880
 Alpha virt. eigenvalues --    0.95880   1.08677   1.21771   1.21771   1.23364
 Alpha virt. eigenvalues --    1.23364   1.24672   1.50754   2.12835   2.14446

  Beta  occ. eigenvalues --  -24.68102  -1.14455  -0.47089  -0.39653  -0.39653
  Beta virt. eigenvalues --   -0.14338  -0.05124   0.31141   0.38510   0.89537
  Beta virt. eigenvalues --    0.95135   0.95135   1.06691   1.35896   1.35896
  Beta virt. eigenvalues --    1.46568   1.46568   1.47478   1.58608   2.31010

 Mulliken charges and spin densities:
               1          2
     1  H    0.180322   0.766008
     2  H    0.008896   0.991355
     3  F   -0.189218  -0.757363
 Sum of Mulliken charges =   0.00000   1.00000

 Dipole moment (field-independent basis, Debye):
    X=             -2.0421    Y=             -0.0000    Z=             -0.0000  Tot=              2.0421
 Quadrupole moment (field-independent basis, Debye-Ang):
   XX=             -9.9997   YY=             -7.4810   ZZ=             -7.4810
   XY=             -0.0000   XZ=             -0.0000   YZ=              0.0000

  Exact polarizability:      34.920      -0.000       2.055      -0.000      -0.000       2.055
 Approx polarizability:      48.416      -0.000       1.945      -0.000       0.000       1.945

 ******    1 imaginary frequencies (negative Signs) ******

                      1                      2                      3
                      A                      A                      A
 Frequencies --  -1023.0974               171.1082               432.8796
 Red. masses --      1.0630                 1.0486                 1.0219
 Frc consts  --      0.6556                 0.0181                 0.1128
 IR Inten    --     69.6702                 7.5293                28.3994

                      4
                      A
 Frequencies --    432.8796
 Red. masses --      1.0219
 Frc consts  --      0.1128
 IR Inten    --     28.3994

 - Thermochemistry -
 -------------------
 Temperature   298.150 Kelvin.  Pressure   1.00000 Atm.
 Atom     1 has atomic number  1 and mass   1.00783

 Molecular mass:    21.01405 amu.
 Principal axes and moments of inertia in atomic units:
                           1         2         3
     Eigenvalues --     0.00000  89.94684  89.94684
           X            1.00000  -0.00000   0.00000
           Y            0.00000   1.00000   0.00000
           Z            0.00000   0.00000   1.00000
 This molecule is a prolate symmetric top.
 Rotational symmetry number  1.
 Rotational temperature (Kelvin)      0.96295
 Rotational constant (GHZ):          20.064531
    1 imaginary frequencies ignored.
 Zero-point vibrational energy       6201.8 (Joules/Mol)
                                    1.48228 (Kcal/Mol)
 Warning -- explicit consideration of   3 degrees of freedom as
           vibrations may cause significant error
 Vibrational temperatures:    246.19   622.82   622.82
          (Kelvin)

 Zero-point correction=                           0.002362 (Hartree/Particle)
 Thermal correction to Energy=                    0.005887
 Thermal correction to Enthalpy=                  0.006832
 Thermal correction to Gibbs Free Energy=        -0.018803
 Sum of electronic and zero-point Energies=           -100.780769
 Sum of electronic and thermal Energies=              -100.777243
 Sum of electronic and thermal Enthalpies=            -100.776299
 Sum of electronic and thermal Free Energies=         -100.801934

                     E (Thermal)             CV                S
                      KCal/Mol        Cal/Mol-Kelvin    Cal/Mol-Kelvin
 Total                    3.694              9.643             53.952
 Electronic               0.000              0.000              1.377
 Translational            0.889              2.981             35.068
 Rotational               0.592              1.987             13.385
 Vibrational              2.213              4.675              4.122
 Vibration     1          0.626              1.878              2.423
 Vibration     2          0.794              1.399              0.849
 Vibration     3          0.794              1.399              0.849

 Normal termination of Gaussian 16 at Fri Aug 22 17:00:53 2025.
