 Gaussian 16, Revision C.01,
 Gaussian 16:  ES64L-G16RevC.01  3-Jul-2019

 -----------------------------------------
 # sp b3lyp/6-311g** Force nosymm scf=(qc)
 -----------------------------------------

 -------------------
 Title Card Required
 -------------------
 Symbolic Z-matrix:
 Charge =  0 Multiplicity = 2

                          Input orientation:
 ---------------------------------------------------------------------
 Center     Atomic      Atomic             Coordinates (Angstroms)
 Number     Number       Type             X           Y           Z
 ---------------------------------------------------------------------
      1          1           0        0.000000    0.000000    0.000000
      2          1           0       -0.900000    0.000000    0.000000
      3          9           0        2.650000    0.000000    0.000000
 ---------------------------------------------------------------------

 SCF Done:  E(UB3LYP) =  -100.921916247     a.u. after    6 cycles

 Alpha  occ. eigenvalues --  -24.76026  -1.21933  -0.55198  -0.46312  -0.46312
 Alpha  occ. eigenvalues --   -0.41052
 Alpha virt. eigenvalues --    0.02538   0.20684   0.42065   0.89904   0.91011
 Alpha virt. eigenvalues --    0.91011   1.07718   1.07718   1.09154   1.44689
 Alpha virt. eigenvalues --    1.71603   1.71603   2.18618   2.37960   2.73427

  Beta  occ. eigenvalues --  -24.72901  -1.12953  -0.43181  -0.43181  -0.41001
  Beta virt. eigenvalues --   -0.26175   0.02898   0.20917   0.42452   0.92491
  Beta virt. eigenvalues --    0.92491   0.98368   1.07835   1.07835   1.13571
  Beta virt. eigenvalues --    1.44825   1.71685   1.71685   2.18766   2.38087

 Mulliken charges and spin densities:
               1          2
     1  H   -0.012125  -0.008619
     2  H    0.015454   0.019651
     3  F   -0.003330   0.988968
 Sum of Mulliken charges =   0.00000   1.00000

 Dipole moment (field-independent basis, Debye):
    X=             -0.1198    Y=             -0.0000    Z=             -0.0000  Tot=              0.1198
 Quadrupole moment (field-independent basis, Debye-Ang):
   XX=             -5.6135   YY=             -7.1447   ZZ=             -7.1447
   XY=             -0.0000   XZ=             -0.0000   YZ=             -0.0000

  Exact polarizability:      15.832      -0.000       2.041       0.000       0.000       2.041
 Approx polarizability:      17.899      -0.000       2.105       0.000       0.000       2.105

 ******    1 imaginary frequencies (negative Signs) ******

                      1                      2                      3
                      A                      A                      A
 Frequencies --   -126.0921              1435.6319              1435.6319
 Red. masses --      1.1085                 1.0099                 1.0099
 Frc consts  --      0.0104                 1.2264                 1.2264
 IR Inten    --      2.9604                 0.2069                 0.2069

                      4
                      A
 Frequencies --   2618.4654
 Red. masses --      1.0078
 Frc consts  --      4.0713
 IR Inten    --     31.9671

 - Thermochemistry -
 -------------------
 Temperature   298.150 Kelvin.  Pressure   1.00000 Atm.
 Atom     1 has atomic number  1 and mass   1.00783

 Molecular mass:    21.01405 amu.
 Principal axes and moments of inertia in atomic units:
                           1         2         3
     Eigenvalues --     0.00000  63.99553  63.99553
           X            1.00000  -0.00000   0.00000
           Y            0.00000   1.00000   0.00000
           Z            0.00000   0.00000   1.00000
 This molecule is a prolate symmetric top.
 Rotational symmetry number  1.
 Rotational temperature (Kelvin)      1.35344
 Rotational constant (GHZ):          28.201050
    1 imaginary frequencies ignored.
 Zero-point vibrational energy      32835.9 (Joules/Mol)
                                    7.84796 (Kcal/Mol)
 Vibrational temperatures:   2065.55  2065.55  3767.39
          (Kelvin)

 Zero-point correction=                           0.012507 (Hartree/Particle)
 Thermal correction to Energy=                    0.014880
 Thermal correction to Enthalpy=                  0.015824
 Thermal correction to Gibbs Free Energy=        -0.007545
 Sum of electronic and zero-point Energies=           -100.909410
 Sum of electronic and thermal Energies=              -100.907036
 Sum of electronic and thermal Enthalpies=            -100.906092
 Sum of electronic and thermal Free Energies=         -100.929461

                     E (Thermal)             CV                S
                      KCal/Mol        Cal/Mol-Kelvin    Cal/Mol-Kelvin
 Total                    9.337              5.156             49.185
 Electronic               0.000              0.000              1.377
 Translational            0.889              2.981             35.068
 Rotational               0.592              1.987             12.708
 Vibrational              7.856              0.188              0.031

 Normal termination of Gaussian 16 at Fri Aug 22 18:09:26 2025.
