 Gaussian 16, Revision C.01,
 Gaussian 16:  ES64L-G16RevC.01  3-Jul-2019

 -----------------------------------------
 # sp b3lyp/6-311g** Force nosymm scf=(qc)
 -----------------------------------------

 -------------------
 Title Card Required
 -------------------
 Symbolic Z-matrix:
 Charge =  0 Multiplicity = 2

                          Input orientation:
 ---------------------------------------------------------------------
 Center     Atomic      Atomic             Coordinates (Angstroms)
 Number     Number       Type             X           Y           Z
 ---------------------------------------------------------------------
      1          1           0        0.000000    0.000000    0.000000
      2          1           0       -3.050000    0.000000    0.000000
      3          9           0        0.600000    0.000000    0.000000
 ---------------------------------------------------------------------

 SCF Done:  E(UB3LYP) =  -100.687983029     a.u. after    6 cycles

 Alpha  occ. eigenvalues --  -24.62723  -1.34716  -0.61021  -0.42969  -0.42969
 Alpha  occ. eigenvalues --   -0.33679
 Alpha virt. eigenvalues --    0.07680   0.25509   0.58177   0.92135   0.92135
 Alpha virt. eigenvalues --    0.93152   1.22671   1.23844   1.23844   1.37221
 Alpha virt. eigenvalues --    1.50277   1.50277   1.95639   2.15094   3.36519

  Beta  occ. eigenvalues --  -24.62721  -1.34711  -0.61018  -0.42969  -0.42969
  Beta virt. eigenvalues --   -0.05817   0.08599   0.39370   0.58285   0.92132
  Beta virt. eigenvalues --    0.92132   0.93160   1.33863   1.50279   1.50279
  Beta virt. eigenvalues --    1.50736   1.50736   1.52447   1.95500   2.44925

 Mulliken charges and spin densities:
               1          2
     1  H    0.236691   0.001114
     2  H    0.001704   0.997796
     3  F   -0.238395   0.001090
 Sum of Mulliken charges =   0.00000   1.00000

 Dipole moment (field-independent basis, Debye):
    X=             -1.4550    Y=             -0.0000    Z=             -0.0000  Tot=              1.4550
 Quadrupole moment (field-independent basis, Debye-Ang):
   XX=             -6.9084   YY=             -6.5514   ZZ=             -6.5514
   XY=             -0.0000   XZ=             -0.0000   YZ=             -0.0000

  Exact polarizability:       3.921      -0.000       2.446      -0.000      -0.000       2.446
 Approx polarizability:       4.086      -0.000       2.427      -0.000      -0.000       2.427

 ******    3 imaginary frequencies (negative Signs) ******

                      1                      2                      3
                      A                      A                      A
 Frequencies --  -5869.1991             -5869.1991               -13.2946
 Red. masses --      1.0422                 1.0422                 1.0532
 Frc consts  --     21.1520                21.1520                 0.0001
 IR Inten    --    235.8981               235.8981                 0.0741

                      4
                      A
 Frequencies --  13070.7170
 Red. masses --      1.0583
 Frc consts  --    106.5278
 IR Inten    --    101.0448

 - Thermochemistry -
 -------------------
 Temperature   298.150 Kelvin.  Pressure   1.00000 Atm.
 Atom     1 has atomic number  1 and mass   1.00783

 Molecular mass:    21.01405 amu.
 Principal axes and moments of inertia in atomic units:
                           1         2         3
     Eigenvalues --     0.00000  46.12572  46.12572
           X            1.00000  -0.00000   0.00000
           Y            0.00000   1.00000   0.00000
           Z            0.00000   0.00000   1.00000
 This molecule is a prolate symmetric top.
 Rotational symmetry number  1.
 Rotational temperature (Kelvin)      1.87778
 Rotational constant (GHZ):          39.126568
    3 imaginary frequencies ignored.
 Zero-point vibrational energy      78180.2 (Joules/Mol)
                                   18.68553 (Kcal/Mol)
 Vibrational temperatures:  18805.85
          (Kelvin)

 Zero-point correction=                           0.029777 (Hartree/Particle)
 Thermal correction to Energy=                    0.032138
 Thermal correction to Enthalpy=                  0.033082
 Thermal correction to Gibbs Free Energy=         0.010037
 Sum of electronic and zero-point Energies=           -100.658206
 Sum of electronic and thermal Energies=              -100.655845
 Sum of electronic and thermal Enthalpies=            -100.654901
 Sum of electronic and thermal Free Energies=         -100.677946

                     E (Thermal)             CV                S
                      KCal/Mol        Cal/Mol-Kelvin    Cal/Mol-Kelvin
 Total                   20.167              4.968             48.503
 Electronic               0.000              0.000              1.377
 Translational            0.889              2.981             35.068
 Rotational               0.592              1.987             12.057
 Vibrational             18.686              0.000              0.000

 Normal termination of Gaussian 16 at Fri Aug 22 15:42:23 2025.
