 Gaussian 16, Revision C.01,
 Gaussian 16:  ES64L-G16RevC.01  3-Jul-2019

 -----------------------------------------
 # sp b3lyp/6-311g** Force nosymm scf=(qc)
 -----------------------------------------

 -------------------
 Title Card Required
 -------------------
 Symbolic Z-matrix:
 Charge =  0 Multiplicity = 2

                          Input orientation:
 ---------------------------------------------------------------------
 Center     Atomic      Atomic             Coordinates (Angstroms)
 Number     Number       Type             X           Y           Z
 ---------------------------------------------------------------------
      1          1           0        0.000000    0.000000    0.000000
      2          1           0       -3.500000    0.000000    0.000000
      3          9           0        2.600000    0.000000    0.000000
 ---------------------------------------------------------------------

 SCF Done:  E(UB3LYP) =  -100.765575872     a.u. after   19 cycles

 Alpha  occ. eigenvalues --  -24.72298  -1.18480  -0.51407  -0.43178  -0.43178
 Alpha  occ. eigenvalues --   -0.32816
 Alpha virt. eigenvalues --   -0.09764   0.23626   0.35514   0.89897   0.93312
 Alpha virt. eigenvalues --    0.93312   1.06017   1.24693   1.24693   1.24862
 Alpha virt. eigenvalues --    1.41467   1.41467   1.44015   2.14559   2.37457

  Beta  occ. eigenvalues --  -24.69407  -1.10237  -0.40293  -0.40293  -0.34967
  Beta virt. eigenvalues --   -0.23700  -0.06708   0.23977   0.37875   0.94712
  Beta virt. eigenvalues --    0.94712   0.97090   1.08713   1.22406   1.22406
  Beta virt. eigenvalues --    1.27235   1.45730   1.46001   1.46001   2.13386

 Mulliken charges and spin densities:
               1          2
     1  H    0.075988  -0.912132
     2  H    0.000787   0.997936
     3  F   -0.076775   0.914196
 Sum of Mulliken charges =  -0.00000   1.00000

 Dipole moment (field-independent basis, Debye):
    X=             -1.0319    Y=             -0.0000    Z=              0.0000  Tot=              1.0319
 Quadrupole moment (field-independent basis, Debye-Ang):
   XX=             -9.1123   YY=             -7.5819   ZZ=             -7.5819
   XY=             -0.0000   XZ=              0.0000   YZ=              0.0000

  Exact polarizability:      31.604      -0.000       2.024       0.000       0.000       2.024
 Approx polarizability:      38.419      -0.000       1.921       0.000      -0.000       1.921

 ******    2 imaginary frequencies (negative Signs) ******

                      1                      2                      3
                      A                      A                      A
 Frequencies --   -559.0565              -120.6056               213.4216
 Red. masses --      1.0532                 1.0584                 1.0219
 Frc consts  --      0.1939                 0.0091                 0.0274
 IR Inten    --     71.4327                 0.3377                 5.5045

                      4
                      A
 Frequencies --    213.4216
 Red. masses --      1.0219
 Frc consts  --      0.0274
 IR Inten    --      5.5045

 - Thermochemistry -
 -------------------
 Temperature   298.150 Kelvin.  Pressure   1.00000 Atm.
 Atom     1 has atomic number  1 and mass   1.00783

 Molecular mass:    21.01405 amu.
 Principal axes and moments of inertia in atomic units:
                           1         2         3
     Eigenvalues --     0.00000 145.18379 145.18379
           X            1.00000  -0.00000   0.00000
           Y            0.00000   1.00000   0.00000
           Z            0.00000   0.00000   1.00000
 This molecule is a prolate symmetric top.
 Rotational symmetry number  1.
 Rotational temperature (Kelvin)      0.59658
 Rotational constant (GHZ):          12.430735
    2 imaginary frequencies ignored.
 Zero-point vibrational energy       2553.1 (Joules/Mol)
                                    0.61020 (Kcal/Mol)
 Warning -- explicit consideration of   2 degrees of freedom as
           vibrations may cause significant error
 Vibrational temperatures:    307.07   307.07
          (Kelvin)

 Zero-point correction=                           0.000972 (Hartree/Particle)
 Thermal correction to Energy=                    0.004413
 Thermal correction to Enthalpy=                  0.005357
 Thermal correction to Gibbs Free Energy=        -0.020685
 Sum of electronic and zero-point Energies=           -100.764603
 Sum of electronic and thermal Energies=              -100.761163
 Sum of electronic and thermal Enthalpies=            -100.760219
 Sum of electronic and thermal Free Energies=         -100.786261

                     E (Thermal)             CV                S
                      KCal/Mol        Cal/Mol-Kelvin    Cal/Mol-Kelvin
 Total                    2.769              8.609             54.810
 Electronic               0.000              0.000              1.377
 Translational            0.889              2.981             35.068
 Rotational               0.592              1.987             14.336
 Vibrational              1.288              3.641              4.028
 Vibration     1          0.644              1.820              2.014
 Vibration     2          0.644              1.820              2.014

 Normal termination of Gaussian 16 at Fri Aug 22 18:05:12 2025.
