 Gaussian 16, Revision C.01,
 Gaussian 16:  ES64L-G16RevC.01  3-Jul-2019

 -----------------------------------------
 # sp b3lyp/6-311g** Force nosymm scf=(qc)
 -----------------------------------------

 -------------------
 Title Card Required
 -------------------
 Symbolic Z-matrix:
 Charge =  0 Multiplicity = 2

                          Input orientation:
 ---------------------------------------------------------------------
 Center     Atomic      Atomic             Coordinates (Angstroms)
 Number     Number       Type             X           Y           Z
 ---------------------------------------------------------------------
      1          1           0        0.000000    0.000000    0.000000
      2          1           0       -0.800000    0.000000    0.000000
      3          9           0        1.300000    0.000000    0.000000
 ---------------------------------------------------------------------

 SCF Done:  E(UB3LYP) =  -100.942571018     a.u. after    6 cycles

 Alpha  occ. eigenvalues --  -24.68590  -1.16865  -0.57452  -0.41100  -0.41100
 Alpha  occ. eigenvalues --   -0.39946
 Alpha virt. eigenvalues --    0.09737   0.19311   0.43195   0.88275   0.88275
 Alpha virt. eigenvalues --    0.97226   1.08496   1.08496   1.38804   1.64435
 Alpha virt. eigenvalues --    1.76077   1.76077   2.07330   2.36697   2.91694

  Beta  occ. eigenvalues --  -24.66399  -1.11058  -0.49110  -0.39023  -0.39023
  Beta virt. eigenvalues --   -0.21883   0.11529   0.20515   0.46812   0.89575
  Beta virt. eigenvalues --    0.89575   1.02074   1.11875   1.11875   1.42597
  Beta virt. eigenvalues --    1.68678   1.78419   1.78419   2.08134   2.42135

 Mulliken charges and spin densities:
               1          2
     1  H    0.211939  -0.047836
     2  H    0.012047   0.409639
     3  F   -0.223986   0.638197
 Sum of Mulliken charges =   0.00000   1.00000

 Dipole moment (field-independent basis, Debye):
    X=             -1.5792    Y=              0.0000    Z=              0.0000  Tot=              1.5792
 Quadrupole moment (field-independent basis, Debye-Ang):
   XX=             -7.2739   YY=             -6.7402   ZZ=             -6.7402
   XY=              0.0000   XZ=              0.0000   YZ=              0.0000

  Exact polarizability:      19.675       0.000       2.433       0.000      -0.000       2.433
 Approx polarizability:      26.219       0.000       2.459       0.000      -0.000       2.459

 ******    3 imaginary frequencies (negative Signs) ******

                      1                      2                      3
                      A                      A                      A
 Frequencies --   -744.0358              -587.8732              -587.8732
 Red. masses --      1.1017                 1.0131                 1.0131
 Frc consts  --      0.3593                 0.2063                 0.2063
 IR Inten    --    150.4798                 6.8348                 6.8348

                      4
                      A
 Frequencies --   2970.8777
 Red. masses --      1.0135
 Frc consts  --      5.2705
 IR Inten    --    572.7710

 - Thermochemistry -
 -------------------
 Temperature   298.150 Kelvin.  Pressure   1.00000 Atm.
 Atom     1 has atomic number  1 and mass   1.00783

 Molecular mass:    21.01405 amu.
 Principal axes and moments of inertia in atomic units:
                           1         2         3
     Eigenvalues --     0.00000  19.95862  19.95862
           X            1.00000  -0.00000   0.00000
           Y            0.00000   1.00000   0.00000
           Z            0.00000   0.00000   1.00000
 This molecule is a prolate symmetric top.
 Rotational symmetry number  1.
 Rotational temperature (Kelvin)      4.33968
 Rotational constant (GHZ):          90.424165
    3 imaginary frequencies ignored.
 Zero-point vibrational energy      17769.8 (Joules/Mol)
                                    4.24708 (Kcal/Mol)
 Vibrational temperatures:   4274.43
          (Kelvin)

 Zero-point correction=                           0.006768 (Hartree/Particle)
 Thermal correction to Energy=                    0.009129
 Thermal correction to Enthalpy=                  0.010073
 Thermal correction to Gibbs Free Energy=        -0.012181
 Sum of electronic and zero-point Energies=           -100.935803
 Sum of electronic and thermal Energies=              -100.933442
 Sum of electronic and thermal Enthalpies=            -100.932498
 Sum of electronic and thermal Free Energies=         -100.954753

                     E (Thermal)             CV                S
                      KCal/Mol        Cal/Mol-Kelvin    Cal/Mol-Kelvin
 Total                    5.728              4.968             46.838
 Electronic               0.000              0.000              1.377
 Translational            0.889              2.981             35.068
 Rotational               0.592              1.987             10.393
 Vibrational              4.247              0.000              0.000

 Normal termination of Gaussian 16 at Fri Aug 22 16:14:10 2025.
