 Gaussian 16, Revision C.01,
 Gaussian 16:  ES64L-G16RevC.01  3-Jul-2019

 -----------------------------------------
 # sp b3lyp/6-311g** Force nosymm scf=(qc)
 -----------------------------------------

 -------------------
 Title Card Required
 -------------------
 Symbolic Z-matrix:
 Charge =  0 Multiplicity = 2

                          Input orientation:
 ---------------------------------------------------------------------
 Center     Atomic      Atomic             Coordinates (Angstroms)
 Number     Number       Type             X           Y           Z
 ---------------------------------------------------------------------
      1          1           0        0.000000    0.000000    0.000000
      2          1           0       -2.950000    0.000000    0.000000
      3          9           0        2.400000    0.000000    0.000000
 ---------------------------------------------------------------------

 SCF Done:  E(UB3LYP) =  -100.770845895     a.u. after   16 cycles

 Alpha  occ. eigenvalues --  -24.71131  -1.17378  -0.50221  -0.42199  -0.42199
 Alpha  occ. eigenvalues --   -0.33374
 Alpha virt. eigenvalues --   -0.11416   0.24001   0.34022   0.89490   0.93928
 Alpha virt. eigenvalues --    0.93928   1.06539   1.24175   1.24175   1.25225
 Alpha virt. eigenvalues --    1.39209   1.39209   1.45721   2.14952   2.33933

  Beta  occ. eigenvalues --  -24.68348  -1.09476  -0.39429  -0.39429  -0.35777
  Beta virt. eigenvalues --   -0.22947  -0.08076   0.24700   0.36527   0.95083
  Beta virt. eigenvalues --    0.95234   0.95234   1.08783   1.21879   1.21879
  Beta virt. eigenvalues --    1.32987   1.44246   1.44246   1.44471   2.13460

 Mulliken charges and spin densities:
               1          2
     1  H    0.101495  -0.869811
     2  H    0.004071   0.991363
     3  F   -0.105566   0.878449
 Sum of Mulliken charges =  -0.00000   1.00000

 Dipole moment (field-independent basis, Debye):
    X=             -1.3411    Y=              0.0000    Z=              0.0000  Tot=              1.3411
 Quadrupole moment (field-independent basis, Debye-Ang):
   XX=             -9.3015   YY=             -7.5726   ZZ=             -7.5726
   XY=              0.0000   XZ=              0.0000   YZ=              0.0000

  Exact polarizability:      34.133       0.000       2.025       0.000      -0.000       2.025
 Approx polarizability:      41.687       0.000       1.920      -0.000       0.000       1.920

 ******    2 imaginary frequencies (negative Signs) ******

                      1                      2                      3
                      A                      A                      A
 Frequencies --   -723.5166              -228.9591               289.8339
 Red. masses --      1.0457                 1.0661                 1.0206
 Frc consts  --      0.3225                 0.0329                 0.0505
 IR Inten    --     83.3819                 3.5868                 9.3480

                      4
                      A
 Frequencies --    289.8339
 Red. masses --      1.0206
 Frc consts  --      0.0505
 IR Inten    --      9.3480

 - Thermochemistry -
 -------------------
 Temperature   298.150 Kelvin.  Pressure   1.00000 Atm.
 Atom     1 has atomic number  1 and mass   1.00783

 Molecular mass:    21.01405 amu.
 Principal axes and moments of inertia in atomic units:
                           1         2         3
     Eigenvalues --     0.00000 113.37571 113.37571
           X            1.00000  -0.00000   0.00000
           Y            0.00000   1.00000   0.00000
           Z            0.00000   0.00000   1.00000
 This molecule is a prolate symmetric top.
 Rotational symmetry number  1.
 Rotational temperature (Kelvin)      0.76395
 Rotational constant (GHZ):          15.918235
    2 imaginary frequencies ignored.
 Zero-point vibrational energy       3467.2 (Joules/Mol)
                                    0.82868 (Kcal/Mol)
 Warning -- explicit consideration of   2 degrees of freedom as
           vibrations may cause significant error
 Vibrational temperatures:    417.01   417.01
          (Kelvin)

 Zero-point correction=                           0.001321 (Hartree/Particle)
 Thermal correction to Energy=                    0.004547
 Thermal correction to Enthalpy=                  0.005491
 Thermal correction to Gibbs Free Energy=        -0.019805
 Sum of electronic and zero-point Energies=           -100.769525
 Sum of electronic and thermal Energies=              -100.766299
 Sum of electronic and thermal Enthalpies=            -100.765355
 Sum of electronic and thermal Free Energies=         -100.790651

                     E (Thermal)             CV                S
                      KCal/Mol        Cal/Mol-Kelvin    Cal/Mol-Kelvin
 Total                    2.853              8.353             53.240
 Electronic               0.000              0.000              1.377
 Translational            0.889              2.981             35.068
 Rotational               0.592              1.987             13.845
 Vibrational              1.372              3.385              2.950
 Vibration     1          0.686              1.693              1.475
 Vibration     2          0.686              1.693              1.475

 Normal termination of Gaussian 16 at Fri Aug 22 17:33:03 2025.
