 Gaussian 16, Revision C.01,
 Gaussian 16:  ES64L-G16RevC.01  3-Jul-2019

 -----------------------------------------
 # sp b3lyp/6-311g** Force nosymm scf=(qc)
 -----------------------------------------

 -------------------
 Title Card Required
 -------------------
 Symbolic Z-matrix:
 Charge =  0 Multiplicity = 2

                          Input orientation:
 ---------------------------------------------------------------------
 Center     Atomic      Atomic             Coordinates (Angstroms)
 Number     Number       Type             X           Y           Z
 ---------------------------------------------------------------------
      1          1           0        0.000000    0.000000    0.000000
      2          1           0       -3.150000    0.000000    0.000000
      3          9           0        4.000000    0.000000    0.000000
 ---------------------------------------------------------------------

 SCF Done:  E(UB3LYP) =  -100.759130963     a.u. after   47 cycles

 Alpha  occ. eigenvalues --  -24.75885  -1.21812  -0.55010  -0.46188  -0.46188
 Alpha  occ. eigenvalues --   -0.32307
 Alpha virt. eigenvalues --   -0.07310   0.24828   0.37006   0.86561   0.91166
 Alpha virt. eigenvalues --    0.91166   1.01078   1.25215   1.25215   1.25679
 Alpha virt. eigenvalues --    1.44806   1.44969   1.44969   2.15611   2.40113

  Beta  occ. eigenvalues --  -24.72740  -1.12767  -0.43034  -0.43034  -0.32484
  Beta virt. eigenvalues --   -0.25736  -0.07107   0.24682   0.37263   0.92665
  Beta virt. eigenvalues --    0.92665   0.95942   1.05207   1.25024   1.25024
  Beta virt. eigenvalues --    1.25474   1.45109   1.45269   1.45269   2.15609

 Mulliken charges and spin densities:
               1          2
     1  H    0.002196  -0.992155
     2  H    0.000167   0.994801
     3  F   -0.002364   0.997354
 Sum of Mulliken charges =  -0.00000   1.00000

 Dipole moment (field-independent basis, Debye):
    X=             -0.0516    Y=              0.0000    Z=             -0.0000  Tot=              0.0516
 Quadrupole moment (field-independent basis, Debye-Ang):
   XX=             -6.8600   YY=             -7.6314   ZZ=             -7.6314
   XY=              0.0000   XZ=             -0.0000   YZ=             -0.0000

  Exact polarizability:      12.218       0.000       2.032      -0.000       0.000       2.032
 Approx polarizability:       9.230       0.000       1.935      -0.000       0.000       1.935

 ******    2 imaginary frequencies (negative Signs) ******

                      1                      2                      3
                      A                      A                      A
 Frequencies --   -279.7889               -73.4103                97.7958
 Red. masses --      1.0084                 1.1078                 1.0153
 Frc consts  --      0.0465                 0.0035                 0.0057
 IR Inten    --      0.6142                 0.5183                 0.0043

                      4
                      A
 Frequencies --     97.7958
 Red. masses --      1.0153
 Frc consts  --      0.0057
 IR Inten    --      0.0043

 - Thermochemistry -
 -------------------
 Temperature   298.150 Kelvin.  Pressure   1.00000 Atm.
 Atom     1 has atomic number  1 and mass   1.00783

 Molecular mass:    21.01405 amu.
 Principal axes and moments of inertia in atomic units:
                           1         2         3
     Eigenvalues --     0.00000 220.11553 220.11553
           X            1.00000  -0.00000   0.00000
           Y            0.00000   1.00000   0.00000
           Z            0.00000   0.00000   1.00000
 This molecule is a prolate symmetric top.
 Rotational symmetry number  1.
 Rotational temperature (Kelvin)      0.39349
 Rotational constant (GHZ):           8.199064
    2 imaginary frequencies ignored.
 Zero-point vibrational energy       1169.9 (Joules/Mol)
                                    0.27961 (Kcal/Mol)
 Warning -- explicit consideration of   2 degrees of freedom as
           vibrations may cause significant error
 Vibrational temperatures:    140.71   140.71
          (Kelvin)

 Zero-point correction=                           0.000446 (Hartree/Particle)
 Thermal correction to Energy=                    0.004284
 Thermal correction to Enthalpy=                  0.005228
 Thermal correction to Gibbs Free Energy=        -0.022617
 Sum of electronic and zero-point Energies=           -100.758685
 Sum of electronic and thermal Energies=              -100.754847
 Sum of electronic and thermal Enthalpies=            -100.753903
 Sum of electronic and thermal Free Energies=         -100.781748

                     E (Thermal)             CV                S
                      KCal/Mol        Cal/Mol-Kelvin    Cal/Mol-Kelvin
 Total                    2.688              8.869             58.604
 Electronic               0.000              0.000              1.377
 Translational            0.889              2.981             35.068
 Rotational               0.592              1.987             15.163
 Vibrational              1.207              3.901              6.996
 Vibration     1          0.603              1.951              3.498
 Vibration     2          0.603              1.951              3.498

 Normal termination of Gaussian 16 at Sat Aug 23 01:57:13 2025.
