 Gaussian 16, Revision C.01,
 Gaussian 16:  ES64L-G16RevC.01  3-Jul-2019

 -----------------------------------------
 # sp b3lyp/6-311g** Force nosymm scf=(qc)
 -----------------------------------------

 -------------------
 Title Card Required
 -------------------
 Symbolic Z-matrix:
 Charge =  0 Multiplicity = 2

                          Input orientation:
 ---------------------------------------------------------------------
 Center     Atomic      Atomic             Coordinates (Angstroms)
 Number     Number       Type             X           Y           Z
 ---------------------------------------------------------------------
      1          1           0        0.000000    0.000000    0.000000
      2          1           0       -3.750000    0.000000    0.000000
      3          9           0        2.650000    0.000000    0.000000
 ---------------------------------------------------------------------

 SCF Done:  E(UB3LYP) =  -100.764601889     a.u. after   20 cycles

 Alpha  occ. eigenvalues --  -24.72556  -1.18723  -0.51668  -0.43395  -0.43395
 Alpha  occ. eigenvalues --   -0.32696
 Alpha virt. eigenvalues --   -0.09353   0.23595   0.35703   0.89909   0.93168
 Alpha virt. eigenvalues --    0.93168   1.05778   1.24806   1.24806   1.24863
 Alpha virt. eigenvalues --    1.41824   1.41824   1.44133   2.14321   2.38599

  Beta  occ. eigenvalues --  -24.69643  -1.10411  -0.40487  -0.40487  -0.34780
  Beta virt. eigenvalues --   -0.23861  -0.06295   0.23824   0.38074   0.94580
  Beta virt. eigenvalues --    0.94580   0.97407   1.08641   1.22560   1.22560
  Beta virt. eigenvalues --    1.26296   1.46215   1.46434   1.46434   2.13269

 Mulliken charges and spin densities:
               1          2
     1  H    0.070319  -0.920271
     2  H    0.000387   0.998892
     3  F   -0.070706   0.921380
 Sum of Mulliken charges =  -0.00000   1.00000

 Dipole moment (field-independent basis, Debye):
    X=             -0.9643    Y=             -0.0000    Z=             -0.0000  Tot=              0.9643
 Quadrupole moment (field-independent basis, Debye-Ang):
   XX=             -9.0484   YY=             -7.5836   ZZ=             -7.5836
   XY=             -0.0000   XZ=             -0.0000   YZ=              0.0000

  Exact polarizability:      31.134       0.000       2.025       0.000      -0.000       2.025
 Approx polarizability:      37.542       0.000       1.922       0.000      -0.000       1.922

 ******    2 imaginary frequencies (negative Signs) ******

                      1                      2                      3
                      A                      A                      A
 Frequencies --   -525.0455               -91.3038               198.0482
 Red. masses --      1.0551                 1.0565                 1.0227
 Frc consts  --      0.1714                 0.0052                 0.0236
 IR Inten    --     67.4640                 0.1157                 4.7825

                      4
                      A
 Frequencies --    198.0482
 Red. masses --      1.0227
 Frc consts  --      0.0236
 IR Inten    --      4.7825

 - Thermochemistry -
 -------------------
 Temperature   298.150 Kelvin.  Pressure   1.00000 Atm.
 Atom     1 has atomic number  1 and mass   1.00783

 Molecular mass:    21.01405 amu.
 Principal axes and moments of inertia in atomic units:
                           1         2         3
     Eigenvalues --     0.00000 158.55249 158.55249
           X            1.00000  -0.00000   0.00000
           Y            0.00000   1.00000   0.00000
           Z            0.00000   0.00000   1.00000
 This molecule is a prolate symmetric top.
 Rotational symmetry number  1.
 Rotational temperature (Kelvin)      0.54628
 Rotational constant (GHZ):          11.382610
    2 imaginary frequencies ignored.
 Zero-point vibrational energy       2369.2 (Joules/Mol)
                                    0.56625 (Kcal/Mol)
 Warning -- explicit consideration of   2 degrees of freedom as
           vibrations may cause significant error
 Vibrational temperatures:    284.95   284.95
          (Kelvin)

 Zero-point correction=                           0.000902 (Hartree/Particle)
 Thermal correction to Energy=                    0.004390
 Thermal correction to Enthalpy=                  0.005335
 Thermal correction to Gibbs Free Energy=        -0.020921
 Sum of electronic and zero-point Energies=           -100.763700
 Sum of electronic and thermal Energies=              -100.760211
 Sum of electronic and thermal Enthalpies=            -100.759267
 Sum of electronic and thermal Free Energies=         -100.785522

                     E (Thermal)             CV                S
                      KCal/Mol        Cal/Mol-Kelvin    Cal/Mol-Kelvin
 Total                    2.755              8.653             55.259
 Electronic               0.000              0.000              1.377
 Translational            0.889              2.981             35.068
 Rotational               0.592              1.987             14.511
 Vibrational              1.274              3.685              4.302
 Vibration     1          0.637              1.843              2.151
 Vibration     2          0.637              1.843              2.151

 Normal termination of Gaussian 16 at Fri Aug 22 18:16:05 2025.
