 Gaussian 16, Revision C.01,
 Gaussian 16:  ES64L-G16RevC.01  3-Jul-2019

 -----------------------------------------
 # sp b3lyp/6-311g** Force nosymm scf=(qc)
 -----------------------------------------

 -------------------
 Title Card Required
 -------------------
 Symbolic Z-matrix:
 Charge =  0 Multiplicity = 2

                          Input orientation:
 ---------------------------------------------------------------------
 Center     Atomic      Atomic             Coordinates (Angstroms)
 Number     Number       Type             X           Y           Z
 ---------------------------------------------------------------------
      1          1           0        0.000000    0.000000    0.000000
      2          1           0       -1.000000    0.000000    0.000000
      3          9           0        1.550000    0.000000    0.000000
 ---------------------------------------------------------------------

 SCF Done:  E(UB3LYP) =  -100.921628508     a.u. after    9 cycles

 Alpha  occ. eigenvalues --  -24.69560  -1.16488  -0.52706  -0.41286  -0.41286
 Alpha  occ. eigenvalues --   -0.40944
 Alpha virt. eigenvalues --    0.02895   0.20153   0.35046   0.90101   0.90101
 Alpha virt. eigenvalues --    0.98078   1.07571   1.07571   1.16547   1.63491
 Alpha virt. eigenvalues --    1.63601   1.63601   2.21150   2.31548   2.52743

  Beta  occ. eigenvalues --  -24.67163  -1.09904  -0.43793  -0.38953  -0.38953
  Beta virt. eigenvalues --   -0.23613   0.05178   0.21598   0.36779   0.91084
  Beta virt. eigenvalues --    0.91084   1.04082   1.10409   1.10409   1.19823
  Beta virt. eigenvalues --    1.65253   1.65253   1.67054   2.23474   2.35398

 Mulliken charges and spin densities:
               1          2
     1  H    0.138808  -0.098320
     2  H    0.050083   0.365261
     3  F   -0.188892   0.733059
 Sum of Mulliken charges =   0.00000   1.00000

 Dipole moment (field-independent basis, Debye):
    X=             -1.6582    Y=              0.0000    Z=              0.0000  Tot=              1.6582
 Quadrupole moment (field-independent basis, Debye-Ang):
   XX=             -7.2640   YY=             -7.0406   ZZ=             -7.0406
   XY=              0.0000   XZ=              0.0000   YZ=              0.0000

  Exact polarizability:      28.829       0.000       2.344      -0.000       0.000       2.344
 Approx polarizability:      41.571      -0.000       2.341      -0.000       0.000       2.341

 ******    1 imaginary frequencies (negative Signs) ******

                      1                      2                      3
                      A                      A                      A
 Frequencies --  -1526.1197              1080.5974              1278.6737
 Red. masses --      1.0546                 1.0569                 1.0135
 Frc consts  --      1.4472                 0.7272                 0.9763
 IR Inten    --    857.9102               246.5706                 2.9858

                      4
                      A
 Frequencies --   1278.6737
 Red. masses --      1.0135
 Frc consts  --      0.9763
 IR Inten    --      2.9858

 - Thermochemistry -
 -------------------
 Temperature   298.150 Kelvin.  Pressure   1.00000 Atm.
 Atom     1 has atomic number  1 and mass   1.00783

 Molecular mass:    21.01405 amu.
 Principal axes and moments of inertia in atomic units:
                           1         2         3
     Eigenvalues --     0.00000  29.14765  29.14765
           X            1.00000  -0.00000   0.00000
           Y            0.00000   1.00000   0.00000
           Z            0.00000   0.00000   1.00000
 This molecule is a prolate symmetric top.
 Rotational symmetry number  1.
 Rotational temperature (Kelvin)      2.97156
 Rotational constant (GHZ):          61.917214
    1 imaginary frequencies ignored.
 Zero-point vibrational energy      21759.7 (Joules/Mol)
                                    5.20070 (Kcal/Mol)
 Vibrational temperatures:   1554.74  1839.73  1839.73
          (Kelvin)

 Zero-point correction=                           0.008288 (Hartree/Particle)
 Thermal correction to Energy=                    0.010700
 Thermal correction to Enthalpy=                  0.011644
 Thermal correction to Gibbs Free Energy=        -0.011028
 Sum of electronic and zero-point Energies=           -100.913341
 Sum of electronic and thermal Energies=              -100.910929
 Sum of electronic and thermal Enthalpies=            -100.909985
 Sum of electronic and thermal Free Energies=         -100.932657

                     E (Thermal)             CV                S
                      KCal/Mol        Cal/Mol-Kelvin    Cal/Mol-Kelvin
 Total                    6.714              5.583             47.718
 Electronic               0.000              0.000              1.377
 Translational            0.889              2.981             35.068
 Rotational               0.592              1.987             11.145
 Vibrational              5.233              0.615              0.127

 Normal termination of Gaussian 16 at Fri Aug 22 16:27:21 2025.
