 Gaussian 16, Revision C.01,
 Gaussian 16:  ES64L-G16RevC.01  3-Jul-2019

 -----------------------------------------
 # sp b3lyp/6-311g** Force nosymm scf=(qc)
 -----------------------------------------

 -------------------
 Title Card Required
 -------------------
 Symbolic Z-matrix:
 Charge =  0 Multiplicity = 2

                          Input orientation:
 ---------------------------------------------------------------------
 Center     Atomic      Atomic             Coordinates (Angstroms)
 Number     Number       Type             X           Y           Z
 ---------------------------------------------------------------------
      1          1           0        0.000000    0.000000    0.000000
      2          1           0       -1.900000    0.000000    0.000000
      3          9           0        3.450000    0.000000    0.000000
 ---------------------------------------------------------------------

 SCF Done:  E(UB3LYP) =  -100.779706509     a.u. after   30 cycles

 Alpha  occ. eigenvalues --  -24.75571  -1.21521  -0.54694  -0.45928  -0.45928
 Alpha  occ. eigenvalues --   -0.33255
 Alpha virt. eigenvalues --   -0.11192   0.25781   0.31575   0.87761   0.91347
 Alpha virt. eigenvalues --    0.91347   1.01835   1.13167   1.24664   1.24664
 Alpha virt. eigenvalues --    1.37323   1.37323   1.55598   2.13458   2.37789

  Beta  occ. eigenvalues --  -24.72452  -1.12558  -0.42802  -0.42802  -0.33289
  Beta virt. eigenvalues --   -0.25646  -0.10979   0.25721   0.31986   0.92837
  Beta virt. eigenvalues --    0.92837   0.96906   1.05876   1.13193   1.24617
  Beta virt. eigenvalues --    1.24617   1.37598   1.37598   1.55815   2.14040

 Mulliken charges and spin densities:
               1          2
     1  H    0.002073  -0.791804
     2  H    0.007379   0.802925
     3  F   -0.009451   0.988879
 Sum of Mulliken charges =   0.00000   1.00000

 Dipole moment (field-independent basis, Debye):
    X=             -0.2332    Y=              0.0000    Z=             -0.0000  Tot=              0.2332
 Quadrupole moment (field-independent basis, Debye-Ang):
   XX=             -6.4943   YY=             -7.7400   ZZ=             -7.7400
   XY=             -0.0000   XZ=              0.0000   YZ=             -0.0000

  Exact polarizability:      45.787       0.000       1.999      -0.000       0.000       1.999
 Approx polarizability:      43.266      -0.000       1.945       0.000      -0.000       1.945

 ******    2 imaginary frequencies (negative Signs) ******

                      1                      2                      3
                      A                      A                      A
 Frequencies --  -1542.8285              -136.9003               651.6174
 Red. masses --      1.0078                 1.1085                 1.0123
 Frc consts  --      1.4134                 0.0122                 0.2533
 IR Inten    --     14.9213                 7.7034                 0.0006

                      4
                      A
 Frequencies --    651.6174
 Red. masses --      1.0123
 Frc consts  --      0.2533
 IR Inten    --      0.0006

 - Thermochemistry -
 -------------------
 Temperature   298.150 Kelvin.  Pressure   1.00000 Atm.
 Atom     1 has atomic number  1 and mass   1.00783

 Molecular mass:    21.01405 amu.
 Principal axes and moments of inertia in atomic units:
                           1         2         3
     Eigenvalues --     0.00000 132.48314 132.48314
           X            1.00000  -0.00000   0.00000
           Y            0.00000   1.00000   0.00000
           Z            0.00000   0.00000   1.00000
 This molecule is a prolate symmetric top.
 Rotational symmetry number  1.
 Rotational temperature (Kelvin)      0.65377
 Rotational constant (GHZ):          13.622422
    2 imaginary frequencies ignored.
 Zero-point vibrational energy       7795.1 (Joules/Mol)
                                    1.86307 (Kcal/Mol)
 Vibrational temperatures:    937.53   937.53
          (Kelvin)

 Zero-point correction=                           0.002969 (Hartree/Particle)
 Thermal correction to Energy=                    0.005597
 Thermal correction to Enthalpy=                  0.006541
 Thermal correction to Gibbs Free Energy=        -0.017851
 Sum of electronic and zero-point Energies=           -100.776738
 Sum of electronic and thermal Energies=              -100.774110
 Sum of electronic and thermal Enthalpies=            -100.773165
 Sum of electronic and thermal Free Energies=         -100.797557

                     E (Thermal)             CV                S
                      KCal/Mol        Cal/Mol-Kelvin    Cal/Mol-Kelvin
 Total                    3.512              6.817             51.337
 Electronic               0.000              0.000              1.377
 Translational            0.889              2.981             35.068
 Rotational               0.592              1.987             14.154
 Vibrational              2.031              1.849              0.738

 Normal termination of Gaussian 16 at Fri Aug 22 21:40:51 2025.
