 Gaussian 16, Revision C.01,
 Gaussian 16:  ES64L-G16RevC.01  3-Jul-2019

 -----------------------------------------
 # sp b3lyp/6-311g** Force nosymm scf=(qc)
 -----------------------------------------

 -------------------
 Title Card Required
 -------------------
 Symbolic Z-matrix:
 Charge =  0 Multiplicity = 2

                          Input orientation:
 ---------------------------------------------------------------------
 Center     Atomic      Atomic             Coordinates (Angstroms)
 Number     Number       Type             X           Y           Z
 ---------------------------------------------------------------------
      1          1           0        0.000000    0.000000    0.000000
      2          1           0       -3.950000    0.000000    0.000000
      3          9           0        3.150000    0.000000    0.000000
 ---------------------------------------------------------------------

 SCF Done:  E(UB3LYP) =  -100.759974660     a.u. after   21 cycles

 Alpha  occ. eigenvalues --  -24.74566  -1.20591  -0.53687  -0.45078  -0.45078
 Alpha  occ. eigenvalues --   -0.32396
 Alpha virt. eigenvalues --   -0.07226   0.23970   0.36492   0.88815   0.91985
 Alpha virt. eigenvalues --    0.91985   1.03088   1.25100   1.25100   1.25123
 Alpha virt. eigenvalues --    1.45177   1.45177   1.45587   2.14436   2.41409

  Beta  occ. eigenvalues --  -24.71506  -1.11811  -0.42013  -0.42013  -0.33381
  Beta virt. eigenvalues --   -0.25043  -0.05915   0.23754   0.38150   0.93457
  Beta virt. eigenvalues --    0.93457   0.97675   1.06916   1.23971   1.23971
  Beta virt. eigenvalues --    1.24089   1.46623   1.46741   1.46741   2.14635

 Mulliken charges and spin densities:
               1          2
     1  H    0.027240  -0.969385
     2  H    0.000108   0.999310
     3  F   -0.027348   0.970075
 Sum of Mulliken charges =  -0.00000   1.00000

 Dipole moment (field-independent basis, Debye):
    X=             -0.4446    Y=              0.0000    Z=              0.0000  Tot=              0.4446
 Quadrupole moment (field-independent basis, Debye-Ang):
   XX=             -8.0446   YY=             -7.6104   ZZ=             -7.6104
   XY=             -0.0000   XZ=             -0.0000   YZ=             -0.0000

  Exact polarizability:      29.577      -0.000       2.030      -0.000      -0.000       2.030
 Approx polarizability:      28.092      -0.000       1.929      -0.000       0.000       1.929

 ******    2 imaginary frequencies (negative Signs) ******

                      1                      2                      3
                      A                      A                      A
 Frequencies --   -308.5314               -72.5125               103.3963
 Red. masses --      1.0522                 1.0594                 1.0209
 Frc consts  --      0.0590                 0.0033                 0.0064
 IR Inten    --     29.5564                 0.1178                 0.7067

                      4
                      A
 Frequencies --    103.3963
 Red. masses --      1.0209
 Frc consts  --      0.0064
 IR Inten    --      0.7067

 - Thermochemistry -
 -------------------
 Temperature   298.150 Kelvin.  Pressure   1.00000 Atm.
 Atom     1 has atomic number  1 and mass   1.00783

 Molecular mass:    21.01405 amu.
 Principal axes and moments of inertia in atomic units:
                           1         2         3
     Eigenvalues --     0.00000 199.00267 199.00267
           X            1.00000  -0.00000   0.00000
           Y            0.00000   1.00000   0.00000
           Z            0.00000   0.00000   1.00000
 This molecule is a prolate symmetric top.
 Rotational symmetry number  1.
 Rotational temperature (Kelvin)      0.43524
 Rotational constant (GHZ):           9.068930
    2 imaginary frequencies ignored.
 Zero-point vibrational energy       1236.9 (Joules/Mol)
                                    0.29562 (Kcal/Mol)
 Warning -- explicit consideration of   2 degrees of freedom as
           vibrations may cause significant error
 Vibrational temperatures:    148.76   148.76
          (Kelvin)

 Zero-point correction=                           0.000471 (Hartree/Particle)
 Thermal correction to Energy=                    0.004288
 Thermal correction to Enthalpy=                  0.005232
 Thermal correction to Gibbs Free Energy=        -0.022414
 Sum of electronic and zero-point Energies=           -100.759504
 Sum of electronic and thermal Energies=              -100.755687
 Sum of electronic and thermal Enthalpies=            -100.754743
 Sum of electronic and thermal Free Energies=         -100.782389

                     E (Thermal)             CV                S
                      KCal/Mol        Cal/Mol-Kelvin    Cal/Mol-Kelvin
 Total                    2.691              8.861             58.187
 Electronic               0.000              0.000              1.377
 Translational            0.889              2.981             35.068
 Rotational               0.592              1.987             14.963
 Vibrational              1.209              3.893              6.779
 Vibration     1          0.605              1.946              3.389
 Vibration     2          0.605              1.946              3.389

 Normal termination of Gaussian 16 at Fri Aug 22 20:12:16 2025.
