 Gaussian 16, Revision C.01,
 Gaussian 16:  ES64L-G16RevC.01  3-Jul-2019

 -----------------------------------------
 # sp b3lyp/6-311g** Force nosymm scf=(qc)
 -----------------------------------------

 -------------------
 Title Card Required
 -------------------
 Symbolic Z-matrix:
 Charge =  0 Multiplicity = 2

                          Input orientation:
 ---------------------------------------------------------------------
 Center     Atomic      Atomic             Coordinates (Angstroms)
 Number     Number       Type             X           Y           Z
 ---------------------------------------------------------------------
      1          1           0        0.000000    0.000000    0.000000
      2          1           0       -3.550000    0.000000    0.000000
      3          9           0        0.800000    0.000000    0.000000
 ---------------------------------------------------------------------

 SCF Done:  E(UB3LYP) =  -100.950306266     a.u. after    6 cycles

 Alpha  occ. eigenvalues --  -24.63676  -1.23041  -0.56189  -0.40651  -0.40651
 Alpha  occ. eigenvalues --   -0.33484
 Alpha virt. eigenvalues --    0.05082   0.24636   0.45889   0.94203   0.94203
 Alpha virt. eigenvalues --    0.97004   1.23810   1.24028   1.24028   1.29946
 Alpha virt. eigenvalues --    1.39816   1.39816   2.02469   2.14474   2.53074

  Beta  occ. eigenvalues --  -24.63676  -1.23039  -0.56188  -0.40650  -0.40650
  Beta virt. eigenvalues --   -0.05328   0.05540   0.39266   0.45868   0.94204
  Beta virt. eigenvalues --    0.94204   0.96996   1.29571   1.39816   1.39816
  Beta virt. eigenvalues --    1.50722   1.50962   1.50962   2.02531   2.44562

 Mulliken charges and spin densities:
               1          2
     1  H    0.274668   0.000572
     2  H    0.000737   0.999106
     3  F   -0.275405   0.000322
 Sum of Mulliken charges =   0.00000   1.00000

 Dipole moment (field-independent basis, Debye):
    X=             -1.7424    Y=              0.0000    Z=              0.0000  Tot=              1.7424
 Quadrupole moment (field-independent basis, Debye-Ang):
   XX=             -7.6024   YY=             -6.7692   ZZ=             -6.7692
   XY=              0.0000   XZ=              0.0000   YZ=             -0.0000

  Exact polarizability:       4.655      -0.000       2.442       0.000       0.000       2.442
 Approx polarizability:       5.222      -0.000       2.423       0.000       0.000       2.423

 ******    3 imaginary frequencies (negative Signs) ******

                      1                      2                      3
                      A                      A                      A
 Frequencies --  -1980.8806             -1980.8806               -39.5091
 Red. masses --      1.0404                 1.0404                 1.0532
 Frc consts  --      2.4052                 2.4052                 0.0010
 IR Inten    --    196.3355               196.3355                 0.0284

                      4
                      A
 Frequencies --   6349.8022
 Red. masses --      1.0583
 Frc consts  --     25.1411
 IR Inten    --    105.4898

 - Thermochemistry -
 -------------------
 Temperature   298.150 Kelvin.  Pressure   1.00000 Atm.
 Atom     1 has atomic number  1 and mass   1.00783

 Molecular mass:    21.01405 amu.
 Principal axes and moments of inertia in atomic units:
                           1         2         3
     Eigenvalues --     0.00000  65.82764  65.82764
           X            1.00000  -0.00000   0.00000
           Y            0.00000   1.00000   0.00000
           Z            0.00000   0.00000   1.00000
 This molecule is a prolate symmetric top.
 Rotational symmetry number  1.
 Rotational temperature (Kelvin)      1.31577
 Rotational constant (GHZ):          27.416162
    3 imaginary frequencies ignored.
 Zero-point vibrational energy      37980.3 (Joules/Mol)
                                    9.07750 (Kcal/Mol)
 Vibrational temperatures:   9135.95
          (Kelvin)

 Zero-point correction=                           0.014466 (Hartree/Particle)
 Thermal correction to Energy=                    0.016826
 Thermal correction to Enthalpy=                  0.017771
 Thermal correction to Gibbs Free Energy=        -0.005611
 Sum of electronic and zero-point Energies=           -100.935840
 Sum of electronic and thermal Energies=              -100.933480
 Sum of electronic and thermal Enthalpies=            -100.932536
 Sum of electronic and thermal Free Energies=         -100.955917

                     E (Thermal)             CV                S
                      KCal/Mol        Cal/Mol-Kelvin    Cal/Mol-Kelvin
 Total                   10.559              4.968             49.210
 Electronic               0.000              0.000              1.377
 Translational            0.889              2.981             35.068
 Rotational               0.592              1.987             12.764
 Vibrational              9.077              0.000              0.000

 Normal termination of Gaussian 16 at Fri Aug 22 15:52:06 2025.
