 Gaussian 16, Revision C.01,
 Gaussian 16:  ES64L-G16RevC.01  3-Jul-2019

 -----------------------------------------
 # sp b3lyp/6-311g** Force nosymm scf=(qc)
 -----------------------------------------

 -------------------
 Title Card Required
 -------------------
 Symbolic Z-matrix:
 Charge =  0 Multiplicity = 2

                          Input orientation:
 ---------------------------------------------------------------------
 Center     Atomic      Atomic             Coordinates (Angstroms)
 Number     Number       Type             X           Y           Z
 ---------------------------------------------------------------------
      1          1           0        0.000000    0.000000    0.000000
      2          1           0       -3.450000    0.000000    0.000000
      3          9           0        2.500000    0.000000    0.000000
 ---------------------------------------------------------------------

 SCF Done:  E(UB3LYP) =  -100.767541901     a.u. after   19 cycles

 Alpha  occ. eigenvalues --  -24.71737  -1.17954  -0.50840  -0.42709  -0.42709
 Alpha  occ. eigenvalues --   -0.32925
 Alpha virt. eigenvalues --   -0.10323   0.23519   0.35203   0.89672   0.93615
 Alpha virt. eigenvalues --    0.93615   1.06279   1.24587   1.24587   1.24790
 Alpha virt. eigenvalues --    1.40569   1.40569   1.44755   2.14542   2.36383

  Beta  occ. eigenvalues --  -24.68896  -1.09867  -0.39877  -0.39877  -0.35360
  Beta virt. eigenvalues --   -0.23339  -0.06842   0.23962   0.37815   0.94978
  Beta virt. eigenvalues --    0.94978   0.96021   1.08620   1.22099   1.22099
  Beta virt. eigenvalues --    1.29699   1.45604   1.45873   1.45873   2.12947

 Mulliken charges and spin densities:
               1          2
     1  H    0.089429  -0.895471
     2  H    0.001015   0.997641
     3  F   -0.090445   0.897830
 Sum of Mulliken charges =  -0.00000   1.00000

 Dipole moment (field-independent basis, Debye):
    X=             -1.1670    Y=             -0.0000    Z=             -0.0000  Tot=              1.1670
 Quadrupole moment (field-independent basis, Debye-Ang):
   XX=             -9.2909   YY=             -7.5720   ZZ=             -7.5720
   XY=             -0.0000   XZ=             -0.0000   YZ=              0.0000

  Exact polarizability:      31.152       0.000       2.025       0.000      -0.000       2.025
 Approx polarizability:      39.085       0.000       1.920       0.000       0.000       1.920

 ******    2 imaginary frequencies (negative Signs) ******

                      1                      2                      3
                      A                      A                      A
 Frequencies --   -621.0265              -128.0287               242.8038
 Red. masses --      1.0536                 1.0579                 1.0223
 Frc consts  --      0.2394                 0.0102                 0.0355
 IR Inten    --     80.1243                 0.3757                 7.6062

                      4
                      A
 Frequencies --    242.8038
 Red. masses --      1.0223
 Frc consts  --      0.0355
 IR Inten    --      7.6062

 - Thermochemistry -
 -------------------
 Temperature   298.150 Kelvin.  Pressure   1.00000 Atm.
 Atom     1 has atomic number  1 and mass   1.00783

 Molecular mass:    21.01405 amu.
 Principal axes and moments of inertia in atomic units:
                           1         2         3
     Eigenvalues --     0.00000 137.58314 137.58314
           X            1.00000  -0.00000   0.00000
           Y            0.00000   1.00000   0.00000
           Z            0.00000   0.00000   1.00000
 This molecule is a prolate symmetric top.
 Rotational symmetry number  1.
 Rotational temperature (Kelvin)      0.62954
 Rotational constant (GHZ):          13.117459
    2 imaginary frequencies ignored.
 Zero-point vibrational energy       2904.6 (Joules/Mol)
                                    0.69421 (Kcal/Mol)
 Warning -- explicit consideration of   2 degrees of freedom as
           vibrations may cause significant error
 Vibrational temperatures:    349.34   349.34
          (Kelvin)

 Zero-point correction=                           0.001106 (Hartree/Particle)
 Thermal correction to Energy=                    0.004460
 Thermal correction to Enthalpy=                  0.005404
 Thermal correction to Gibbs Free Energy=        -0.020366
 Sum of electronic and zero-point Energies=           -100.766436
 Sum of electronic and thermal Energies=              -100.763082
 Sum of electronic and thermal Enthalpies=            -100.762138
 Sum of electronic and thermal Free Energies=         -100.787908

                     E (Thermal)             CV                S
                      KCal/Mol        Cal/Mol-Kelvin    Cal/Mol-Kelvin
 Total                    2.799              8.517             54.239
 Electronic               0.000              0.000              1.377
 Translational            0.889              2.981             35.068
 Rotational               0.592              1.987             14.229
 Vibrational              1.318              3.549              3.564
 Vibration     1          0.659              1.775              1.782
 Vibration     2          0.659              1.775              1.782

 Normal termination of Gaussian 16 at Fri Aug 22 17:46:11 2025.
