 Gaussian 16, Revision C.01,
 Gaussian 16:  ES64L-G16RevC.01  3-Jul-2019

 -----------------------------------------
 # sp b3lyp/6-311g** Force nosymm scf=(qc)
 -----------------------------------------

 -------------------
 Title Card Required
 -------------------
 Symbolic Z-matrix:
 Charge =  0 Multiplicity = 2

                          Input orientation:
 ---------------------------------------------------------------------
 Center     Atomic      Atomic             Coordinates (Angstroms)
 Number     Number       Type             X           Y           Z
 ---------------------------------------------------------------------
      1          1           0        0.000000    0.000000    0.000000
      2          1           0       -1.850000    0.000000    0.000000
      3          9           0        1.650000    0.000000    0.000000
 ---------------------------------------------------------------------

 SCF Done:  E(UB3LYP) =  -100.838964846     a.u. after   15 cycles

 Alpha  occ. eigenvalues --  -24.65123  -1.11378  -0.44906  -0.37838  -0.37130
 Alpha  occ. eigenvalues --   -0.37130
 Alpha virt. eigenvalues --   -0.12007   0.22752   0.28742   0.93357   0.94660
 Alpha virt. eigenvalues --    0.94660   1.04404   1.19441   1.19441   1.34052
 Alpha virt. eigenvalues --    1.34493   1.34493   1.73858   2.12138   2.31121

  Beta  occ. eigenvalues --  -24.63572  -1.07166  -0.39859  -0.35631  -0.35631
  Beta virt. eigenvalues --   -0.20375  -0.09039   0.25501   0.30717   0.94555
  Beta virt. eigenvalues --    0.94555   0.96388   1.07551   1.26515   1.26515
  Beta virt. eigenvalues --    1.35853   1.35853   1.43449   1.74097   2.14447

 Mulliken charges and spin densities:
               1          2
     1  H    0.238172  -0.360374
     2  H    0.058964   0.874158
     3  F   -0.297136   0.486216
 Sum of Mulliken charges =   0.00000   1.00000

 Dipole moment (field-independent basis, Debye):
    X=             -2.9228    Y=              0.0000    Z=             -0.0000  Tot=              2.9228
 Quadrupole moment (field-independent basis, Debye-Ang):
   XX=             -8.6788   YY=             -7.3875   ZZ=             -7.3875
   XY=              0.0000   XZ=             -0.0000   YZ=             -0.0000

  Exact polarizability:      39.727       0.000       2.177      -0.000      -0.000       2.177
 Approx polarizability:      53.347       0.000       2.095      -0.000       0.000       2.095

 ******    2 imaginary frequencies (negative Signs) ******

                      1                      2                      3
                      A                      A                      A
 Frequencies --  -2146.9362              -576.3037               881.6374
 Red. masses --      1.0299                 1.0830                 1.0194
 Frc consts  --      2.7969                 0.2119                 0.4668
 IR Inten    --    124.0011                 4.2305                35.0059

                      4
                      A
 Frequencies --    881.6374
 Red. masses --      1.0194
 Frc consts  --      0.4668
 IR Inten    --     35.0059

 - Thermochemistry -
 -------------------
 Temperature   298.150 Kelvin.  Pressure   1.00000 Atm.
 Atom     1 has atomic number  1 and mass   1.00783

 Molecular mass:    21.01405 amu.
 Principal axes and moments of inertia in atomic units:
                           1         2         3
     Eigenvalues --     0.00000  49.30819  49.30819
           X            1.00000  -0.00000   0.00000
           Y            0.00000   1.00000   0.00000
           Z            0.00000   0.00000   1.00000
 This molecule is a prolate symmetric top.
 Rotational symmetry number  1.
 Rotational temperature (Kelvin)      1.75658
 Rotational constant (GHZ):          36.601247
    2 imaginary frequencies ignored.
 Zero-point vibrational energy      10546.7 (Joules/Mol)
                                    2.52073 (Kcal/Mol)
 Vibrational temperatures:   1268.48  1268.48
          (Kelvin)

 Zero-point correction=                           0.004017 (Hartree/Particle)
 Thermal correction to Energy=                    0.006493
 Thermal correction to Enthalpy=                  0.007437
 Thermal correction to Gibbs Free Energy=        -0.015814
 Sum of electronic and zero-point Energies=           -100.834948
 Sum of electronic and thermal Energies=              -100.832472
 Sum of electronic and thermal Enthalpies=            -100.831527
 Sum of electronic and thermal Free Energies=         -100.854778

                     E (Thermal)             CV                S
                      KCal/Mol        Cal/Mol-Kelvin    Cal/Mol-Kelvin
 Total                    4.075              6.019             48.936
 Electronic               0.000              0.000              1.377
 Translational            0.889              2.981             35.068
 Rotational               0.592              1.987             12.190
 Vibrational              2.593              1.051              0.300

 Normal termination of Gaussian 16 at Fri Aug 22 16:34:09 2025.
