 Gaussian 16, Revision C.01,
 Gaussian 16:  ES64L-G16RevC.01  3-Jul-2019

 -----------------------------------------
 # sp b3lyp/6-311g** Force nosymm scf=(qc)
 -----------------------------------------

 -------------------
 Title Card Required
 -------------------
 Symbolic Z-matrix:
 Charge =  0 Multiplicity = 2

                          Input orientation:
 ---------------------------------------------------------------------
 Center     Atomic      Atomic             Coordinates (Angstroms)
 Number     Number       Type             X           Y           Z
 ---------------------------------------------------------------------
      1          1           0        0.000000    0.000000    0.000000
      2          1           0       -1.550000    0.000000    0.000000
      3          9           0        1.650000    0.000000    0.000000
 ---------------------------------------------------------------------

 SCF Done:  E(UB3LYP) =  -100.854937715     a.u. after   11 cycles

 Alpha  occ. eigenvalues --  -24.66125  -1.12623  -0.46782  -0.38711  -0.38093
 Alpha  occ. eigenvalues --   -0.38093
 Alpha virt. eigenvalues --   -0.09262   0.21486   0.29448   0.90905   0.93920
 Alpha virt. eigenvalues --    0.93920   1.03410   1.16303   1.16303   1.38483
 Alpha virt. eigenvalues --    1.38483   1.40723   1.84358   2.17860   2.40943

  Beta  occ. eigenvalues --  -24.64272  -1.07560  -0.39932  -0.36294  -0.36294
  Beta virt. eigenvalues --   -0.22147  -0.06483   0.24410   0.29983   0.94113
  Beta virt. eigenvalues --    0.94113   0.94833   1.07078   1.21583   1.21583
  Beta virt. eigenvalues --    1.39431   1.39431   1.46230   1.87266   2.19657

 Mulliken charges and spin densities:
               1          2
     1  H    0.196063  -0.308602
     2  H    0.071811   0.730412
     3  F   -0.267874   0.578190
 Sum of Mulliken charges =   0.00000   1.00000

 Dipole moment (field-independent basis, Debye):
    X=             -2.6955    Y=             -0.0000    Z=             -0.0000  Tot=              2.6955
 Quadrupole moment (field-independent basis, Debye-Ang):
   XX=             -8.1926   YY=             -7.3503   ZZ=             -7.3503
   XY=              0.0000   XZ=              0.0000   YZ=             -0.0000

  Exact polarizability:      41.971       0.000       2.222       0.000       0.000       2.222
 Approx polarizability:      61.829       0.000       2.155       0.000       0.000       2.155

 ******    2 imaginary frequencies (negative Signs) ******

                      1                      2                      3
                      A                      A                      A
 Frequencies --  -2461.9876              -544.0946              1019.0764
 Red. masses --      1.0209                 1.0931                 1.0172
 Frc consts  --      3.6459                 0.1907                 0.6224
 IR Inten    --    495.3125                 0.0001                16.9949

                      4
                      A
 Frequencies --   1019.0764
 Red. masses --      1.0172
 Frc consts  --      0.6224
 IR Inten    --     16.9949

 - Thermochemistry -
 -------------------
 Temperature   298.150 Kelvin.  Pressure   1.00000 Atm.
 Atom     1 has atomic number  1 and mass   1.00783

 Molecular mass:    21.01405 amu.
 Principal axes and moments of inertia in atomic units:
                           1         2         3
     Eigenvalues --     0.00000  42.59200  42.59200
           X            1.00000  -0.00000   0.00000
           Y            0.00000   1.00000   0.00000
           Z            0.00000   0.00000   1.00000
 This molecule is a prolate symmetric top.
 Rotational symmetry number  1.
 Rotational temperature (Kelvin)      2.03357
 Rotational constant (GHZ):          42.372772
    2 imaginary frequencies ignored.
 Zero-point vibrational energy      12190.9 (Joules/Mol)
                                    2.91369 (Kcal/Mol)
 Vibrational temperatures:   1466.22  1466.22
          (Kelvin)

 Zero-point correction=                           0.004643 (Hartree/Particle)
 Thermal correction to Energy=                    0.007072
 Thermal correction to Enthalpy=                  0.008016
 Thermal correction to Gibbs Free Energy=        -0.015036
 Sum of electronic and zero-point Energies=           -100.850294
 Sum of electronic and thermal Energies=              -100.847866
 Sum of electronic and thermal Enthalpies=            -100.846921
 Sum of electronic and thermal Free Energies=         -100.869974

                     E (Thermal)             CV                S
                      KCal/Mol        Cal/Mol-Kelvin    Cal/Mol-Kelvin
 Total                    4.438              5.682             48.518
 Electronic               0.000              0.000              1.377
 Translational            0.889              2.981             35.068
 Rotational               0.592              1.987             11.899
 Vibrational              2.957              0.714              0.173

 Normal termination of Gaussian 16 at Fri Aug 22 16:33:52 2025.
