 Gaussian 16, Revision C.01,
 Gaussian 16:  ES64L-G16RevC.01  3-Jul-2019

 -----------------------------------------
 # sp b3lyp/6-311g** Force nosymm scf=(qc)
 -----------------------------------------

 -------------------
 Title Card Required
 -------------------
 Symbolic Z-matrix:
 Charge =  0 Multiplicity = 2

                          Input orientation:
 ---------------------------------------------------------------------
 Center     Atomic      Atomic             Coordinates (Angstroms)
 Number     Number       Type             X           Y           Z
 ---------------------------------------------------------------------
      1          1           0        0.000000    0.000000    0.000000
      2          1           0       -0.950000    0.000000    0.000000
      3          9           0        2.100000    0.000000    0.000000
 ---------------------------------------------------------------------

 SCF Done:  E(UB3LYP) =  -100.917026661     a.u. after    7 cycles

 Alpha  occ. eigenvalues --  -24.74449  -1.20539  -0.54051  -0.45038  -0.45038
 Alpha  occ. eigenvalues --   -0.41335
 Alpha virt. eigenvalues --    0.01916   0.21062   0.39716   0.89875   0.91251
 Alpha virt. eigenvalues --    0.91251   1.07125   1.07125   1.11309   1.48895
 Alpha virt. eigenvalues --    1.67358   1.67358   2.20072   2.35722   2.64926

  Beta  occ. eigenvalues --  -24.71455  -1.12001  -0.42051  -0.42051  -0.41273
  Beta virt. eigenvalues --   -0.25590   0.02875   0.21613   0.40152   0.92621
  Beta virt. eigenvalues --    0.92621   0.97767   1.07815   1.07815   1.14576
  Beta virt. eigenvalues --    1.50614   1.67812   1.67812   2.20946   2.36399

 Mulliken charges and spin densities:
               1          2
     1  H    0.008296  -0.037927
     2  H    0.034230   0.096484
     3  F   -0.042526   0.941443
 Sum of Mulliken charges =   0.00000   1.00000

 Dipole moment (field-independent basis, Debye):
    X=             -0.5875    Y=              0.0000    Z=              0.0000  Tot=              0.5875
 Quadrupole moment (field-independent basis, Debye-Ang):
   XX=             -6.2309   YY=             -7.1644   ZZ=             -7.1644
   XY=              0.0000   XZ=              0.0000   YZ=              0.0000

  Exact polarizability:      26.466       0.000       2.134      -0.000      -0.000       2.134
 Approx polarizability:      31.856       0.000       2.170      -0.000      -0.000       2.170

 ******    1 imaginary frequencies (negative Signs) ******

                      1                      2                      3
                      A                      A                      A
 Frequencies --   -328.3359              1432.8941              1432.8941
 Red. masses --      1.1080                 1.0112                 1.0112
 Frc consts  --      0.0704                 1.2232                 1.2232
 IR Inten    --     57.2242                 0.0827                 0.0827

                      4
                      A
 Frequencies --   2042.5129
 Red. masses --      1.0082
 Frc consts  --      2.4783
 IR Inten    --    370.4690

 - Thermochemistry -
 -------------------
 Temperature   298.150 Kelvin.  Pressure   1.00000 Atm.
 Atom     1 has atomic number  1 and mass   1.00783

 Molecular mass:    21.01405 amu.
 Principal axes and moments of inertia in atomic units:
                           1         2         3
     Eigenvalues --     0.00000  44.77344  44.77344
           X            1.00000  -0.00000   0.00000
           Y            0.00000   1.00000   0.00000
           Z            0.00000   0.00000   1.00000
 This molecule is a prolate symmetric top.
 Rotational symmetry number  1.
 Rotational temperature (Kelvin)      1.93449
 Rotational constant (GHZ):          40.308301
    1 imaginary frequencies ignored.
 Zero-point vibrational energy      29358.2 (Joules/Mol)
                                    7.01677 (Kcal/Mol)
 Vibrational temperatures:   2061.62  2061.62  2938.72
          (Kelvin)

 Zero-point correction=                           0.011182 (Hartree/Particle)
 Thermal correction to Energy=                    0.013556
 Thermal correction to Enthalpy=                  0.014500
 Thermal correction to Gibbs Free Energy=        -0.008533
 Sum of electronic and zero-point Energies=           -100.905845
 Sum of electronic and thermal Energies=              -100.903471
 Sum of electronic and thermal Enthalpies=            -100.902527
 Sum of electronic and thermal Free Energies=         -100.925559

                     E (Thermal)             CV                S
                      KCal/Mol        Cal/Mol-Kelvin    Cal/Mol-Kelvin
 Total                    8.506              5.167             48.476
 Electronic               0.000              0.000              1.377
 Translational            0.889              2.981             35.068
 Rotational               0.592              1.987             11.998
 Vibrational              7.025              0.199              0.032

 Normal termination of Gaussian 16 at Fri Aug 22 17:02:51 2025.
