 Gaussian 16, Revision C.01,
 Gaussian 16:  ES64L-G16RevC.01  3-Jul-2019

 -----------------------------------------
 # sp b3lyp/6-311g** Force nosymm scf=(qc)
 -----------------------------------------

 -------------------
 Title Card Required
 -------------------
 Symbolic Z-matrix:
 Charge =  0 Multiplicity = 2

                          Input orientation:
 ---------------------------------------------------------------------
 Center     Atomic      Atomic             Coordinates (Angstroms)
 Number     Number       Type             X           Y           Z
 ---------------------------------------------------------------------
      1          1           0        0.000000    0.000000    0.000000
      2          1           0       -3.300000    0.000000    0.000000
      3          9           0        2.900000    0.000000    0.000000
 ---------------------------------------------------------------------

 SCF Done:  E(UB3LYP) =  -100.762069234     a.u. after   20 cycles

 Alpha  occ. eigenvalues --  -24.73709  -1.19796  -0.52827  -0.44360  -0.44360
 Alpha  occ. eigenvalues --   -0.32664
 Alpha virt. eigenvalues --   -0.08778   0.24142   0.35680   0.89706   0.92500
 Alpha virt. eigenvalues --    0.92500   1.04506   1.24852   1.24852   1.25184
 Alpha virt. eigenvalues --    1.43097   1.43097   1.43550   2.15036   2.39066

  Beta  occ. eigenvalues --  -24.70709  -1.11206  -0.41358  -0.41358  -0.34003
  Beta virt. eigenvalues --   -0.24559  -0.06975   0.24215   0.37525   0.93952
  Beta virt. eigenvalues --    0.93952   0.98227   1.08137   1.23328   1.23328
  Beta virt. eigenvalues --    1.24295   1.45356   1.45606   1.45606   2.15099

 Mulliken charges and spin densities:
               1          2
     1  H    0.044112  -0.947052
     2  H    0.000875   0.996600
     3  F   -0.044986   0.950452
 Sum of Mulliken charges =  -0.00000   1.00000

 Dipole moment (field-independent basis, Debye):
    X=             -0.6834    Y=             -0.0000    Z=              0.0000  Tot=              0.6834
 Quadrupole moment (field-independent basis, Debye-Ang):
   XX=             -8.4747   YY=             -7.6082   ZZ=             -7.6082
   XY=             -0.0000   XZ=              0.0000   YZ=             -0.0000

  Exact polarizability:      33.185       0.000       2.023      -0.000       0.000       2.023
 Approx polarizability:      35.023       0.000       1.924      -0.000       0.000       1.924

 ******    2 imaginary frequencies (negative Signs) ******

                      1                      2                      3
                      A                      A                      A
 Frequencies --   -429.5801              -146.8125               155.8968
 Red. masses --      1.0430                 1.0689                 1.0196
 Frc consts  --      0.1134                 0.0136                 0.0146
 IR Inten    --     45.8959                 1.4083                 1.8035

                      4
                      A
 Frequencies --    155.8968
 Red. masses --      1.0196
 Frc consts  --      0.0146
 IR Inten    --      1.8035

 - Thermochemistry -
 -------------------
 Temperature   298.150 Kelvin.  Pressure   1.00000 Atm.
 Atom     1 has atomic number  1 and mass   1.00783

 Molecular mass:    21.01405 amu.
 Principal axes and moments of inertia in atomic units:
                           1         2         3
     Eigenvalues --     0.00000 154.31997 154.31997
           X            1.00000  -0.00000   0.00000
           Y            0.00000   1.00000   0.00000
           Z            0.00000   0.00000   1.00000
 This molecule is a prolate symmetric top.
 Rotational symmetry number  1.
 Rotational temperature (Kelvin)      0.56126
 Rotational constant (GHZ):          11.694800
    2 imaginary frequencies ignored.
 Zero-point vibrational energy       1864.9 (Joules/Mol)
                                    0.44573 (Kcal/Mol)
 Warning -- explicit consideration of   2 degrees of freedom as
           vibrations may cause significant error
 Vibrational temperatures:    224.30   224.30
          (Kelvin)

 Zero-point correction=                           0.000710 (Hartree/Particle)
 Thermal correction to Energy=                    0.004337
 Thermal correction to Enthalpy=                  0.005281
 Thermal correction to Gibbs Free Energy=        -0.021374
 Sum of electronic and zero-point Energies=           -100.761359
 Sum of electronic and thermal Energies=              -100.757732
 Sum of electronic and thermal Enthalpies=            -100.756788
 Sum of electronic and thermal Free Energies=         -100.783443

                     E (Thermal)             CV                S
                      KCal/Mol        Cal/Mol-Kelvin    Cal/Mol-Kelvin
 Total                    2.722              8.760             56.101
 Electronic               0.000              0.000              1.377
 Translational            0.889              2.981             35.068
 Rotational               0.592              1.987             14.457
 Vibrational              1.240              3.792              5.198
 Vibration     1          0.620              1.896              2.599
 Vibration     2          0.620              1.896              2.599

 Normal termination of Gaussian 16 at Fri Aug 22 19:04:35 2025.
