 Gaussian 16, Revision C.01,
 Gaussian 16:  ES64L-G16RevC.01  3-Jul-2019

 -----------------------------------------
 # sp b3lyp/6-311g** Force nosymm scf=(qc)
 -----------------------------------------

 -------------------
 Title Card Required
 -------------------
 Symbolic Z-matrix:
 Charge =  0 Multiplicity = 2

                          Input orientation:
 ---------------------------------------------------------------------
 Center     Atomic      Atomic             Coordinates (Angstroms)
 Number     Number       Type             X           Y           Z
 ---------------------------------------------------------------------
      1          1           0        0.000000    0.000000    0.000000
      2          1           0       -1.100000    0.000000    0.000000
      3          9           0        1.850000    0.000000    0.000000
 ---------------------------------------------------------------------

 SCF Done:  E(UB3LYP) =  -100.897828392     a.u. after   13 cycles

 Alpha  occ. eigenvalues --  -24.71702  -1.18088  -0.52007  -0.42823  -0.42823
 Alpha  occ. eigenvalues --   -0.40451
 Alpha virt. eigenvalues --   -0.01566   0.21127   0.34656   0.91558   0.91558
 Alpha virt. eigenvalues --    0.92071   1.08025   1.08406   1.08406   1.49444
 Alpha virt. eigenvalues --    1.57334   1.57334   2.16280   2.30072   2.55682

  Beta  occ. eigenvalues --  -24.68978  -1.10422  -0.40625  -0.40127  -0.40127
  Beta virt. eigenvalues --   -0.24612   0.00253   0.22214   0.35350   0.92695
  Beta virt. eigenvalues --    0.92695   0.98909   1.10070   1.10070   1.10813
  Beta virt. eigenvalues --    1.52647   1.58382   1.58382   2.18223   2.31898

 Mulliken charges and spin densities:
               1          2
     1  H    0.062146  -0.102929
     2  H    0.052547   0.252860
     3  F   -0.114693   0.850069
 Sum of Mulliken charges =  -0.00000   1.00000

 Dipole moment (field-independent basis, Debye):
    X=             -1.2991    Y=             -0.0000    Z=             -0.0000  Tot=              1.2991
 Quadrupole moment (field-independent basis, Debye-Ang):
   XX=             -6.9605   YY=             -7.2498   ZZ=             -7.2498
   XY=             -0.0000   XZ=             -0.0000   YZ=             -0.0000

  Exact polarizability:      35.669      -0.000       2.222      -0.000      -0.000       2.222
 Approx polarizability:      50.954       0.000       2.222       0.000       0.000       2.222

 ******    1 imaginary frequencies (negative Signs) ******

                      1                      2                      3
                      A                      A                      A
 Frequencies --  -1216.8205               549.0822              1401.2044
 Red. masses --      1.0394                 1.0727                 1.0129
 Frc consts  --      0.9067                 0.1905                 1.1717
 IR Inten    --    942.0045                97.7158                 0.2732

                      4
                      A
 Frequencies --   1401.2044
 Red. masses --      1.0129
 Frc consts  --      1.1717
 IR Inten    --      0.2732

 - Thermochemistry -
 -------------------
 Temperature   298.150 Kelvin.  Pressure   1.00000 Atm.
 Atom     1 has atomic number  1 and mass   1.00783

 Molecular mass:    21.01405 amu.
 Principal axes and moments of inertia in atomic units:
                           1         2         3
     Eigenvalues --     0.00000  39.66112  39.66112
           X            1.00000  -0.00000   0.00000
           Y            0.00000   1.00000   0.00000
           Z            0.00000   0.00000   1.00000
 This molecule is a prolate symmetric top.
 Rotational symmetry number  1.
 Rotational temperature (Kelvin)      2.18385
 Rotational constant (GHZ):          45.504046
    1 imaginary frequencies ignored.
 Zero-point vibrational energy      20046.4 (Joules/Mol)
                                    4.79120 (Kcal/Mol)
 Warning -- explicit consideration of   1 degrees of freedom as
           vibrations may cause significant error
 Vibrational temperatures:    790.01  2016.02  2016.02
          (Kelvin)

 Zero-point correction=                           0.007635 (Hartree/Particle)
 Thermal correction to Energy=                    0.010201
 Thermal correction to Enthalpy=                  0.011145
 Thermal correction to Gibbs Free Energy=        -0.012034
 Sum of electronic and zero-point Energies=           -100.890193
 Sum of electronic and thermal Energies=              -100.887628
 Sum of electronic and thermal Enthalpies=            -100.886683
 Sum of electronic and thermal Free Energies=         -100.909863

                     E (Thermal)             CV                S
                      KCal/Mol        Cal/Mol-Kelvin    Cal/Mol-Kelvin
 Total                    6.401              6.320             48.785
 Electronic               0.000              0.000              1.377
 Translational            0.889              2.981             35.068
 Rotational               0.592              1.987             11.757
 Vibrational              4.920              1.352              0.582
 Vibration     1          0.904              1.142              0.546

 Normal termination of Gaussian 16 at Fri Aug 22 16:45:52 2025.
