 Gaussian 16, Revision C.01,
 Gaussian 16:  ES64L-G16RevC.01  3-Jul-2019

 -----------------------------------------
 # sp b3lyp/6-311g** Force nosymm scf=(qc)
 -----------------------------------------

 -------------------
 Title Card Required
 -------------------
 Symbolic Z-matrix:
 Charge =  0 Multiplicity = 2

                          Input orientation:
 ---------------------------------------------------------------------
 Center     Atomic      Atomic             Coordinates (Angstroms)
 Number     Number       Type             X           Y           Z
 ---------------------------------------------------------------------
      1          1           0        0.000000    0.000000    0.000000
      2          1           0       -0.850000    0.000000    0.000000
      3          9           0        2.800000    0.000000    0.000000
 ---------------------------------------------------------------------

 SCF Done:  E(UB3LYP) =  -100.928501819     a.u. after   86 cycles

 Alpha  occ. eigenvalues --  -24.76767  -1.22558  -0.55743  -0.47060  -0.46891
 Alpha  occ. eigenvalues --   -0.40988
 Alpha virt. eigenvalues --    0.04230   0.20772   0.44042   0.85739   0.90610
 Alpha virt. eigenvalues --    0.93743   1.07676   1.08436   1.08446   1.49240
 Alpha virt. eigenvalues --    1.75778   1.75789   2.13681   2.39027   2.87821

  Beta  occ. eigenvalues --  -24.73604  -1.13468  -0.43981  -0.43720  -0.40891
  Beta virt. eigenvalues --   -0.26360   0.04281   0.20808   0.44149   0.92107
  Beta virt. eigenvalues --    0.95192   0.95631   1.08437   1.08445   1.11282
  Beta virt. eigenvalues --    1.49245   1.75777   1.75788   2.13700   2.39035

 Mulliken charges and spin densities:
               1          2
     1  H   -0.005501  -0.001249
     2  H   -0.006064  -0.000365
     3  F    0.011565   1.001613
 Sum of Mulliken charges =   0.00000   1.00000

 Dipole moment (field-independent basis, Debye):
    X=              0.1212    Y=              0.0000    Z=              0.0000  Tot=              0.1212
 Quadrupole moment (field-independent basis, Debye-Ang):
   XX=             -6.0726   YY=             -6.2500   ZZ=             -7.0790
   XY=             -0.0000   XZ=             -0.0000   YZ=              0.1205

  Exact polarizability:      10.261      -0.000       2.463      -0.000       0.064       2.026
 Approx polarizability:      12.195      -0.000       2.649      -0.000       0.080       2.098

                      1                      2                      3
                      A                      A                      A
 Frequencies --     86.7855              1327.6127              1330.7018
 Red. masses --      1.1085                 1.0096                 1.0096
 Frc consts  --      0.0049                 1.0484                 1.0533
 IR Inten    --      0.4525                 0.0042                 0.0037

                      4
                      A
 Frequencies --   3136.7606
 Red. masses --      1.0078
 Frc consts  --      5.8425
 IR Inten    --      1.2093

 - Thermochemistry -
 -------------------
 Temperature   298.150 Kelvin.  Pressure   1.00000 Atm.
 Atom     1 has atomic number  1 and mass   1.00783

 Molecular mass:    21.01405 amu.
 Principal axes and moments of inertia in atomic units:
                           1         2         3
     Eigenvalues --     0.00000  68.98314  68.98314
           X            1.00000  -0.00000   0.00000
           Y            0.00000   1.00000   0.00000
           Z            0.00000   0.00000   1.00000
 This molecule is a prolate symmetric top.
 Rotational symmetry number  1.
 Rotational temperature (Kelvin)      1.25558
 Rotational constant (GHZ):          26.162063
 Zero-point vibrational energy      35181.3 (Joules/Mol)
                                    8.40854 (Kcal/Mol)
 Warning -- explicit consideration of   1 degrees of freedom as
           vibrations may cause significant error
 Vibrational temperatures:    124.86  1910.14  1914.58  4513.10
          (Kelvin)

 Zero-point correction=                           0.013400 (Hartree/Particle)
 Thermal correction to Energy=                    0.016540
 Thermal correction to Enthalpy=                  0.017485
 Thermal correction to Gibbs Free Energy=        -0.007736
 Sum of electronic and zero-point Energies=           -100.915102
 Sum of electronic and thermal Energies=              -100.911961
 Sum of electronic and thermal Enthalpies=            -100.911017
 Sum of electronic and thermal Free Energies=         -100.936238

                     E (Thermal)             CV                S
                      KCal/Mol        Cal/Mol-Kelvin    Cal/Mol-Kelvin
 Total                   10.379              7.195             53.082
 Electronic               0.000              0.000              1.377
 Translational            0.889              2.981             35.068
 Rotational               0.592              1.987             12.857
 Vibrational              8.898              2.227              3.780
 Vibration     1          0.601              1.958              3.731

 Normal termination of Gaussian 16 at Fri Aug 22 18:38:52 2025.
