 Gaussian 16, Revision C.01,
 Gaussian 16:  ES64L-G16RevC.01  3-Jul-2019

 -----------------------------------------
 # sp b3lyp/6-311g** Force nosymm scf=(qc)
 -----------------------------------------

 -------------------
 Title Card Required
 -------------------
 Symbolic Z-matrix:
 Charge =  0 Multiplicity = 2

                          Input orientation:
 ---------------------------------------------------------------------
 Center     Atomic      Atomic             Coordinates (Angstroms)
 Number     Number       Type             X           Y           Z
 ---------------------------------------------------------------------
      1          1           0        0.000000    0.000000    0.000000
      2          1           0       -0.600000    0.000000    0.000000
      3          9           0        1.400000    0.000000    0.000000
 ---------------------------------------------------------------------

 SCF Done:  E(UB3LYP) =  -100.910894592     a.u. after    7 cycles

 Alpha  occ. eigenvalues --  -24.71158  -1.18755  -0.59510  -0.42980  -0.42979
 Alpha  occ. eigenvalues --   -0.42979
 Alpha virt. eigenvalues --    0.11746   0.19417   0.51624   0.88002   0.88002
 Alpha virt. eigenvalues --    0.96514   1.11178   1.11178   1.41139   1.63386
 Alpha virt. eigenvalues --    1.85811   1.90851   1.90851   2.45204   3.68002

  Beta  occ. eigenvalues --  -24.68485  -1.11519  -0.51670  -0.40405  -0.40405
  Beta virt. eigenvalues --   -0.22378   0.12760   0.20163   0.54330   0.89253
  Beta virt. eigenvalues --    0.89253   1.02499   1.13467   1.13467   1.45046
  Beta virt. eigenvalues --    1.66403   1.86812   1.92260   1.92260   2.48595

 Mulliken charges and spin densities:
               1          2
     1  H    0.161367  -0.025279
     2  H   -0.011770   0.233341
     3  F   -0.149597   0.791937
 Sum of Mulliken charges =   0.00000   1.00000

 Dipole moment (field-independent basis, Debye):
    X=             -1.0281    Y=             -0.0000    Z=             -0.0000  Tot=              1.0281
 Quadrupole moment (field-independent basis, Debye-Ang):
   XX=             -6.7925   YY=             -6.5756   ZZ=             -6.5756
   XY=             -0.0000   XZ=              0.0000   YZ=              0.0000

  Exact polarizability:      15.314       0.000       2.296       0.000      -0.000       2.296
 Approx polarizability:      18.570       0.000       2.351       0.000      -0.000       2.351

 ******    2 imaginary frequencies (negative Signs) ******

                      1                      2                      3
                      A                      A                      A
 Frequencies --  -2977.1970             -2977.1970               627.6564
 Red. masses --      1.0109                 1.0109                 1.1084
 Frc consts  --      5.2792                 5.2792                 0.2573
 IR Inten    --      0.6645                 0.6645                58.7681

                      4
                      A
 Frequencies --   6804.4108
 Red. masses --      1.0079
 Frc consts  --     27.4942
 IR Inten    --    526.4209

 - Thermochemistry -
 -------------------
 Temperature   298.150 Kelvin.  Pressure   1.00000 Atm.
 Atom     1 has atomic number  1 and mass   1.00783

 Molecular mass:    21.01405 amu.
 Principal axes and moments of inertia in atomic units:
                           1         2         3
     Eigenvalues --     0.00000  19.45475  19.45475
           X            1.00000  -0.00000   0.00000
           Y            0.00000   1.00000   0.00000
           Z            0.00000   0.00000   1.00000
 This molecule is a prolate symmetric top.
 Rotational symmetry number  1.
 Rotational temperature (Kelvin)      4.45207
 Rotational constant (GHZ):          92.766072
    2 imaginary frequencies ignored.
 Zero-point vibrational energy      44453.6 (Joules/Mol)
                                   10.62467 (Kcal/Mol)
 Vibrational temperatures:    903.06  9790.03
          (Kelvin)

 Zero-point correction=                           0.016931 (Hartree/Particle)
 Thermal correction to Energy=                    0.019437
 Thermal correction to Enthalpy=                  0.020382
 Thermal correction to Gibbs Free Energy=        -0.002041
 Sum of electronic and zero-point Energies=           -100.893963
 Sum of electronic and thermal Energies=              -100.891457
 Sum of electronic and thermal Enthalpies=            -100.890513
 Sum of electronic and thermal Free Energies=         -100.912935

                     E (Thermal)             CV                S
                      KCal/Mol        Cal/Mol-Kelvin    Cal/Mol-Kelvin
 Total                   12.197              5.942             47.192
 Electronic               0.000              0.000              1.377
 Translational            0.889              2.981             35.068
 Rotational               0.592              1.987             10.342
 Vibrational             10.716              0.974              0.404

 Normal termination of Gaussian 16 at Fri Aug 22 16:19:03 2025.
