 Gaussian 16, Revision C.01,
 Gaussian 16:  ES64L-G16RevC.01  3-Jul-2019

 -----------------------------------------
 # sp b3lyp/6-311g** Force nosymm scf=(qc)
 -----------------------------------------

 -------------------
 Title Card Required
 -------------------
 Symbolic Z-matrix:
 Charge =  0 Multiplicity = 2

                          Input orientation:
 ---------------------------------------------------------------------
 Center     Atomic      Atomic             Coordinates (Angstroms)
 Number     Number       Type             X           Y           Z
 ---------------------------------------------------------------------
      1          1           0        0.000000    0.000000    0.000000
      2          1           0       -3.450000    0.000000    0.000000
      3          9           0        0.500000    0.000000    0.000000
 ---------------------------------------------------------------------

 SCF Done:  E(UB3LYP) =  -100.268982264     a.u. after    6 cycles

 Alpha  occ. eigenvalues --  -24.63030  -1.42352  -0.63506  -0.44334  -0.44334
 Alpha  occ. eigenvalues --   -0.33283
 Alpha virt. eigenvalues --    0.08057   0.25158   0.62101   0.88994   0.90152
 Alpha virt. eigenvalues --    0.90152   1.23935   1.24227   1.24227   1.37386
 Alpha virt. eigenvalues --    1.58517   1.58517   2.00203   2.15119   3.76633

  Beta  occ. eigenvalues --  -24.63030  -1.42351  -0.63506  -0.44334  -0.44334
  Beta virt. eigenvalues --   -0.05237   0.08570   0.39450   0.62131   0.88990
  Beta virt. eigenvalues --    0.90150   0.90150   1.36391   1.50330   1.50330
  Beta virt. eigenvalues --    1.50562   1.58519   1.58519   2.00184   2.45278

 Mulliken charges and spin densities:
               1          2
     1  H    0.126027   0.000486
     2  H    0.000819   0.999062
     3  F   -0.126846   0.000452
 Sum of Mulliken charges =   0.00000   1.00000

 Dipole moment (field-independent basis, Debye):
    X=             -1.3027    Y=             -0.0000    Z=             -0.0000  Tot=              1.3027
 Quadrupole moment (field-independent basis, Debye-Ang):
   XX=             -6.6423   YY=             -6.4388   ZZ=             -6.4388
   XY=             -0.0000   XZ=             -0.0000   YZ=              0.0000

  Exact polarizability:       3.077      -0.000       2.414      -0.000       0.000       2.414
 Approx polarizability:       3.229      -0.000       2.391       0.000       0.000       2.391

 ******    3 imaginary frequencies (negative Signs) ******

                      1                      2                      3
                      A                      A                      A
 Frequencies --  -9595.8625             -9595.8625               -28.8355
 Red. masses --      1.0458                 1.0458                 1.0532
 Frc consts  --     56.7347                56.7347                 0.0005
 IR Inten    --    283.2019               283.2019                 0.0263

                      4
                      A
 Frequencies --  19159.3567
 Red. masses --      1.0583
 Frc consts  --    228.8892
 IR Inten    --     77.2301

 - Thermochemistry -
 -------------------
 Temperature   298.150 Kelvin.  Pressure   1.00000 Atm.
 Atom     1 has atomic number  1 and mass   1.00783

 Molecular mass:    21.01405 amu.
 Principal axes and moments of inertia in atomic units:
                           1         2         3
     Eigenvalues --     0.00000  53.63523  53.63523
           X            1.00000  -0.00000   0.00000
           Y            0.00000   1.00000   0.00000
           Z            0.00000   0.00000   1.00000
 This molecule is a prolate symmetric top.
 Rotational symmetry number  1.
 Rotational temperature (Kelvin)      1.61487
 Rotational constant (GHZ):          33.648426
    3 imaginary frequencies ignored.
 Zero-point vibrational energy     114598.4 (Joules/Mol)
                                   27.38968 (Kcal/Mol)
 Vibrational temperatures:  27566.04
          (Kelvin)

 Zero-point correction=                           0.043648 (Hartree/Particle)
 Thermal correction to Energy=                    0.046009
 Thermal correction to Enthalpy=                  0.046953
 Thermal correction to Gibbs Free Energy=         0.023765
 Sum of electronic and zero-point Energies=           -100.225334
 Sum of electronic and thermal Energies=              -100.222974
 Sum of electronic and thermal Enthalpies=            -100.222029
 Sum of electronic and thermal Free Energies=         -100.245217

                     E (Thermal)             CV                S
                      KCal/Mol        Cal/Mol-Kelvin    Cal/Mol-Kelvin
 Total                   28.871              4.968             48.803
 Electronic               0.000              0.000              1.377
 Translational            0.889              2.981             35.068
 Rotational               0.592              1.987             12.357
 Vibrational             27.390              0.000              0.000

 Normal termination of Gaussian 16 at Fri Aug 22 15:37:53 2025.
