 Gaussian 16, Revision C.01,
 Gaussian 16:  ES64L-G16RevC.01  3-Jul-2019

 -----------------------------------------
 # sp b3lyp/6-311g** Force nosymm scf=(qc)
 -----------------------------------------

 -------------------
 Title Card Required
 -------------------
 Symbolic Z-matrix:
 Charge =  0 Multiplicity = 2

                          Input orientation:
 ---------------------------------------------------------------------
 Center     Atomic      Atomic             Coordinates (Angstroms)
 Number     Number       Type             X           Y           Z
 ---------------------------------------------------------------------
      1          1           0        0.000000    0.000000    0.000000
      2          1           0       -0.900000    0.000000    0.000000
      3          9           0        3.000000    0.000000    0.000000
 ---------------------------------------------------------------------

 SCF Done:  E(UB3LYP) =  -100.922504686     a.u. after   72 cycles

 Alpha  occ. eigenvalues --  -24.76642  -1.22453  -0.55644  -0.46900  -0.46794
 Alpha  occ. eigenvalues --   -0.40244
 Alpha virt. eigenvalues --    0.02908   0.20934   0.41956   0.85818   0.90690
 Alpha virt. eigenvalues --    0.93714   1.05077   1.08508   1.08514   1.45658
 Alpha virt. eigenvalues --    1.72398   1.72406   2.19292   2.38273   2.74338

  Beta  occ. eigenvalues --  -24.73480  -1.13367  -0.43766  -0.43624  -0.40205
  Beta virt. eigenvalues --   -0.26268   0.02941   0.20960   0.42048   0.92189
  Beta virt. eigenvalues --    0.95275   0.95485   1.08507   1.08514   1.08823
  Beta virt. eigenvalues --    1.45668   1.72397   1.72405   2.19311   2.38281

 Mulliken charges and spin densities:
               1          2
     1  H   -0.003864  -0.000890
     2  H   -0.004971  -0.000270
     3  F    0.008835   1.001160
 Sum of Mulliken charges =   0.00000   1.00000

 Dipole moment (field-independent basis, Debye):
    X=              0.0972    Y=             -0.0000    Z=             -0.0000  Tot=              0.0972
 Quadrupole moment (field-independent basis, Debye-Ang):
   XX=             -6.1152   YY=             -6.2953   ZZ=             -7.1577
   XY=              0.0000   XZ=              0.0000   YZ=              0.0226

  Exact polarizability:      10.896       0.000       2.490      -0.000       0.012       2.031
 Approx polarizability:      13.359       0.000       2.673       0.000       0.015       2.095

                      1                      2                      3
                      A                      A                      A
 Frequencies --     56.7665              1454.6128              1456.2585
 Red. masses --      1.1085                 1.0095                 1.0095
 Frc consts  --      0.0021                 1.2585                 1.2614
 IR Inten    --      0.3366                 0.0016                 0.0011

                      4
                      A
 Frequencies --   2643.6130
 Red. masses --      1.0078
 Frc consts  --      4.1498
 IR Inten    --      0.6157

 - Thermochemistry -
 -------------------
 Temperature   298.150 Kelvin.  Pressure   1.00000 Atm.
 Atom     1 has atomic number  1 and mass   1.00783

 Molecular mass:    21.01405 amu.
 Principal axes and moments of inertia in atomic units:
                           1         2         3
     Eigenvalues --     0.00000  78.91418  78.91418
           X            1.00000  -0.00000   0.00000
           Y            0.00000   1.00000   0.00000
           Z            0.00000   0.00000   1.00000
 This molecule is a prolate symmetric top.
 Rotational symmetry number  1.
 Rotational temperature (Kelvin)      1.09757
 Rotational constant (GHZ):          22.869669
 Zero-point vibrational energy      33562.7 (Joules/Mol)
                                    8.02169 (Kcal/Mol)
 Warning -- explicit consideration of   1 degrees of freedom as
           vibrations may cause significant error
 Vibrational temperatures:     81.67  2092.86  2095.23  3803.57
          (Kelvin)

 Zero-point correction=                           0.012783 (Hartree/Particle)
 Thermal correction to Energy=                    0.015976
 Thermal correction to Enthalpy=                  0.016921
 Thermal correction to Gibbs Free Energy=        -0.008815
 Sum of electronic and zero-point Energies=           -100.909721
 Sum of electronic and thermal Energies=              -100.906528
 Sum of electronic and thermal Enthalpies=            -100.905584
 Sum of electronic and thermal Free Energies=         -100.931320

                     E (Thermal)             CV                S
                      KCal/Mol        Cal/Mol-Kelvin    Cal/Mol-Kelvin
 Total                   10.025              7.119             54.165
 Electronic               0.000              0.000              1.377
 Translational            0.889              2.981             35.068
 Rotational               0.592              1.987             13.124
 Vibrational              8.544              2.151              4.595
 Vibration     1          0.596              1.975              4.567

 Normal termination of Gaussian 16 at Fri Aug 22 19:23:56 2025.
