 Gaussian 16, Revision C.01,
 Gaussian 16:  ES64L-G16RevC.01  3-Jul-2019

 -----------------------------------------
 # sp b3lyp/6-311g** Force nosymm scf=(qc)
 -----------------------------------------

 -------------------
 Title Card Required
 -------------------
 Symbolic Z-matrix:
 Charge =  0 Multiplicity = 2

                          Input orientation:
 ---------------------------------------------------------------------
 Center     Atomic      Atomic             Coordinates (Angstroms)
 Number     Number       Type             X           Y           Z
 ---------------------------------------------------------------------
      1          1           0        0.000000    0.000000    0.000000
      2          1           0       -3.000000    0.000000    0.000000
      3          9           0        3.400000    0.000000    0.000000
 ---------------------------------------------------------------------

 SCF Done:  E(UB3LYP) =  -100.760208920     a.u. after   26 cycles

 Alpha  occ. eigenvalues --  -24.75220  -1.21195  -0.54341  -0.45626  -0.45626
 Alpha  occ. eigenvalues --   -0.32485
 Alpha virt. eigenvalues --   -0.08194   0.24913   0.35738   0.87947   0.91584
 Alpha virt. eigenvalues --    0.91584   1.02100   1.25051   1.25051   1.25781
 Alpha virt. eigenvalues --    1.43645   1.43645   1.43669   2.15686   2.39499

  Beta  occ. eigenvalues --  -24.72117  -1.12282  -0.42517  -0.42517  -0.33003
  Beta virt. eigenvalues --   -0.25400  -0.07528   0.24700   0.36751   0.93069
  Beta virt. eigenvalues --    0.93069   0.97029   1.06085   1.24447   1.24447
  Beta virt. eigenvalues --    1.25129   1.44677   1.44713   1.44713   2.16087

 Mulliken charges and spin densities:
               1          2
     1  H    0.013936  -0.976215
     2  H    0.000805   0.992493
     3  F   -0.014741   0.983722
 Sum of Mulliken charges =  -0.00000   1.00000

 Dipole moment (field-independent basis, Debye):
    X=             -0.2692    Y=             -0.0000    Z=              0.0000  Tot=              0.2692
 Quadrupole moment (field-independent basis, Debye-Ang):
   XX=             -7.4636   YY=             -7.6331   ZZ=             -7.6331
   XY=             -0.0000   XZ=              0.0000   YZ=             -0.0000

  Exact polarizability:      28.835      -0.000       2.028       0.000       0.000       2.028
 Approx polarizability:      23.258      -0.000       1.930       0.000      -0.000       1.930

 ******    2 imaginary frequencies (negative Signs) ******

                      1                      2                      3
                      A                      A                      A
 Frequencies --   -369.7864              -142.7003               129.1505
 Red. masses --      1.0125                 1.1029                 1.0165
 Frc consts  --      0.0816                 0.0132                 0.0100
 IR Inten    --     11.0024                 5.0634                 0.1646

                      4
                      A
 Frequencies --    129.1506
 Red. masses --      1.0165
 Frc consts  --      0.0100
 IR Inten    --      0.1646

 - Thermochemistry -
 -------------------
 Temperature   298.150 Kelvin.  Pressure   1.00000 Atm.
 Atom     1 has atomic number  1 and mass   1.00783

 Molecular mass:    21.01405 amu.
 Principal axes and moments of inertia in atomic units:
                           1         2         3
     Eigenvalues --     0.00000 172.44276 172.44276
           X            1.00000  -0.00000   0.00000
           Y            0.00000   1.00000   0.00000
           Z            0.00000   0.00000   1.00000
 This molecule is a prolate symmetric top.
 Rotational symmetry number  1.
 Rotational temperature (Kelvin)      0.50228
 Rotational constant (GHZ):          10.465741
    2 imaginary frequencies ignored.
 Zero-point vibrational energy       1545.0 (Joules/Mol)
                                    0.36926 (Kcal/Mol)
 Warning -- explicit consideration of   2 degrees of freedom as
           vibrations may cause significant error
 Vibrational temperatures:    185.82   185.82
          (Kelvin)

 Zero-point correction=                           0.000588 (Hartree/Particle)
 Thermal correction to Energy=                    0.004310
 Thermal correction to Enthalpy=                  0.005254
 Thermal correction to Gibbs Free Energy=        -0.021848
 Sum of electronic and zero-point Energies=           -100.759620
 Sum of electronic and thermal Energies=              -100.755899
 Sum of electronic and thermal Enthalpies=            -100.754955
 Sum of electronic and thermal Free Energies=         -100.782057

                     E (Thermal)             CV                S
                      KCal/Mol        Cal/Mol-Kelvin    Cal/Mol-Kelvin
 Total                    2.704              8.816             57.041
 Electronic               0.000              0.000              1.377
 Translational            0.889              2.981             35.068
 Rotational               0.592              1.987             14.678
 Vibrational              1.223              3.848              5.917
 Vibration     1          0.612              1.924              2.959
 Vibration     2          0.612              1.924              2.959

 Normal termination of Gaussian 16 at Fri Aug 22 21:18:01 2025.
