 Gaussian 16, Revision C.01,
 Gaussian 16:  ES64L-G16RevC.01  3-Jul-2019

 -----------------------------------------
 # sp b3lyp/6-311g** Force nosymm scf=(qc)
 -----------------------------------------

 -------------------
 Title Card Required
 -------------------
 Symbolic Z-matrix:
 Charge =  0 Multiplicity = 2

                          Input orientation:
 ---------------------------------------------------------------------
 Center     Atomic      Atomic             Coordinates (Angstroms)
 Number     Number       Type             X           Y           Z
 ---------------------------------------------------------------------
      1          1           0        0.000000    0.000000    0.000000
      2          1           0       -3.450000    0.000000    0.000000
      3          9           0        2.050000    0.000000    0.000000
 ---------------------------------------------------------------------

 SCF Done:  E(UB3LYP) =  -100.784172902     a.u. after   19 cycles

 Alpha  occ. eigenvalues --  -24.68638  -1.14961  -0.47643  -0.40109  -0.40109
 Alpha  occ. eigenvalues --   -0.33416
 Alpha virt. eigenvalues --   -0.13352   0.22527   0.32385   0.88573   0.94792
 Alpha virt. eigenvalues --    0.94792   1.05771   1.24100   1.24100   1.24244
 Alpha virt. eigenvalues --    1.35939   1.35939   1.58075   2.14083   2.30354

  Beta  occ. eigenvalues --  -24.66189  -1.08098  -0.37691  -0.37691  -0.37625
  Beta virt. eigenvalues --   -0.21078  -0.07069   0.22851   0.37814   0.90299
  Beta virt. eigenvalues --    0.95564   0.95564   1.08170   1.21751   1.21751
  Beta virt. eigenvalues --    1.45175   1.45744   1.45744   1.50613   2.11925

 Mulliken charges and spin densities:
               1          2
     1  H    0.178291  -0.767701
     2  H    0.001742   0.997374
     3  F   -0.180034   0.770327
 Sum of Mulliken charges =  -0.00000   1.00000

 Dipole moment (field-independent basis, Debye):
    X=             -1.8590    Y=             -0.0000    Z=             -0.0000  Tot=              1.8590
 Quadrupole moment (field-independent basis, Debye-Ang):
   XX=             -9.9577   YY=             -7.5008   ZZ=             -7.5008
   XY=             -0.0000   XZ=             -0.0000   YZ=             -0.0000

  Exact polarizability:      26.790      -0.000       2.055      -0.000      -0.000       2.055
 Approx polarizability:      37.860      -0.000       1.941      -0.000      -0.000       1.941

 ******    2 imaginary frequencies (negative Signs) ******

                      1                      2                      3
                      A                      A                      A
 Frequencies --  -1055.3153              -127.8478               445.7528
 Red. masses --      1.0567                 1.0548                 1.0253
 Frc consts  --      0.6934                 0.0102                 0.1200
 IR Inten    --    116.8944                 0.3269                29.7522

                      4
                      A
 Frequencies --    445.7528
 Red. masses --      1.0253
 Frc consts  --      0.1200
 IR Inten    --     29.7522

 - Thermochemistry -
 -------------------
 Temperature   298.150 Kelvin.  Pressure   1.00000 Atm.
 Atom     1 has atomic number  1 and mass   1.00783

 Molecular mass:    21.01405 amu.
 Principal axes and moments of inertia in atomic units:
                           1         2         3
     Eigenvalues --     0.00000 114.15582 114.15582
           X            1.00000  -0.00000   0.00000
           Y            0.00000   1.00000   0.00000
           Z            0.00000   0.00000   1.00000
 This molecule is a prolate symmetric top.
 Rotational symmetry number  1.
 Rotational temperature (Kelvin)      0.75873
 Rotational constant (GHZ):          15.809455
    2 imaginary frequencies ignored.
 Zero-point vibrational energy       5332.4 (Joules/Mol)
                                    1.27447 (Kcal/Mol)
 Warning -- explicit consideration of   2 degrees of freedom as
           vibrations may cause significant error
 Vibrational temperatures:    641.34   641.34
          (Kelvin)

 Zero-point correction=                           0.002031 (Hartree/Particle)
 Thermal correction to Energy=                    0.004926
 Thermal correction to Enthalpy=                  0.005871
 Thermal correction to Gibbs Free Energy=        -0.018799
 Sum of electronic and zero-point Energies=           -100.782142
 Sum of electronic and thermal Energies=              -100.779247
 Sum of electronic and thermal Enthalpies=            -100.778302
 Sum of electronic and thermal Free Energies=         -100.802972

                     E (Thermal)             CV                S
                      KCal/Mol        Cal/Mol-Kelvin    Cal/Mol-Kelvin
 Total                    3.091              7.709             51.921
 Electronic               0.000              0.000              1.377
 Translational            0.889              2.981             35.068
 Rotational               0.592              1.987             13.858
 Vibrational              1.610              2.741              1.617
 Vibration     1          0.805              1.370              0.809
 Vibration     2          0.805              1.370              0.809

 Normal termination of Gaussian 16 at Fri Aug 22 17:01:35 2025.
