 Gaussian 16, Revision C.01,
 Gaussian 16:  ES64L-G16RevC.01  3-Jul-2019

 -----------------------------------------
 # sp b3lyp/6-311g** Force nosymm scf=(qc)
 -----------------------------------------

 -------------------
 Title Card Required
 -------------------
 Symbolic Z-matrix:
 Charge =  0 Multiplicity = 2

                          Input orientation:
 ---------------------------------------------------------------------
 Center     Atomic      Atomic             Coordinates (Angstroms)
 Number     Number       Type             X           Y           Z
 ---------------------------------------------------------------------
      1          1           0        0.000000    0.000000    0.000000
      2          1           0       -3.400000    0.000000    0.000000
      3          9           0        2.750000    0.000000    0.000000
 ---------------------------------------------------------------------

 SCF Done:  E(UB3LYP) =  -100.763490798     a.u. after   19 cycles

 Alpha  occ. eigenvalues --  -24.73054  -1.19187  -0.52169  -0.43811  -0.43811
 Alpha  occ. eigenvalues --   -0.32736
 Alpha virt. eigenvalues --   -0.09205   0.23884   0.35654   0.89959   0.92884
 Alpha virt. eigenvalues --    0.92884   1.05361   1.24776   1.24776   1.25020
 Alpha virt. eigenvalues --    1.42540   1.42540   1.43528   2.14798   2.38224

  Beta  occ. eigenvalues --  -24.70102  -1.10750  -0.40861  -0.40861  -0.34447
  Beta virt. eigenvalues --   -0.24169  -0.06832   0.24108   0.37719   0.94317
  Beta virt. eigenvalues --    0.94317   0.98018   1.08635   1.22880   1.22880
  Beta virt. eigenvalues --    1.25057   1.45551   1.45820   1.45820   2.14329

 Mulliken charges and spin densities:
               1          2
     1  H    0.058448  -0.931741
     2  H    0.000836   0.997359
     3  F   -0.059284   0.934382
 Sum of Mulliken charges =  -0.00000   1.00000

 Dipole moment (field-independent basis, Debye):
    X=             -0.8486    Y=             -0.0000    Z=             -0.0000  Tot=              0.8486
 Quadrupole moment (field-independent basis, Debye-Ang):
   XX=             -8.7982   YY=             -7.5964   ZZ=             -7.5964
   XY=             -0.0000   XZ=              0.0000   YZ=              0.0000

  Exact polarizability:      32.656       0.000       2.023      -0.000       0.000       2.023
 Approx polarizability:      37.148      -0.000       1.922       0.000      -0.000       1.922

 ******    2 imaginary frequencies (negative Signs) ******

                      1                      2                      3
                      A                      A                      A
 Frequencies --   -487.6809              -134.3785               180.3102
 Red. masses --      1.0494                 1.0623                 1.0207
 Frc consts  --      0.1470                 0.0113                 0.0196
 IR Inten    --     58.3730                 0.6811                 3.2179

                      4
                      A
 Frequencies --    180.3102
 Red. masses --      1.0207
 Frc consts  --      0.0196
 IR Inten    --      3.2179

 - Thermochemistry -
 -------------------
 Temperature   298.150 Kelvin.  Pressure   1.00000 Atm.
 Atom     1 has atomic number  1 and mass   1.00783

 Molecular mass:    21.01405 amu.
 Principal axes and moments of inertia in atomic units:
                           1         2         3
     Eigenvalues --     0.00000 149.66881 149.66881
           X            1.00000  -0.00000   0.00000
           Y            0.00000   1.00000   0.00000
           Z            0.00000   0.00000   1.00000
 This molecule is a prolate symmetric top.
 Rotational symmetry number  1.
 Rotational temperature (Kelvin)      0.57870
 Rotational constant (GHZ):          12.058232
    2 imaginary frequencies ignored.
 Zero-point vibrational energy       2157.0 (Joules/Mol)
                                    0.51553 (Kcal/Mol)
 Warning -- explicit consideration of   2 degrees of freedom as
           vibrations may cause significant error
 Vibrational temperatures:    259.43   259.43
          (Kelvin)

 Zero-point correction=                           0.000822 (Hartree/Particle)
 Thermal correction to Energy=                    0.004366
 Thermal correction to Enthalpy=                  0.005311
 Thermal correction to Gibbs Free Energy=        -0.021055
 Sum of electronic and zero-point Energies=           -100.762669
 Sum of electronic and thermal Energies=              -100.759124
 Sum of electronic and thermal Enthalpies=            -100.758180
 Sum of electronic and thermal Free Energies=         -100.784546

                     E (Thermal)             CV                S
                      KCal/Mol        Cal/Mol-Kelvin    Cal/Mol-Kelvin
 Total                    2.740              8.701             55.492
 Electronic               0.000              0.000              1.377
 Translational            0.889              2.981             35.068
 Rotational               0.592              1.987             14.396
 Vibrational              1.259              3.733              4.650
 Vibration     1          0.629              1.866              2.325
 Vibration     2          0.629              1.866              2.325

 Normal termination of Gaussian 16 at Fri Aug 22 18:35:04 2025.
