 Gaussian 16, Revision C.01,
 Gaussian 16:  ES64L-G16RevC.01  3-Jul-2019

 -----------------------------------------
 # sp b3lyp/6-311g** Force nosymm scf=(qc)
 -----------------------------------------

 -------------------
 Title Card Required
 -------------------
 Symbolic Z-matrix:
 Charge =  0 Multiplicity = 2

                          Input orientation:
 ---------------------------------------------------------------------
 Center     Atomic      Atomic             Coordinates (Angstroms)
 Number     Number       Type             X           Y           Z
 ---------------------------------------------------------------------
      1          1           0        0.000000    0.000000    0.000000
      2          1           0       -4.000000    0.000000    0.000000
      3          9           0        2.850000    0.000000    0.000000
 ---------------------------------------------------------------------

 SCF Done:  E(UB3LYP) =  -100.762043334     a.u. after   23 cycles

 Alpha  occ. eigenvalues --  -24.73487  -1.19591  -0.52605  -0.44174  -0.44174
 Alpha  occ. eigenvalues --   -0.32520
 Alpha virt. eigenvalues --   -0.08278   0.23800   0.36074   0.89732   0.92631
 Alpha virt. eigenvalues --    0.92631   1.04723   1.24977   1.24977   1.24991
 Alpha virt. eigenvalues --    1.43338   1.43338   1.44975   2.14268   2.40414

  Beta  occ. eigenvalues --  -24.70502  -1.11050  -0.41189  -0.41189  -0.34127
  Beta virt. eigenvalues --   -0.24426  -0.05922   0.23776   0.38128   0.94077
  Beta virt. eigenvalues --    0.94077   0.98096   1.08198   1.23179   1.23179
  Beta virt. eigenvalues --    1.24289   1.46651   1.46764   1.46764   2.13926

 Mulliken charges and spin densities:
               1          2
     1  H    0.049597  -0.944694
     2  H    0.000152   0.999399
     3  F   -0.049749   0.945295
 Sum of Mulliken charges =  -0.00000   1.00000

 Dipole moment (field-independent basis, Debye):
    X=             -0.7299    Y=             -0.0000    Z=              0.0000  Tot=              0.7299
 Quadrupole moment (field-independent basis, Debye-Ang):
   XX=             -8.6610   YY=             -7.5967   ZZ=             -7.5967
   XY=             -0.0000   XZ=              0.0000   YZ=             -0.0000

  Exact polarizability:      31.219      -0.000       2.026       0.000       0.000       2.026
 Approx polarizability:      34.678      -0.000       1.924       0.000       0.000       1.924

 ******    2 imaginary frequencies (negative Signs) ******

                      1                      2                      3
                      A                      A                      A
 Frequencies --   -424.2020               -69.3341               152.8912
 Red. masses --      1.0555                 1.0561                 1.0225
 Frc consts  --      0.1119                 0.0030                 0.0141
 IR Inten    --     51.0072                 0.0522                 2.3949

                      4
                      A
 Frequencies --    152.8912
 Red. masses --      1.0225
 Frc consts  --      0.0141
 IR Inten    --      2.3949

 - Thermochemistry -
 -------------------
 Temperature   298.150 Kelvin.  Pressure   1.00000 Atm.
 Atom     1 has atomic number  1 and mass   1.00783

 Molecular mass:    21.01405 amu.
 Principal axes and moments of inertia in atomic units:
                           1         2         3
     Eigenvalues --     0.00000 181.86684 181.86684
           X            1.00000  -0.00000   0.00000
           Y            0.00000   1.00000   0.00000
           Z            0.00000   0.00000   1.00000
 This molecule is a prolate symmetric top.
 Rotational symmetry number  1.
 Rotational temperature (Kelvin)      0.47625
 Rotational constant (GHZ):           9.923421
    2 imaginary frequencies ignored.
 Zero-point vibrational energy       1829.0 (Joules/Mol)
                                    0.43714 (Kcal/Mol)
 Warning -- explicit consideration of   2 degrees of freedom as
           vibrations may cause significant error
 Vibrational temperatures:    219.98   219.98
          (Kelvin)

 Zero-point correction=                           0.000697 (Hartree/Particle)
 Thermal correction to Energy=                    0.004334
 Thermal correction to Enthalpy=                  0.005278
 Thermal correction to Gibbs Free Energy=        -0.021568
 Sum of electronic and zero-point Energies=           -100.761347
 Sum of electronic and thermal Energies=              -100.757710
 Sum of electronic and thermal Enthalpies=            -100.756765
 Sum of electronic and thermal Free Energies=         -100.783611

                     E (Thermal)             CV                S
                      KCal/Mol        Cal/Mol-Kelvin    Cal/Mol-Kelvin
 Total                    2.719              8.767             56.501
 Electronic               0.000              0.000              1.377
 Translational            0.889              2.981             35.068
 Rotational               0.592              1.987             14.784
 Vibrational              1.238              3.799              5.272
 Vibration     1          0.619              1.899              2.636
 Vibration     2          0.619              1.899              2.636

 Normal termination of Gaussian 16 at Fri Aug 22 18:55:26 2025.
