 Gaussian 16, Revision C.01,
 Gaussian 16:  ES64L-G16RevC.01  3-Jul-2019

 -----------------------------------------
 # sp b3lyp/6-311g** Force nosymm scf=(qc)
 -----------------------------------------

 -------------------
 Title Card Required
 -------------------
 Symbolic Z-matrix:
 Charge =  0 Multiplicity = 2

                          Input orientation:
 ---------------------------------------------------------------------
 Center     Atomic      Atomic             Coordinates (Angstroms)
 Number     Number       Type             X           Y           Z
 ---------------------------------------------------------------------
      1          1           0        0.000000    0.000000    0.000000
      2          1           0       -2.250000    0.000000    0.000000
      3          9           0        2.200000    0.000000    0.000000
 ---------------------------------------------------------------------

 SCF Done:  E(UB3LYP) =  -100.783623269     a.u. after   13 cycles

 Alpha  occ. eigenvalues --  -24.69686  -1.15985  -0.48750  -0.40969  -0.40969
 Alpha  occ. eigenvalues --   -0.35016
 Alpha virt. eigenvalues --   -0.13321   0.24482   0.31915   0.88961   0.94586
 Alpha virt. eigenvalues --    0.94586   1.06239   1.22770   1.22770   1.27329
 Alpha virt. eigenvalues --    1.35240   1.35240   1.50459   2.12357   2.30568

  Beta  occ. eigenvalues --  -24.67062  -1.08579  -0.38367  -0.38367  -0.36501
  Beta virt. eigenvalues --   -0.22091  -0.10876   0.26064   0.33371   0.93107
  Beta virt. eigenvalues --    0.95692   0.95692   1.08927   1.22153   1.22153
  Beta virt. eigenvalues --    1.39050   1.39050   1.40312   1.44473   2.12323

 Mulliken charges and spin densities:
               1          2
     1  H    0.116338  -0.766950
     2  H    0.025460   0.940257
     3  F   -0.141798   0.826693
 Sum of Mulliken charges =   0.00000   1.00000

 Dipole moment (field-independent basis, Debye):
    X=             -1.8400    Y=             -0.0000    Z=             -0.0000  Tot=              1.8400
 Quadrupole moment (field-independent basis, Debye-Ang):
   XX=             -8.9283   YY=             -7.5837   ZZ=             -7.5837
   XY=             -0.0000   XZ=             -0.0000   YZ=             -0.0000

  Exact polarizability:      47.332      -0.000       2.030      -0.000       0.000       2.030
 Approx polarizability:      52.945      -0.000       1.932      -0.000       0.000       1.932

 ******    2 imaginary frequencies (negative Signs) ******

                      1                      2                      3
                      A                      A                      A
 Frequencies --  -1154.8412              -463.4771               475.1198
 Red. masses --      1.0212                 1.0928                 1.0182
 Frc consts  --      0.8024                 0.1383                 0.1354
 IR Inten    --     68.6455                37.3740                 9.9591

                      4
                      A
 Frequencies --    475.1198
 Red. masses --      1.0182
 Frc consts  --      0.1354
 IR Inten    --      9.9591

 - Thermochemistry -
 -------------------
 Temperature   298.150 Kelvin.  Pressure   1.00000 Atm.
 Atom     1 has atomic number  1 and mass   1.00783

 Molecular mass:    21.01405 amu.
 Principal axes and moments of inertia in atomic units:
                           1         2         3
     Eigenvalues --     0.00000  81.05546  81.05546
           X            1.00000  -0.00000   0.00000
           Y            0.00000   1.00000   0.00000
           Z            0.00000   0.00000   1.00000
 This molecule is a prolate symmetric top.
 Rotational symmetry number  1.
 Rotational temperature (Kelvin)      1.06858
 Rotational constant (GHZ):          22.265511
    2 imaginary frequencies ignored.
 Zero-point vibrational energy       5683.7 (Joules/Mol)
                                    1.35844 (Kcal/Mol)
 Warning -- explicit consideration of   2 degrees of freedom as
           vibrations may cause significant error
 Vibrational temperatures:    683.59   683.59
          (Kelvin)

 Zero-point correction=                           0.002165 (Hartree/Particle)
 Thermal correction to Energy=                    0.005012
 Thermal correction to Enthalpy=                  0.005956
 Thermal correction to Gibbs Free Energy=        -0.018309
 Sum of electronic and zero-point Energies=           -100.781458
 Sum of electronic and thermal Energies=              -100.778612
 Sum of electronic and thermal Enthalpies=            -100.777667
 Sum of electronic and thermal Free Energies=         -100.801932

                     E (Thermal)             CV                S
                      KCal/Mol        Cal/Mol-Kelvin    Cal/Mol-Kelvin
 Total                    3.145              7.579             51.070
 Electronic               0.000              0.000              1.377
 Translational            0.889              2.981             35.068
 Rotational               0.592              1.987             13.178
 Vibrational              1.664              2.610              1.447
 Vibration     1          0.832              1.305              0.723
 Vibration     2          0.832              1.305              0.723

 Normal termination of Gaussian 16 at Fri Aug 22 17:11:53 2025.
