 Gaussian 16, Revision C.01,
 Gaussian 16:  ES64L-G16RevC.01  3-Jul-2019

 -----------------------------------------
 # sp b3lyp/6-311g** Force nosymm scf=(qc)
 -----------------------------------------

 -------------------
 Title Card Required
 -------------------
 Symbolic Z-matrix:
 Charge =  0 Multiplicity = 2

                          Input orientation:
 ---------------------------------------------------------------------
 Center     Atomic      Atomic             Coordinates (Angstroms)
 Number     Number       Type             X           Y           Z
 ---------------------------------------------------------------------
      1          1           0        0.000000    0.000000    0.000000
      2          1           0       -1.800000    0.000000    0.000000
      3          9           0        0.900000    0.000000    0.000000
 ---------------------------------------------------------------------

 SCF Done:  E(UB3LYP) =  -100.971588241     a.u. after    5 cycles

 Alpha  occ. eigenvalues --  -24.63607  -1.18790  -0.54080  -0.39345  -0.39345
 Alpha  occ. eigenvalues --   -0.36303
 Alpha virt. eigenvalues --    0.08013   0.23158   0.38052   0.94572   0.94572
 Alpha virt. eigenvalues --    0.98061   1.15545   1.20285   1.20285   1.38429
 Alpha virt. eigenvalues --    1.38429   1.52886   1.96645   2.24818   2.41278

  Beta  occ. eigenvalues --  -24.63509  -1.18538  -0.53487  -0.39261  -0.39261
  Beta virt. eigenvalues --   -0.12870   0.10071   0.31955   0.39682   0.94603
  Beta virt. eigenvalues --    0.94603   0.98403   1.24971   1.34541   1.34541
  Beta virt. eigenvalues --    1.42916   1.42916   1.59069   2.05224   2.32554

 Mulliken charges and spin densities:
               1          2
     1  H    0.277691   0.008177
     2  H    0.018919   0.967418
     3  F   -0.296610   0.024405
 Sum of Mulliken charges =   0.00000   1.00000

 Dipole moment (field-independent basis, Debye):
    X=             -2.0654    Y=              0.0000    Z=             -0.0000  Tot=              2.0654
 Quadrupole moment (field-independent basis, Debye-Ang):
   XX=             -7.4828   YY=             -6.8051   ZZ=             -6.8051
   XY=              0.0000   XZ=             -0.0000   YZ=             -0.0000

  Exact polarizability:       9.585      -0.000       2.503      -0.000       0.000       2.503
 Approx polarizability:       9.992       0.000       2.495      -0.000       0.000       2.495

 ******    2 imaginary frequencies (negative Signs) ******

                      1                      2                      3
                      A                      A                      A
 Frequencies --   -664.5577              -664.5577               329.5920
 Red. masses --      1.0281                 1.0281                 1.0527
 Frc consts  --      0.2675                 0.2675                 0.0674
 IR Inten    --    136.4618               136.4618                 0.9520

                      4
                      A
 Frequencies --   4383.0133
 Red. masses --      1.0589
 Frc consts  --     11.9853
 IR Inten    --    196.0943

 - Thermochemistry -
 -------------------
 Temperature   298.150 Kelvin.  Pressure   1.00000 Atm.
 Atom     1 has atomic number  1 and mass   1.00783

 Molecular mass:    21.01405 amu.
 Principal axes and moments of inertia in atomic units:
                           1         2         3
     Eigenvalues --     0.00000  26.91498  26.91498
           X            1.00000  -0.00000   0.00000
           Y            0.00000   1.00000   0.00000
           Z            0.00000   0.00000   1.00000
 This molecule is a prolate symmetric top.
 Rotational symmetry number  1.
 Rotational temperature (Kelvin)      3.21806
 Rotational constant (GHZ):          67.053402
    2 imaginary frequencies ignored.
 Zero-point vibrational energy      28187.6 (Joules/Mol)
                                    6.73701 (Kcal/Mol)
 Warning -- explicit consideration of   1 degrees of freedom as
           vibrations may cause significant error
 Vibrational temperatures:    474.21  6306.18
          (Kelvin)

 Zero-point correction=                           0.010736 (Hartree/Particle)
 Thermal correction to Energy=                    0.013481
 Thermal correction to Enthalpy=                  0.014425
 Thermal correction to Gibbs Free Energy=        -0.008711
 Sum of electronic and zero-point Energies=           -100.960852
 Sum of electronic and thermal Energies=              -100.958107
 Sum of electronic and thermal Enthalpies=            -100.957163
 Sum of electronic and thermal Free Energies=         -100.980299

                     E (Thermal)             CV                S
                      KCal/Mol        Cal/Mol-Kelvin    Cal/Mol-Kelvin
 Total                    8.459              6.584             48.694
 Electronic               0.000              0.000              1.377
 Translational            0.889              2.981             35.068
 Rotational               0.592              1.987             10.987
 Vibrational              6.978              1.616              1.262
 Vibration     1          0.712              1.616              1.262

 Normal termination of Gaussian 16 at Fri Aug 22 15:55:41 2025.
