 Gaussian 16, Revision C.01,
 Gaussian 16:  ES64L-G16RevC.01  3-Jul-2019

 -----------------------------------------
 # sp b3lyp/6-311g** Force nosymm scf=(qc)
 -----------------------------------------

 -------------------
 Title Card Required
 -------------------
 Symbolic Z-matrix:
 Charge =  0 Multiplicity = 2

                          Input orientation:
 ---------------------------------------------------------------------
 Center     Atomic      Atomic             Coordinates (Angstroms)
 Number     Number       Type             X           Y           Z
 ---------------------------------------------------------------------
      1          1           0        0.000000    0.000000    0.000000
      2          1           0       -1.850000    0.000000    0.000000
      3          9           0        3.350000    0.000000    0.000000
 ---------------------------------------------------------------------

 SCF Done:  E(UB3LYP) =  -100.782977629     a.u. after   31 cycles

 Alpha  occ. eigenvalues --  -24.75439  -1.21399  -0.54562  -0.45818  -0.45818
 Alpha  occ. eigenvalues --   -0.33410
 Alpha virt. eigenvalues --   -0.11307   0.25667   0.31188   0.88139   0.91427
 Alpha virt. eigenvalues --    0.91427   1.02159   1.11229   1.24394   1.24394
 Alpha virt. eigenvalues --    1.37097   1.37097   1.58124   2.13833   2.38641

  Beta  occ. eigenvalues --  -24.72330  -1.12466  -0.42701  -0.42701  -0.33419
  Beta virt. eigenvalues --   -0.25593  -0.11079   0.25682   0.31604   0.92914
  Beta virt. eigenvalues --    0.92914   0.97215   1.06174   1.11286   1.24376
  Beta virt. eigenvalues --    1.24376   1.37379   1.37379   1.58371   2.14513

 Mulliken charges and spin densities:
               1          2
     1  H    0.002696  -0.754515
     2  H    0.009398   0.768748
     3  F   -0.012094   0.985766
 Sum of Mulliken charges =  -0.00000   1.00000

 Dipole moment (field-independent basis, Debye):
    X=             -0.2896    Y=             -0.0000    Z=              0.0000  Tot=              0.2896
 Quadrupole moment (field-independent basis, Debye-Ang):
   XX=             -6.5209   YY=             -7.7448   ZZ=             -7.7448
   XY=             -0.0000   XZ=              0.0000   YZ=              0.0000

  Exact polarizability:      49.612       0.000       1.882      -0.000       0.000       1.881
 Approx polarizability:      48.403      -0.000       1.950       0.000       0.000       1.950

 ******    2 imaginary frequencies (negative Signs) ******

                      1                      2                      3
                      A                      A                      A
 Frequencies --  -1639.6613              -156.3575               706.8699
 Red. masses --      1.0078                 1.1085                 1.0124
 Frc consts  --      1.5964                 0.0160                 0.2980
 IR Inten    --     24.7312                10.8084                 0.0023

                      4
                      A
 Frequencies --    706.8700
 Red. masses --      1.0124
 Frc consts  --      0.2980
 IR Inten    --      0.0023

 - Thermochemistry -
 -------------------
 Temperature   298.150 Kelvin.  Pressure   1.00000 Atm.
 Atom     1 has atomic number  1 and mass   1.00783

 Molecular mass:    21.01405 amu.
 Principal axes and moments of inertia in atomic units:
                           1         2         3
     Eigenvalues --     0.00000 125.08907 125.08907
           X            1.00000  -0.00000   0.00000
           Y            0.00000   1.00000   0.00000
           Z            0.00000   0.00000   1.00000
 This molecule is a prolate symmetric top.
 Rotational symmetry number  1.
 Rotational temperature (Kelvin)      0.69242
 Rotational constant (GHZ):          14.427649
    2 imaginary frequencies ignored.
 Zero-point vibrational energy       8456.0 (Joules/Mol)
                                    2.02104 (Kcal/Mol)
 Vibrational temperatures:   1017.03  1017.03
          (Kelvin)

 Zero-point correction=                           0.003221 (Hartree/Particle)
 Thermal correction to Energy=                    0.005801
 Thermal correction to Enthalpy=                  0.006745
 Thermal correction to Gibbs Free Energy=        -0.017525
 Sum of electronic and zero-point Energies=           -100.779757
 Sum of electronic and thermal Energies=              -100.777177
 Sum of electronic and thermal Enthalpies=            -100.776232
 Sum of electronic and thermal Free Energies=         -100.800503

                     E (Thermal)             CV                S
                      KCal/Mol        Cal/Mol-Kelvin    Cal/Mol-Kelvin
 Total                    3.640              6.600             51.081
 Electronic               0.000              0.000              1.377
 Translational            0.889              2.981             35.068
 Rotational               0.592              1.987             14.040
 Vibrational              2.159              1.632              0.596

 Normal termination of Gaussian 16 at Fri Aug 22 21:00:57 2025.
