 Gaussian 16, Revision C.01,
 Gaussian 16:  ES64L-G16RevC.01  3-Jul-2019

 -----------------------------------------
 # sp b3lyp/6-311g** Force nosymm scf=(qc)
 -----------------------------------------

 -------------------
 Title Card Required
 -------------------
 Symbolic Z-matrix:
 Charge =  0 Multiplicity = 2

                          Input orientation:
 ---------------------------------------------------------------------
 Center     Atomic      Atomic             Coordinates (Angstroms)
 Number     Number       Type             X           Y           Z
 ---------------------------------------------------------------------
      1          1           0        0.000000    0.000000    0.000000
      2          1           0       -3.550000    0.000000    0.000000
      3          9           0        3.000000    0.000000    0.000000
 ---------------------------------------------------------------------

 SCF Done:  E(UB3LYP) =  -100.761036383     a.u. after   23 cycles

 Alpha  occ. eigenvalues --  -24.74081  -1.20142  -0.53201  -0.44671  -0.44671
 Alpha  occ. eigenvalues --   -0.32531
 Alpha virt. eigenvalues --   -0.08107   0.23985   0.36128   0.89375   0.92278
 Alpha virt. eigenvalues --    0.92278   1.03896   1.24973   1.24973   1.25106
 Alpha virt. eigenvalues --    1.44012   1.44012   1.44312   2.14751   2.40122

  Beta  occ. eigenvalues --  -24.71054  -1.11467  -0.41642  -0.41642  -0.33732
  Beta virt. eigenvalues --   -0.24772  -0.06491   0.23926   0.37933   0.93739
  Beta virt. eigenvalues --    0.93739   0.98059   1.07619   1.23599   1.23599
  Beta virt. eigenvalues --    1.24056   1.45918   1.46168   1.46168   2.14898

 Mulliken charges and spin densities:
               1          2
     1  H    0.036801  -0.957362
     2  H    0.000395   0.998175
     3  F   -0.037196   0.959186
 Sum of Mulliken charges =  -0.00000   1.00000

 Dipole moment (field-independent basis, Debye):
    X=             -0.5798    Y=              0.0000    Z=              0.0000  Tot=              0.5798
 Quadrupole moment (field-independent basis, Debye-Ang):
   XX=             -8.3115   YY=             -7.6088   ZZ=             -7.6088
   XY=             -0.0000   XZ=             -0.0000   YZ=             -0.0000

  Exact polarizability:      31.706      -0.000       2.026      -0.000      -0.000       2.026
 Approx polarizability:      32.304      -0.000       1.926      -0.000       0.000       1.926

 ******    2 imaginary frequencies (negative Signs) ******

                      1                      2                      3
                      A                      A                      A
 Frequencies --   -376.4309              -111.8315               132.4749
 Red. masses --      1.0477                 1.0640                 1.0201
 Frc consts  --      0.0875                 0.0078                 0.0105
 IR Inten    --     39.3131                 0.5232                 1.2723

                      4
                      A
 Frequencies --    132.4749
 Red. masses --      1.0201
 Frc consts  --      0.0105
 IR Inten    --      1.2723

 - Thermochemistry -
 -------------------
 Temperature   298.150 Kelvin.  Pressure   1.00000 Atm.
 Atom     1 has atomic number  1 and mass   1.00783

 Molecular mass:    21.01405 amu.
 Principal axes and moments of inertia in atomic units:
                           1         2         3
     Eigenvalues --     0.00000 171.05536 171.05536
           X            1.00000  -0.00000   0.00000
           Y            0.00000   1.00000   0.00000
           Z            0.00000   0.00000   1.00000
 This molecule is a prolate symmetric top.
 Rotational symmetry number  1.
 Rotational temperature (Kelvin)      0.50635
 Rotational constant (GHZ):          10.550627
    2 imaginary frequencies ignored.
 Zero-point vibrational energy       1584.8 (Joules/Mol)
                                    0.37876 (Kcal/Mol)
 Warning -- explicit consideration of   2 degrees of freedom as
           vibrations may cause significant error
 Vibrational temperatures:    190.60   190.60
          (Kelvin)

 Zero-point correction=                           0.000604 (Hartree/Particle)
 Thermal correction to Energy=                    0.004313
 Thermal correction to Enthalpy=                  0.005257
 Thermal correction to Gibbs Free Energy=        -0.021791
 Sum of electronic and zero-point Energies=           -100.760433
 Sum of electronic and thermal Energies=              -100.756724
 Sum of electronic and thermal Enthalpies=            -100.755779
 Sum of electronic and thermal Free Energies=         -100.782827

                     E (Thermal)             CV                S
                      KCal/Mol        Cal/Mol-Kelvin    Cal/Mol-Kelvin
 Total                    2.706              8.810             56.927
 Electronic               0.000              0.000              1.377
 Translational            0.889              2.981             35.068
 Rotational               0.592              1.987             14.662
 Vibrational              1.225              3.842              5.820
 Vibration     1          0.613              1.921              2.910
 Vibration     2          0.613              1.921              2.910

 Normal termination of Gaussian 16 at Fri Aug 22 19:33:12 2025.
