 Gaussian 16, Revision C.01,
 Gaussian 16:  ES64L-G16RevC.01  3-Jul-2019

 -----------------------------------------
 # sp b3lyp/6-311g** Force nosymm scf=(qc)
 -----------------------------------------

 -------------------
 Title Card Required
 -------------------
 Symbolic Z-matrix:
 Charge =  0 Multiplicity = 2

                          Input orientation:
 ---------------------------------------------------------------------
 Center     Atomic      Atomic             Coordinates (Angstroms)
 Number     Number       Type             X           Y           Z
 ---------------------------------------------------------------------
      1          1           0        0.000000    0.000000    0.000000
      2          1           0       -2.250000    0.000000    0.000000
      3          9           0        3.600000    0.000000    0.000000
 ---------------------------------------------------------------------

 SCF Done:  E(UB3LYP) =  -100.766667484     a.u. after   32 cycles

 Alpha  occ. eigenvalues --  -24.75639  -1.21583  -0.54762  -0.45982  -0.45982
 Alpha  occ. eigenvalues --   -0.32810
 Alpha virt. eigenvalues --   -0.10259   0.25901   0.33563   0.87297   0.91316
 Alpha virt. eigenvalues --    0.91316   1.01523   1.24533   1.24993   1.24993
 Alpha virt. eigenvalues --    1.39712   1.39712   1.44595   2.14461   2.35518

  Beta  occ. eigenvalues --  -24.72512  -1.12594  -0.42847  -0.42847  -0.32973
  Beta virt. eigenvalues --   -0.25637  -0.09942   0.25739   0.34053   0.92809
  Beta virt. eigenvalues --    0.92809   0.96534   1.05597   1.24352   1.24796
  Beta virt. eigenvalues --    1.24796   1.40180   1.40180   1.45002   2.14921

 Mulliken charges and spin densities:
               1          2
     1  H    0.004139  -0.927337
     2  H    0.003229   0.935754
     3  F   -0.007368   0.991583
 Sum of Mulliken charges =   0.00000   1.00000

 Dipole moment (field-independent basis, Debye):
    X=             -0.1706    Y=              0.0000    Z=             -0.0000  Tot=              0.1706
 Quadrupole moment (field-independent basis, Debye-Ang):
   XX=             -6.7933   YY=             -7.6926   ZZ=             -7.6926
   XY=             -0.0000   XZ=              0.0000   YZ=              0.0000

  Exact polarizability:      35.192       0.000       2.007      -0.000       0.000       2.007
 Approx polarizability:      27.220      -0.000       1.930       0.000      -0.000       1.930

 ******    2 imaginary frequencies (negative Signs) ******

                      1                      2                      3
                      A                      A                      A
 Frequencies --   -952.3940              -123.1979               365.0146
 Red. masses --      1.0079                 1.1085                 1.0133
 Frc consts  --      0.5386                 0.0099                 0.0795
 IR Inten    --      4.4644                 4.5426                 0.0085

                      4
                      A
 Frequencies --    365.0146
 Red. masses --      1.0133
 Frc consts  --      0.0795
 IR Inten    --      0.0085

 - Thermochemistry -
 -------------------
 Temperature   298.150 Kelvin.  Pressure   1.00000 Atm.
 Atom     1 has atomic number  1 and mass   1.00783

 Molecular mass:    21.01405 amu.
 Principal axes and moments of inertia in atomic units:
                           1         2         3
     Eigenvalues --     0.00000 154.39599 154.39599
           X            1.00000  -0.00000   0.00000
           Y            0.00000   1.00000   0.00000
           Z            0.00000   0.00000   1.00000
 This molecule is a prolate symmetric top.
 Rotational symmetry number  1.
 Rotational temperature (Kelvin)      0.56099
 Rotational constant (GHZ):          11.689042
    2 imaginary frequencies ignored.
 Zero-point vibrational energy       4366.5 (Joules/Mol)
                                    1.04363 (Kcal/Mol)
 Warning -- explicit consideration of   2 degrees of freedom as
           vibrations may cause significant error
 Vibrational temperatures:    525.17   525.17
          (Kelvin)

 Zero-point correction=                           0.001663 (Hartree/Particle)
 Thermal correction to Energy=                    0.004714
 Thermal correction to Enthalpy=                  0.005658
 Thermal correction to Gibbs Free Energy=        -0.019574
 Sum of electronic and zero-point Energies=           -100.765004
 Sum of electronic and thermal Energies=              -100.761954
 Sum of electronic and thermal Enthalpies=            -100.761010
 Sum of electronic and thermal Free Energies=         -100.786242

                     E (Thermal)             CV                S
                      KCal/Mol        Cal/Mol-Kelvin    Cal/Mol-Kelvin
 Total                    2.958              8.057             53.105
 Electronic               0.000              0.000              1.377
 Translational            0.889              2.981             35.068
 Rotational               0.592              1.987             14.458
 Vibrational              1.477              3.089              2.201
 Vibration     1          0.738              1.544              1.101
 Vibration     2          0.738              1.544              1.101

 Normal termination of Gaussian 16 at Fri Aug 22 23:05:58 2025.
