 Gaussian 16, Revision C.01,
 Gaussian 16:  ES64L-G16RevC.01  3-Jul-2019

 -----------------------------------------
 # sp b3lyp/6-311g** Force nosymm scf=(qc)
 -----------------------------------------

 -------------------
 Title Card Required
 -------------------
 Symbolic Z-matrix:
 Charge =  0 Multiplicity = 2

                          Input orientation:
 ---------------------------------------------------------------------
 Center     Atomic      Atomic             Coordinates (Angstroms)
 Number     Number       Type             X           Y           Z
 ---------------------------------------------------------------------
      1          1           0        0.000000    0.000000    0.000000
      2          1           0       -2.350000    0.000000    0.000000
      3          9           0        0.750000    0.000000    0.000000
 ---------------------------------------------------------------------

 SCF Done:  E(UB3LYP) =  -100.922152488     a.u. after    6 cycles

 Alpha  occ. eigenvalues --  -24.63370  -1.25396  -0.57368  -0.41112  -0.41112
 Alpha  occ. eigenvalues --   -0.34806
 Alpha virt. eigenvalues --    0.07790   0.25285   0.48798   0.93999   0.93999
 Alpha virt. eigenvalues --    0.96368   1.16494   1.22744   1.22744   1.41786
 Alpha virt. eigenvalues --    1.41786   1.45751   1.99382   2.15171   2.67778

  Beta  occ. eigenvalues --  -24.63354  -1.25354  -0.57304  -0.41101  -0.41101
  Beta virt. eigenvalues --   -0.09207   0.09336   0.37396   0.48612   0.93998
  Beta virt. eigenvalues --    0.93998   0.96589   1.27097   1.41717   1.41717
  Beta virt. eigenvalues --    1.44346   1.44346   1.58077   2.00000   2.42616

 Mulliken charges and spin densities:
               1          2
     1  H    0.261050   0.004801
     2  H    0.006252   0.990638
     3  F   -0.267302   0.004562
 Sum of Mulliken charges =   0.00000   1.00000

 Dipole moment (field-independent basis, Debye):
    X=             -1.7321    Y=             -0.0000    Z=              0.0000  Tot=              1.7321
 Quadrupole moment (field-independent basis, Debye-Ang):
   XX=             -7.2278   YY=             -6.7047   ZZ=             -6.7047
   XY=             -0.0000   XZ=              0.0000   YZ=              0.0000

  Exact polarizability:       6.213       0.000       2.481      -0.000      -0.000       2.481
 Approx polarizability:       6.371       0.000       2.468       0.000      -0.000       2.468

 ******    2 imaginary frequencies (negative Signs) ******

                      1                      2                      3
                      A                      A                      A
 Frequencies --  -2674.5888             -2674.5888               145.1178
 Red. masses --      1.0353                 1.0353                 1.0532
 Frc consts  --      4.3633                 4.3633                 0.0131
 IR Inten    --    185.5136               185.5136                 0.3511

                      4
                      A
 Frequencies --   7583.8803
 Red. masses --      1.0583
 Frc consts  --     35.8633
 IR Inten    --    131.2301

 - Thermochemistry -
 -------------------
 Temperature   298.150 Kelvin.  Pressure   1.00000 Atm.
 Atom     1 has atomic number  1 and mass   1.00783

 Molecular mass:    21.01405 amu.
 Principal axes and moments of inertia in atomic units:
                           1         2         3
     Eigenvalues --     0.00000  34.05245  34.05245
           X            1.00000  -0.00000   0.00000
           Y            0.00000   1.00000   0.00000
           Z            0.00000   0.00000   1.00000
 This molecule is a prolate symmetric top.
 Rotational symmetry number  1.
 Rotational temperature (Kelvin)      2.54354
 Rotational constant (GHZ):          52.998868
    2 imaginary frequencies ignored.
 Zero-point vibrational energy      46229.7 (Joules/Mol)
                                   11.04916 (Kcal/Mol)
 Warning -- explicit consideration of   1 degrees of freedom as
           vibrations may cause significant error
 Vibrational temperatures:    208.79 10911.51
          (Kelvin)

 Zero-point correction=                           0.017608 (Hartree/Particle)
 Thermal correction to Energy=                    0.020620
 Thermal correction to Enthalpy=                  0.021564
 Thermal correction to Gibbs Free Energy=        -0.002494
 Sum of electronic and zero-point Energies=           -100.904545
 Sum of electronic and thermal Energies=              -100.901532
 Sum of electronic and thermal Enthalpies=            -100.900588
 Sum of electronic and thermal Free Energies=         -100.924646

                     E (Thermal)             CV                S
                      KCal/Mol        Cal/Mol-Kelvin    Cal/Mol-Kelvin
 Total                   12.939              6.876             50.635
 Electronic               0.000              0.000              1.377
 Translational            0.889              2.981             35.068
 Rotational               0.592              1.987             11.454
 Vibrational             11.458              1.908              2.735
 Vibration     1          0.617              1.908              2.735

 Normal termination of Gaussian 16 at Fri Aug 22 15:48:59 2025.
