 Gaussian 16, Revision C.01,
 Gaussian 16:  ES64L-G16RevC.01  3-Jul-2019

 -----------------------------------------
 # sp b3lyp/6-311g** Force nosymm scf=(qc)
 -----------------------------------------

 -------------------
 Title Card Required
 -------------------
 Symbolic Z-matrix:
 Charge =  0 Multiplicity = 2

                          Input orientation:
 ---------------------------------------------------------------------
 Center     Atomic      Atomic             Coordinates (Angstroms)
 Number     Number       Type             X           Y           Z
 ---------------------------------------------------------------------
      1          1           0        0.000000    0.000000    0.000000
      2          1           0       -3.900000    0.000000    0.000000
      3          9           0        3.400000    0.000000    0.000000
 ---------------------------------------------------------------------

 SCF Done:  E(UB3LYP) =  -100.759117371     a.u. after   26 cycles

 Alpha  occ. eigenvalues --  -24.75192  -1.21170  -0.54314  -0.45603  -0.45603
 Alpha  occ. eigenvalues --   -0.32321
 Alpha virt. eigenvalues --   -0.06551   0.24086   0.37044   0.87911   0.91602
 Alpha virt. eigenvalues --    0.91602   1.02098   1.25175   1.25175   1.25205
 Alpha virt. eigenvalues --    1.46003   1.46003   1.46446   2.14560   2.42147

  Beta  occ. eigenvalues --  -24.72090  -1.12261  -0.42495  -0.42495  -0.32944
  Beta virt. eigenvalues --   -0.25381  -0.05933   0.23813   0.38171   0.93087
  Beta virt. eigenvalues --    0.93087   0.96976   1.06061   1.24461   1.24461
  Beta virt. eigenvalues --    1.24483   1.46577   1.46704   1.46704   2.14759

 Mulliken charges and spin densities:
               1          2
     1  H    0.015092  -0.982589
     2  H    0.000077   0.999211
     3  F   -0.015169   0.983378
 Sum of Mulliken charges =  -0.00000   1.00000

 Dipole moment (field-independent basis, Debye):
    X=             -0.2665    Y=             -0.0000    Z=             -0.0000  Tot=              0.2665
 Quadrupole moment (field-independent basis, Debye-Ang):
   XX=             -7.5843   YY=             -7.6162   ZZ=             -7.6162
   XY=             -0.0000   XZ=             -0.0000   YZ=             -0.0000

  Exact polarizability:      25.286      -0.000       2.034      -0.000       0.000       2.034
 Approx polarizability:      21.043      -0.000       1.933      -0.000       0.000       1.933

 ******    2 imaginary frequencies (negative Signs) ******

                      1                      2                      3
                      A                      A                      A
 Frequencies --   -239.0877               -74.5615                71.3040
 Red. masses --      1.0465                 1.0652                 1.0197
 Frc consts  --      0.0352                 0.0035                 0.0031
 IR Inten    --     15.6274                 0.2251                 0.2112

                      4
                      A
 Frequencies --     71.3040
 Red. masses --      1.0197
 Frc consts  --      0.0031
 IR Inten    --      0.2112

 - Thermochemistry -
 -------------------
 Temperature   298.150 Kelvin.  Pressure   1.00000 Atm.
 Atom     1 has atomic number  1 and mass   1.00783

 Molecular mass:    21.01405 amu.
 Principal axes and moments of inertia in atomic units:
                           1         2         3
     Eigenvalues --     0.00000 213.63394 213.63394
           X            1.00000  -0.00000   0.00000
           Y            0.00000   1.00000   0.00000
           Z            0.00000   0.00000   1.00000
 This molecule is a prolate symmetric top.
 Rotational symmetry number  1.
 Rotational temperature (Kelvin)      0.40543
 Rotational constant (GHZ):           8.447821
    2 imaginary frequencies ignored.
 Zero-point vibrational energy        853.0 (Joules/Mol)
                                    0.20387 (Kcal/Mol)
 Warning -- explicit consideration of   2 degrees of freedom as
           vibrations may cause significant error
 Vibrational temperatures:    102.59   102.59
          (Kelvin)

 Zero-point correction=                           0.000325 (Hartree/Particle)
 Thermal correction to Energy=                    0.004267
 Thermal correction to Enthalpy=                  0.005212
 Thermal correction to Gibbs Free Energy=        -0.023193
 Sum of electronic and zero-point Energies=           -100.758792
 Sum of electronic and thermal Energies=              -100.754850
 Sum of electronic and thermal Enthalpies=            -100.753906
 Sum of electronic and thermal Free Energies=         -100.782311

                     E (Thermal)             CV                S
                      KCal/Mol        Cal/Mol-Kelvin    Cal/Mol-Kelvin
 Total                    2.678              8.903             59.783
 Electronic               0.000              0.000              1.377
 Translational            0.889              2.981             35.068
 Rotational               0.592              1.987             15.104
 Vibrational              1.197              3.935              8.234
 Vibration     1          0.598              1.968              4.117
 Vibration     2          0.598              1.968              4.117

 Normal termination of Gaussian 16 at Fri Aug 22 21:19:10 2025.
