 Gaussian 16, Revision C.01,
 Gaussian 16:  ES64L-G16RevC.01  3-Jul-2019

 -----------------------------------------
 # sp b3lyp/6-311g** Force nosymm scf=(qc)
 -----------------------------------------

 -------------------
 Title Card Required
 -------------------
 Symbolic Z-matrix:
 Charge =  0 Multiplicity = 2

                          Input orientation:
 ---------------------------------------------------------------------
 Center     Atomic      Atomic             Coordinates (Angstroms)
 Number     Number       Type             X           Y           Z
 ---------------------------------------------------------------------
      1          1           0        0.000000    0.000000    0.000000
      2          1           0       -1.500000    0.000000    0.000000
      3          9           0        2.650000    0.000000    0.000000
 ---------------------------------------------------------------------

 SCF Done:  E(UB3LYP) =  -100.822354153     a.u. after   21 cycles

 Alpha  occ. eigenvalues --  -24.74174  -1.20234  -0.53337  -0.44768  -0.44768
 Alpha  occ. eigenvalues --   -0.35378
 Alpha virt. eigenvalues --   -0.10540   0.23985   0.30793   0.89760   0.92144
 Alpha virt. eigenvalues --    0.92144   1.04444   1.10226   1.18635   1.18635
 Alpha virt. eigenvalues --    1.40198   1.40198   1.80557   2.20682   2.46744

  Beta  occ. eigenvalues --  -24.71167  -1.11627  -0.41761  -0.41761  -0.35000
  Beta virt. eigenvalues --   -0.25236  -0.09985   0.24771   0.31011   0.93583
  Beta virt. eigenvalues --    0.93583   0.97411   1.06392   1.13581   1.19087
  Beta virt. eigenvalues --    1.19087   1.40576   1.40576   1.81114   2.21536

 Mulliken charges and spin densities:
               1          2
     1  H    0.009249  -0.287553
     2  H    0.030872   0.336239
     3  F   -0.040121   0.951314
 Sum of Mulliken charges =   0.00000   1.00000

 Dipole moment (field-independent basis, Debye):
    X=             -0.7599    Y=              0.0000    Z=              0.0000  Tot=              0.7599
 Quadrupole moment (field-independent basis, Debye-Ang):
   XX=             -6.6042   YY=             -7.6919   ZZ=             -7.6919
   XY=              0.0000   XZ=              0.0000   YZ=              0.0000

  Exact polarizability:      57.050       0.000       2.050       0.000       0.000       2.050
 Approx polarizability:      76.862       0.000       2.030       0.000      -0.000       2.030

 ******    2 imaginary frequencies (negative Signs) ******

                      1                      2                      3
                      A                      A                      A
 Frequencies --  -2032.6029              -258.6082              1158.6994
 Red. masses --      1.0082                 1.1080                 1.0125
 Frc consts  --      2.4542                 0.0437                 0.8009
 IR Inten    --    554.6293                26.6480                 0.0083

                      4
                      A
 Frequencies --   1158.6994
 Red. masses --      1.0125
 Frc consts  --      0.8009
 IR Inten    --      0.0083

 - Thermochemistry -
 -------------------
 Temperature   298.150 Kelvin.  Pressure   1.00000 Atm.
 Atom     1 has atomic number  1 and mass   1.00783

 Molecular mass:    21.01405 amu.
 Principal axes and moments of inertia in atomic units:
                           1         2         3
     Eigenvalues --     0.00000  79.27662  79.27662
           X            1.00000  -0.00000   0.00000
           Y            0.00000   1.00000   0.00000
           Z            0.00000   0.00000   1.00000
 This molecule is a prolate symmetric top.
 Rotational symmetry number  1.
 Rotational temperature (Kelvin)      1.09255
 Rotational constant (GHZ):          22.765113
    2 imaginary frequencies ignored.
 Zero-point vibrational energy      13861.1 (Joules/Mol)
                                    3.31289 (Kcal/Mol)
 Vibrational temperatures:   1667.11  1667.11
          (Kelvin)

 Zero-point correction=                           0.005279 (Hartree/Particle)
 Thermal correction to Energy=                    0.007679
 Thermal correction to Enthalpy=                  0.008624
 Thermal correction to Gibbs Free Energy=        -0.014980
 Sum of electronic and zero-point Energies=           -100.817075
 Sum of electronic and thermal Energies=              -100.814675
 Sum of electronic and thermal Enthalpies=            -100.813731
 Sum of electronic and thermal Free Energies=         -100.837334

                     E (Thermal)             CV                S
                      KCal/Mol        Cal/Mol-Kelvin    Cal/Mol-Kelvin
 Total                    4.819              5.435             49.677
 Electronic               0.000              0.000              1.377
 Translational            0.889              2.981             35.068
 Rotational               0.592              1.987             13.134
 Vibrational              3.338              0.467              0.098

 Normal termination of Gaussian 16 at Fri Aug 22 18:13:44 2025.
