 Gaussian 16, Revision C.01,
 Gaussian 16:  ES64L-G16RevC.01  3-Jul-2019

 -----------------------------------------
 # sp b3lyp/6-311g** Force nosymm scf=(qc)
 -----------------------------------------

 -------------------
 Title Card Required
 -------------------
 Symbolic Z-matrix:
 Charge =  0 Multiplicity = 2

                          Input orientation:
 ---------------------------------------------------------------------
 Center     Atomic      Atomic             Coordinates (Angstroms)
 Number     Number       Type             X           Y           Z
 ---------------------------------------------------------------------
      1          1           0        0.000000    0.000000    0.000000
      2          1           0       -2.850000    0.000000    0.000000
      3          9           0        0.800000    0.000000    0.000000
 ---------------------------------------------------------------------

 SCF Done:  E(UB3LYP) =  -100.950446163     a.u. after    6 cycles

 Alpha  occ. eigenvalues --  -24.63646  -1.23010  -0.56173  -0.40620  -0.40620
 Alpha  occ. eigenvalues --   -0.34146
 Alpha virt. eigenvalues --    0.05640   0.25427   0.45778   0.94233   0.94233
 Alpha virt. eigenvalues --    0.96994   1.21528   1.23389   1.23389   1.34908
 Alpha virt. eigenvalues --    1.39850   1.39850   2.03051   2.14626   2.53113

  Beta  occ. eigenvalues --  -24.63642  -1.22997  -0.56157  -0.40616  -0.40616
  Beta virt. eigenvalues --   -0.07167   0.06862   0.38623   0.46060   0.94234
  Beta virt. eigenvalues --    0.94234   0.96995   1.30311   1.39848   1.39848
  Beta virt. eigenvalues --    1.49152   1.49152   1.51337   2.03089   2.43559

 Mulliken charges and spin densities:
               1          2
     1  H    0.272803   0.001889
     2  H    0.002754   0.996146
     3  F   -0.275557   0.001965
 Sum of Mulliken charges =   0.00000   1.00000

 Dipole moment (field-independent basis, Debye):
    X=             -1.7724    Y=              0.0000    Z=              0.0000  Tot=              1.7724
 Quadrupole moment (field-independent basis, Debye-Ang):
   XX=             -7.4891   YY=             -6.7672   ZZ=             -6.7672
   XY=              0.0000   XZ=              0.0000   YZ=             -0.0000

  Exact polarizability:       5.601      -0.000       2.457      -0.000       0.000       2.457
 Approx polarizability:       6.038      -0.000       2.440       0.000       0.000       2.440

 ******    3 imaginary frequencies (negative Signs) ******

                      1                      2                      3
                      A                      A                      A
 Frequencies --  -1968.6216             -1968.6216               -35.9207
 Red. masses --      1.0372                 1.0372                 1.0532
 Frc consts  --      2.3684                 2.3684                 0.0008
 IR Inten    --    188.9709               188.9709                 0.1870

                      4
                      A
 Frequencies --   6348.6910
 Red. masses --      1.0583
 Frc consts  --     25.1327
 IR Inten    --    116.0639

 - Thermochemistry -
 -------------------
 Temperature   298.150 Kelvin.  Pressure   1.00000 Atm.
 Atom     1 has atomic number  1 and mass   1.00783

 Molecular mass:    21.01405 amu.
 Principal axes and moments of inertia in atomic units:
                           1         2         3
     Eigenvalues --     0.00000  46.83311  46.83311
           X            1.00000  -0.00000   0.00000
           Y            0.00000   1.00000   0.00000
           Z            0.00000   0.00000   1.00000
 This molecule is a prolate symmetric top.
 Rotational symmetry number  1.
 Rotational temperature (Kelvin)      1.84942
 Rotational constant (GHZ):          38.535585
    3 imaginary frequencies ignored.
 Zero-point vibrational energy      37973.6 (Joules/Mol)
                                    9.07591 (Kcal/Mol)
 Vibrational temperatures:   9134.35
          (Kelvin)

 Zero-point correction=                           0.014463 (Hartree/Particle)
 Thermal correction to Energy=                    0.016824
 Thermal correction to Enthalpy=                  0.017768
 Thermal correction to Gibbs Free Energy=        -0.005292
 Sum of electronic and zero-point Energies=           -100.935983
 Sum of electronic and thermal Energies=              -100.933622
 Sum of electronic and thermal Enthalpies=            -100.932678
 Sum of electronic and thermal Free Energies=         -100.955738

                     E (Thermal)             CV                S
                      KCal/Mol        Cal/Mol-Kelvin    Cal/Mol-Kelvin
 Total                   10.557              4.968             48.533
 Electronic               0.000              0.000              1.377
 Translational            0.889              2.981             35.068
 Rotational               0.592              1.987             12.088
 Vibrational              9.076              0.000              0.000

 Normal termination of Gaussian 16 at Fri Aug 22 15:51:39 2025.
