 Gaussian 16, Revision C.01,
 Gaussian 16:  ES64L-G16RevC.01  3-Jul-2019

 -----------------------------------------
 # sp b3lyp/6-311g** Force nosymm scf=(qc)
 -----------------------------------------

 -------------------
 Title Card Required
 -------------------
 Symbolic Z-matrix:
 Charge =  0 Multiplicity = 2

                          Input orientation:
 ---------------------------------------------------------------------
 Center     Atomic      Atomic             Coordinates (Angstroms)
 Number     Number       Type             X           Y           Z
 ---------------------------------------------------------------------
      1          1           0        0.000000    0.000000    0.000000
      2          1           0       -2.250000    0.000000    0.000000
      3          9           0        2.750000    0.000000    0.000000
 ---------------------------------------------------------------------

 SCF Done:  E(UB3LYP) =  -100.770827746     a.u. after   22 cycles

 Alpha  occ. eigenvalues --  -24.73146  -1.19265  -0.52258  -0.43880  -0.43880
 Alpha  occ. eigenvalues --   -0.33764
 Alpha virt. eigenvalues --   -0.11790   0.25256   0.32750   0.90289   0.92843
 Alpha virt. eigenvalues --    0.92843   1.05531   1.24033   1.24033   1.24827
 Alpha virt. eigenvalues --    1.37447   1.37447   1.42785   2.13446   2.34640

  Beta  occ. eigenvalues --  -24.70189  -1.10812  -0.40925  -0.40925  -0.34436
  Beta virt. eigenvalues --   -0.24268  -0.10446   0.26066   0.33636   0.94277
  Beta virt. eigenvalues --    0.94277   0.98573   1.09255   1.23238   1.23238
  Beta virt. eigenvalues --    1.24650   1.39656   1.39656   1.44442   2.14385

 Mulliken charges and spin densities:
               1          2
     1  H    0.042694  -0.874147
     2  H    0.013980   0.938165
     3  F   -0.056675   0.935982
 Sum of Mulliken charges =   0.00000   1.00000

 Dipole moment (field-independent basis, Debye):
    X=             -0.9481    Y=              0.0000    Z=              0.0000  Tot=              0.9481
 Quadrupole moment (field-independent basis, Debye-Ang):
   XX=             -8.1331   YY=             -7.6606   ZZ=             -7.6606
   XY=              0.0000   XZ=              0.0000   YZ=              0.0000

  Exact polarizability:      52.733       0.000       2.008       0.000       0.000       2.008
 Approx polarizability:      50.531       0.000       1.920       0.000       0.000       1.920

 ******    2 imaginary frequencies (negative Signs) ******

                      1                      2                      3
                      A                      A                      A
 Frequencies --   -996.4749              -308.2583               385.4245
 Red. masses --      1.0094                 1.1066                 1.0157
 Frc consts  --      0.5906                 0.0620                 0.0889
 IR Inten    --     33.7927                34.8020                 1.2324

                      4
                      A
 Frequencies --    385.4245
 Red. masses --      1.0157
 Frc consts  --      0.0889
 IR Inten    --      1.2324

 - Thermochemistry -
 -------------------
 Temperature   298.150 Kelvin.  Pressure   1.00000 Atm.
 Atom     1 has atomic number  1 and mass   1.00783

 Molecular mass:    21.01405 amu.
 Principal axes and moments of inertia in atomic units:
                           1         2         3
     Eigenvalues --     0.00000 106.82551 106.82551
           X            1.00000  -0.00000   0.00000
           Y            0.00000   1.00000   0.00000
           Z            0.00000   0.00000   1.00000
 This molecule is a prolate symmetric top.
 Rotational symmetry number  1.
 Rotational temperature (Kelvin)      0.81080
 Rotational constant (GHZ):          16.894290
    2 imaginary frequencies ignored.
 Zero-point vibrational energy       4610.7 (Joules/Mol)
                                    1.10198 (Kcal/Mol)
 Warning -- explicit consideration of   2 degrees of freedom as
           vibrations may cause significant error
 Vibrational temperatures:    554.54   554.54
          (Kelvin)

 Zero-point correction=                           0.001756 (Hartree/Particle)
 Thermal correction to Energy=                    0.004764
 Thermal correction to Enthalpy=                  0.005708
 Thermal correction to Gibbs Free Energy=        -0.019097
 Sum of electronic and zero-point Energies=           -100.769072
 Sum of electronic and thermal Energies=              -100.766064
 Sum of electronic and thermal Enthalpies=            -100.765119
 Sum of electronic and thermal Free Energies=         -100.789925

                     E (Thermal)             CV                S
                      KCal/Mol        Cal/Mol-Kelvin    Cal/Mol-Kelvin
 Total                    2.990              7.971             52.207
 Electronic               0.000              0.000              1.377
 Translational            0.889              2.981             35.068
 Rotational               0.592              1.987             13.726
 Vibrational              1.508              3.003              2.036
 Vibration     1          0.754              1.501              1.018
 Vibration     2          0.754              1.501              1.018

 Normal termination of Gaussian 16 at Fri Aug 22 18:33:53 2025.
