 Gaussian 16, Revision C.01,
 Gaussian 16:  ES64L-G16RevC.01  3-Jul-2019

 -----------------------------------------
 # sp b3lyp/6-311g** Force nosymm scf=(qc)
 -----------------------------------------

 -------------------
 Title Card Required
 -------------------
 Symbolic Z-matrix:
 Charge =  0 Multiplicity = 2

                          Input orientation:
 ---------------------------------------------------------------------
 Center     Atomic      Atomic             Coordinates (Angstroms)
 Number     Number       Type             X           Y           Z
 ---------------------------------------------------------------------
      1          1           0        0.000000    0.000000    0.000000
      2          1           0       -2.950000    0.000000    0.000000
      3          9           0        3.550000    0.000000    0.000000
 ---------------------------------------------------------------------

 SCF Done:  E(UB3LYP) =  -100.760064160     a.u. after   31 cycles

 Alpha  occ. eigenvalues --  -24.75485  -1.21440  -0.54608  -0.45849  -0.45849
 Alpha  occ. eigenvalues --   -0.32445
 Alpha virt. eigenvalues --   -0.08123   0.25054   0.35848   0.87458   0.91419
 Alpha virt. eigenvalues --    0.91419   1.01685   1.25097   1.25097   1.25912
 Alpha virt. eigenvalues --    1.43747   1.43747   1.43796   2.15796   2.39332

  Beta  occ. eigenvalues --  -24.72365  -1.12475  -0.42722  -0.42722  -0.32826
  Beta virt. eigenvalues --   -0.25538  -0.07632   0.24835   0.36607   0.92910
  Beta virt. eigenvalues --    0.92910   0.96642   1.05724   1.24657   1.24657
  Beta virt. eigenvalues --    1.25430   1.44524   1.44524   1.44559   2.16085

 Mulliken charges and spin densities:
               1          2
     1  H    0.009088  -0.980543
     2  H    0.000682   0.991375
     3  F   -0.009770   0.989168
 Sum of Mulliken charges =  -0.00000   1.00000

 Dipole moment (field-independent basis, Debye):
    X=             -0.1880    Y=             -0.0000    Z=             -0.0000  Tot=              0.1880
 Quadrupole moment (field-independent basis, Debye-Ang):
   XX=             -7.2311   YY=             -7.6369   ZZ=             -7.6369
   XY=             -0.0000   XZ=              0.0000   YZ=              0.0000

  Exact polarizability:      25.286      -0.000       2.033       0.000       0.000       2.033
 Approx polarizability:      19.290      -0.000       1.932       0.000      -0.000       1.932

 ******    2 imaginary frequencies (negative Signs) ******

                      1                      2                      3
                      A                      A                      A
 Frequencies --   -376.8924              -127.2512               129.5203
 Red. masses --      1.0099                 1.1060                 1.0159
 Frc consts  --      0.0845                 0.0106                 0.0100
 IR Inten    --      6.0262                 3.8172                 0.0644

                      4
                      A
 Frequencies --    129.5204
 Red. masses --      1.0159
 Frc consts  --      0.0100
 IR Inten    --      0.0644

 - Thermochemistry -
 -------------------
 Temperature   298.150 Kelvin.  Pressure   1.00000 Atm.
 Atom     1 has atomic number  1 and mass   1.00783

 Molecular mass:    21.01405 amu.
 Principal axes and moments of inertia in atomic units:
                           1         2         3
     Eigenvalues --     0.00000 179.98089 179.98089
           X            1.00000  -0.00000   0.00000
           Y            0.00000   1.00000   0.00000
           Z            0.00000   0.00000   1.00000
 This molecule is a prolate symmetric top.
 Rotational symmetry number  1.
 Rotational temperature (Kelvin)      0.48124
 Rotational constant (GHZ):          10.027405
    2 imaginary frequencies ignored.
 Zero-point vibrational energy       1549.4 (Joules/Mol)
                                    0.37032 (Kcal/Mol)
 Warning -- explicit consideration of   2 degrees of freedom as
           vibrations may cause significant error
 Vibrational temperatures:    186.35   186.35
          (Kelvin)

 Zero-point correction=                           0.000590 (Hartree/Particle)
 Thermal correction to Energy=                    0.004310
 Thermal correction to Enthalpy=                  0.005254
 Thermal correction to Gibbs Free Energy=        -0.021883
 Sum of electronic and zero-point Energies=           -100.759474
 Sum of electronic and thermal Energies=              -100.755754
 Sum of electronic and thermal Enthalpies=            -100.754810
 Sum of electronic and thermal Free Energies=         -100.781947

                     E (Thermal)             CV                S
                      KCal/Mol        Cal/Mol-Kelvin    Cal/Mol-Kelvin
 Total                    2.705              8.816             57.115
 Electronic               0.000              0.000              1.377
 Translational            0.889              2.981             35.068
 Rotational               0.592              1.987             14.763
 Vibrational              1.223              3.848              5.906
 Vibration     1          0.612              1.924              2.953
 Vibration     2          0.612              1.924              2.953

 Normal termination of Gaussian 16 at Fri Aug 22 22:40:32 2025.
