 Gaussian 16, Revision C.01,
 Gaussian 16:  ES64L-G16RevC.01  3-Jul-2019

 -----------------------------------------
 # sp b3lyp/6-311g** Force nosymm scf=(qc)
 -----------------------------------------

 -------------------
 Title Card Required
 -------------------
 Symbolic Z-matrix:
 Charge =  0 Multiplicity = 2

                          Input orientation:
 ---------------------------------------------------------------------
 Center     Atomic      Atomic             Coordinates (Angstroms)
 Number     Number       Type             X           Y           Z
 ---------------------------------------------------------------------
      1          1           0        0.000000    0.000000    0.000000
      2          1           0       -1.600000    0.000000    0.000000
      3          9           0        3.050000    0.000000    0.000000
 ---------------------------------------------------------------------

 SCF Done:  E(UB3LYP) =  -100.806865813     a.u. after   29 cycles

 Alpha  occ. eigenvalues --  -24.75158  -1.21141  -0.54288  -0.45588  -0.45588
 Alpha  occ. eigenvalues --   -0.34218
 Alpha virt. eigenvalues --   -0.10988   0.24825   0.30089   0.89317   0.91580
 Alpha virt. eigenvalues --    0.91580   1.03609   1.05893   1.21430   1.21430
 Alpha virt. eigenvalues --    1.38601   1.38601   1.73949   2.18586   2.44203

  Beta  occ. eigenvalues --  -24.72076  -1.12291  -0.42500  -0.42500  -0.34055
  Beta virt. eigenvalues --   -0.25564  -0.10737   0.25201   0.30361   0.93055
  Beta virt. eigenvalues --    0.93055   0.98093   1.05914   1.07862   1.21613
  Beta virt. eigenvalues --    1.21613   1.38803   1.38803   1.74293   2.19316

 Mulliken charges and spin densities:
               1          2
     1  H    0.001332  -0.458055
     2  H    0.017615   0.481141
     3  F   -0.018947   0.976914
 Sum of Mulliken charges =   0.00000   1.00000

 Dipole moment (field-independent basis, Debye):
    X=             -0.4283    Y=              0.0000    Z=             -0.0000  Tot=              0.4283
 Quadrupole moment (field-independent basis, Debye-Ang):
   XX=             -6.3213   YY=             -7.7475   ZZ=             -7.7475
   XY=              0.0000   XZ=             -0.0000   YZ=             -0.0000

  Exact polarizability:      53.929       0.000       2.182      -0.000      -0.000       2.182
 Approx polarizability:      65.264       0.000       1.999      -0.000       0.000       1.999

 ******    2 imaginary frequencies (negative Signs) ******

                      1                      2                      3
                      A                      A                      A
 Frequencies --  -2061.1439              -189.6791              1029.2285
 Red. masses --      1.0079                 1.1084                 1.0120
 Frc consts  --      2.5228                 0.0235                 0.6316
 IR Inten    --    145.0715                17.7213                 0.0269

                      4
                      A
 Frequencies --   1029.2287
 Red. masses --      1.0120
 Frc consts  --      0.6316
 IR Inten    --      0.0269

 - Thermochemistry -
 -------------------
 Temperature   298.150 Kelvin.  Pressure   1.00000 Atm.
 Atom     1 has atomic number  1 and mass   1.00783

 Molecular mass:    21.01405 amu.
 Principal axes and moments of inertia in atomic units:
                           1         2         3
     Eigenvalues --     0.00000 101.06548 101.06548
           X            1.00000  -0.00000   0.00000
           Y            0.00000   1.00000   0.00000
           Z            0.00000   0.00000   1.00000
 This molecule is a prolate symmetric top.
 Rotational symmetry number  1.
 Rotational temperature (Kelvin)      0.85701
 Rotational constant (GHZ):          17.857149
    2 imaginary frequencies ignored.
 Zero-point vibrational energy      12312.3 (Joules/Mol)
                                    2.94271 (Kcal/Mol)
 Vibrational temperatures:   1480.83  1480.83
          (Kelvin)

 Zero-point correction=                           0.004690 (Hartree/Particle)
 Thermal correction to Energy=                    0.007116
 Thermal correction to Enthalpy=                  0.008060
 Thermal correction to Gibbs Free Energy=        -0.015805
 Sum of electronic and zero-point Energies=           -100.802176
 Sum of electronic and thermal Energies=              -100.799750
 Sum of electronic and thermal Enthalpies=            -100.798806
 Sum of electronic and thermal Free Energies=         -100.822671

                     E (Thermal)             CV                S
                      KCal/Mol        Cal/Mol-Kelvin    Cal/Mol-Kelvin
 Total                    4.465              5.661             50.228
 Electronic               0.000              0.000              1.377
 Translational            0.889              2.981             35.068
 Rotational               0.592              1.987             13.616
 Vibrational              2.984              0.693              0.166

 Normal termination of Gaussian 16 at Fri Aug 22 19:42:54 2025.
