 Gaussian 16, Revision C.01,
 Gaussian 16:  ES64L-G16RevC.01  3-Jul-2019

 -----------------------------------------
 # sp b3lyp/6-311g** Force nosymm scf=(qc)
 -----------------------------------------

 -------------------
 Title Card Required
 -------------------
 Symbolic Z-matrix:
 Charge =  0 Multiplicity = 2

                          Input orientation:
 ---------------------------------------------------------------------
 Center     Atomic      Atomic             Coordinates (Angstroms)
 Number     Number       Type             X           Y           Z
 ---------------------------------------------------------------------
      1          1           0        0.000000    0.000000    0.000000
      2          1           0       -1.200000    0.000000    0.000000
      3          9           0        3.000000    0.000000    0.000000
 ---------------------------------------------------------------------

 SCF Done:  E(UB3LYP) =  -100.872247559     a.u. after   89 cycles

 Alpha  occ. eigenvalues --  -24.76689  -1.22510  -0.55699  -0.46950  -0.46849
 Alpha  occ. eigenvalues --   -0.36176
 Alpha virt. eigenvalues --   -0.03848   0.23014   0.34602   0.85759   0.90632
 Alpha virt. eigenvalues --    0.93364   1.03956   1.13038   1.13044   1.22321
 Alpha virt. eigenvalues --    1.54540   1.54547   2.08536   2.32325   2.55437

  Beta  occ. eigenvalues --  -24.73528  -1.13424  -0.43792  -0.43680  -0.36162
  Beta virt. eigenvalues --   -0.26324  -0.03830   0.23035   0.34679   0.92130
  Beta virt. eigenvalues --    0.95056   0.95217   1.07813   1.13037   1.13043
  Beta virt. eigenvalues --    1.22326   1.54539   1.54546   2.08546   2.32328

 Mulliken charges and spin densities:
               1          2
     1  H   -0.001473  -0.000281
     2  H   -0.006433  -0.000766
     3  F    0.007906   1.001048
 Sum of Mulliken charges =   0.00000   1.00000

 Dipole moment (field-independent basis, Debye):
    X=              0.1058    Y=             -0.0000    Z=             -0.0000  Tot=              0.1058
 Quadrupole moment (field-independent basis, Debye-Ang):
   XX=             -6.1480   YY=             -7.0692   ZZ=             -7.0712
   XY=             -0.0000   XZ=             -0.0000   YZ=              0.4318

  Exact polarizability:      16.523      -0.000       2.313      -0.000       0.230       2.312
 Approx polarizability:      24.534      -0.000       2.401      -0.000       0.290       2.399

 ******    1 imaginary frequencies (negative Signs) ******

                      1                      2                      3
                      A                      A                      A
 Frequencies --   -452.7052                40.1000              1469.3410
 Red. masses --      1.0078                 1.1085                 1.0106
 Frc consts  --      0.1217                 0.0011                 1.2855
 IR Inten    --      1.0044                 0.5511                 0.0020

                      4
                      A
 Frequencies --   1469.6368
 Red. masses --      1.0106
 Frc consts  --      1.2860
 IR Inten    --      0.0022

 - Thermochemistry -
 -------------------
 Temperature   298.150 Kelvin.  Pressure   1.00000 Atm.
 Atom     1 has atomic number  1 and mass   1.00783

 Molecular mass:    21.01405 amu.
 Principal axes and moments of inertia in atomic units:
                           1         2         3
     Eigenvalues --     0.00000  86.92965  86.92965
           X            1.00000  -0.00000   0.00000
           Y            0.00000   1.00000   0.00000
           Z            0.00000   0.00000   1.00000
 This molecule is a prolate symmetric top.
 Rotational symmetry number  1.
 Rotational temperature (Kelvin)      0.99637
 Rotational constant (GHZ):          20.760941
    1 imaginary frequencies ignored.
 Zero-point vibrational energy      17818.8 (Joules/Mol)
                                    4.25881 (Kcal/Mol)
 Warning -- explicit consideration of   1 degrees of freedom as
           vibrations may cause significant error
 Vibrational temperatures:     57.69  2114.05  2114.48
          (Kelvin)

 Zero-point correction=                           0.006787 (Hartree/Particle)
 Thermal correction to Energy=                    0.010014
 Thermal correction to Enthalpy=                  0.010958
 Thermal correction to Gibbs Free Energy=        -0.015194
 Sum of electronic and zero-point Energies=           -100.865461
 Sum of electronic and thermal Energies=              -100.862233
 Sum of electronic and thermal Enthalpies=            -100.861289
 Sum of electronic and thermal Free Energies=         -100.887442

                     E (Thermal)             CV                S
                      KCal/Mol        Cal/Mol-Kelvin    Cal/Mol-Kelvin
 Total                    6.284              7.116             55.043
 Electronic               0.000              0.000              1.377
 Translational            0.889              2.981             35.068
 Rotational               0.592              1.987             13.317
 Vibrational              4.803              2.148              5.281
 Vibration     1          0.594              1.981              5.254

 Normal termination of Gaussian 16 at Fri Aug 22 19:26:58 2025.
