 Gaussian 16, Revision C.01,
 Gaussian 16:  ES64L-G16RevC.01  3-Jul-2019

 -----------------------------------------
 # sp b3lyp/6-311g** Force nosymm scf=(qc)
 -----------------------------------------

 -------------------
 Title Card Required
 -------------------
 Symbolic Z-matrix:
 Charge =  0 Multiplicity = 2

                          Input orientation:
 ---------------------------------------------------------------------
 Center     Atomic      Atomic             Coordinates (Angstroms)
 Number     Number       Type             X           Y           Z
 ---------------------------------------------------------------------
      1          1           0        0.000000    0.000000    0.000000
      2          1           0       -1.500000    0.000000    0.000000
      3          9           0        1.950000    0.000000    0.000000
 ---------------------------------------------------------------------

 SCF Done:  E(UB3LYP) =  -100.837607027     a.u. after   14 cycles

 Alpha  occ. eigenvalues --  -24.69347  -1.15729  -0.48918  -0.40754  -0.40754
 Alpha  occ. eigenvalues --   -0.38139
 Alpha virt. eigenvalues --   -0.10284   0.22269   0.30953   0.85677   0.93867
 Alpha virt. eigenvalues --    0.93867   1.03049   1.16281   1.16281   1.31217
 Alpha virt. eigenvalues --    1.38982   1.38982   1.83832   2.19912   2.43994

  Beta  occ. eigenvalues --  -24.66835  -1.08685  -0.38273  -0.38273  -0.37799
  Beta virt. eigenvalues --   -0.23359  -0.08484   0.24416   0.30860   0.89663
  Beta virt. eigenvalues --    0.94779   0.94779   1.07157   1.18582   1.18582
  Beta virt. eigenvalues --    1.35787   1.39835   1.39835   1.85648   2.20797

 Mulliken charges and spin densities:
               1          2
     1  H    0.097086  -0.353141
     2  H    0.064595   0.565417
     3  F   -0.161681   0.787724
 Sum of Mulliken charges =  -0.00000   1.00000

 Dipole moment (field-independent basis, Debye):
    X=             -2.0221    Y=             -0.0000    Z=              0.0000  Tot=              2.0221
 Quadrupole moment (field-independent basis, Debye-Ang):
   XX=             -7.7576   YY=             -7.5034   ZZ=             -7.5034
   XY=             -0.0000   XZ=              0.0000   YZ=              0.0000

  Exact polarizability:      50.862      -0.000       2.130       0.000      -0.000       2.130
 Approx polarizability:      77.420       0.000       2.079      -0.000       0.000       2.079

 ******    2 imaginary frequencies (negative Signs) ******

                      1                      2                      3
                      A                      A                      A
 Frequencies --  -2195.1653              -493.4649              1074.0031
 Red. masses --      1.0128                 1.1026                 1.0151
 Frc consts  --      2.8754                 0.1582                 0.6899
 IR Inten    --    768.8828                12.9209                 2.6753

                      4
                      A
 Frequencies --   1074.0031
 Red. masses --      1.0151
 Frc consts  --      0.6899
 IR Inten    --      2.6753

 - Thermochemistry -
 -------------------
 Temperature   298.150 Kelvin.  Pressure   1.00000 Atm.
 Atom     1 has atomic number  1 and mass   1.00783

 Molecular mass:    21.01405 amu.
 Principal axes and moments of inertia in atomic units:
                           1         2         3
     Eigenvalues --     0.00000  51.48921  51.48921
           X            1.00000  -0.00000   0.00000
           Y            0.00000   1.00000   0.00000
           Z            0.00000   0.00000   1.00000
 This molecule is a prolate symmetric top.
 Rotational symmetry number  1.
 Rotational temperature (Kelvin)      1.68218
 Rotational constant (GHZ):          35.050861
    2 imaginary frequencies ignored.
 Zero-point vibrational energy      12847.9 (Joules/Mol)
                                    3.07073 (Kcal/Mol)
 Vibrational temperatures:   1545.25  1545.25
          (Kelvin)

 Zero-point correction=                           0.004894 (Hartree/Particle)
 Thermal correction to Energy=                    0.007309
 Thermal correction to Enthalpy=                  0.008253
 Thermal correction to Gibbs Free Energy=        -0.014962
 Sum of electronic and zero-point Energies=           -100.832714
 Sum of electronic and thermal Energies=              -100.830298
 Sum of electronic and thermal Enthalpies=            -100.829354
 Sum of electronic and thermal Free Energies=         -100.852569

                     E (Thermal)             CV                S
                      KCal/Mol        Cal/Mol-Kelvin    Cal/Mol-Kelvin
 Total                    4.587              5.574             48.860
 Electronic               0.000              0.000              1.377
 Translational            0.889              2.981             35.068
 Rotational               0.592              1.987             12.276
 Vibrational              3.105              0.606              0.139

 Normal termination of Gaussian 16 at Fri Aug 22 16:52:51 2025.
