 Gaussian 16, Revision C.01,
 Gaussian 16:  ES64L-G16RevC.01  3-Jul-2019

 -----------------------------------------
 # sp b3lyp/6-311g** Force nosymm scf=(qc)
 -----------------------------------------

 -------------------
 Title Card Required
 -------------------
 Symbolic Z-matrix:
 Charge =  0 Multiplicity = 2

                          Input orientation:
 ---------------------------------------------------------------------
 Center     Atomic      Atomic             Coordinates (Angstroms)
 Number     Number       Type             X           Y           Z
 ---------------------------------------------------------------------
      1          1           0        0.000000    0.000000    0.000000
      2          1           0       -2.250000    0.000000    0.000000
      3          9           0        1.950000    0.000000    0.000000
 ---------------------------------------------------------------------

 SCF Done:  E(UB3LYP) =  -100.797398270     a.u. after   12 cycles

 Alpha  occ. eigenvalues --  -24.67638  -1.13953  -0.46641  -0.39235  -0.39235
 Alpha  occ. eigenvalues --   -0.35728
 Alpha virt. eigenvalues --   -0.13933   0.24044   0.30472   0.90060   0.95051
 Alpha virt. eigenvalues --    0.95051   1.05953   1.22039   1.22039   1.27085
 Alpha virt. eigenvalues --    1.34271   1.34271   1.62078   2.11922   2.28468

  Beta  occ. eigenvalues --  -24.65351  -1.07579  -0.37868  -0.36986  -0.36986
  Beta virt. eigenvalues --   -0.20676  -0.10825   0.25401   0.33337   0.92216
  Beta virt. eigenvalues --    0.95595   0.95595   1.08752   1.23005   1.23005
  Beta virt. eigenvalues --    1.38827   1.38827   1.42220   1.56593   2.12534

 Mulliken charges and spin densities:
               1          2
     1  H    0.175232  -0.661368
     2  H    0.030614   0.942539
     3  F   -0.205846   0.718829
 Sum of Mulliken charges =   0.00000   1.00000

 Dipole moment (field-independent basis, Debye):
    X=             -2.3114    Y=             -0.0000    Z=             -0.0000  Tot=              2.3114
 Quadrupole moment (field-independent basis, Debye-Ang):
   XX=             -9.1324   YY=             -7.5222   ZZ=             -7.5222
   XY=             -0.0000   XZ=             -0.0000   YZ=              0.0000

  Exact polarizability:      42.349      -0.000       2.068      -0.000       0.000       2.068
 Approx polarizability:      50.495      -0.000       1.965      -0.000      -0.000       1.965

 ******    2 imaginary frequencies (negative Signs) ******

                      1                      2                      3
                      A                      A                      A
 Frequencies --  -1392.5512              -500.5949               582.0583
 Red. masses --      1.0342                 1.0782                 1.0198
 Frc consts  --      1.1817                 0.1592                 0.2036
 IR Inten    --     88.9716                25.3048                22.9602

                      4
                      A
 Frequencies --    582.0583
 Red. masses --      1.0198
 Frc consts  --      0.2036
 IR Inten    --     22.9602

 - Thermochemistry -
 -------------------
 Temperature   298.150 Kelvin.  Pressure   1.00000 Atm.
 Atom     1 has atomic number  1 and mass   1.00783

 Molecular mass:    21.01405 amu.
 Principal axes and moments of inertia in atomic units:
                           1         2         3
     Eigenvalues --     0.00000  70.64332  70.64332
           X            1.00000  -0.00000   0.00000
           Y            0.00000   1.00000   0.00000
           Z            0.00000   0.00000   1.00000
 This molecule is a prolate symmetric top.
 Rotational symmetry number  1.
 Rotational temperature (Kelvin)      1.22607
 Rotational constant (GHZ):          25.547232
    2 imaginary frequencies ignored.
 Zero-point vibrational energy       6963.0 (Joules/Mol)
                                    1.66419 (Kcal/Mol)
 Warning -- explicit consideration of   2 degrees of freedom as
           vibrations may cause significant error
 Vibrational temperatures:    837.45   837.45
          (Kelvin)

 Zero-point correction=                           0.002652 (Hartree/Particle)
 Thermal correction to Energy=                    0.005353
 Thermal correction to Enthalpy=                  0.006297
 Thermal correction to Gibbs Free Energy=        -0.017608
 Sum of electronic and zero-point Energies=           -100.794746
 Sum of electronic and thermal Energies=              -100.792046
 Sum of electronic and thermal Enthalpies=            -100.791101
 Sum of electronic and thermal Free Energies=         -100.815007

                     E (Thermal)             CV                S
                      KCal/Mol        Cal/Mol-Kelvin    Cal/Mol-Kelvin
 Total                    3.359              7.108             50.313
 Electronic               0.000              0.000              1.377
 Translational            0.889              2.981             35.068
 Rotational               0.592              1.987             12.904
 Vibrational              1.878              2.140              0.963
 Vibration     1          0.939              1.070              0.482
 Vibration     2          0.939              1.070              0.482

 Normal termination of Gaussian 16 at Fri Aug 22 16:53:31 2025.
