 Gaussian 16, Revision C.01,
 Gaussian 16:  ES64L-G16RevC.01  3-Jul-2019

 -----------------------------------------
 # sp b3lyp/6-311g** Force nosymm scf=(qc)
 -----------------------------------------

 -------------------
 Title Card Required
 -------------------
 Symbolic Z-matrix:
 Charge =  0 Multiplicity = 2

                          Input orientation:
 ---------------------------------------------------------------------
 Center     Atomic      Atomic             Coordinates (Angstroms)
 Number     Number       Type             X           Y           Z
 ---------------------------------------------------------------------
      1          1           0        0.000000    0.000000    0.000000
      2          1           0       -1.100000    0.000000    0.000000
      3          9           0        0.750000    0.000000    0.000000
 ---------------------------------------------------------------------

 SCF Done:  E(UB3LYP) =  -100.898299490     a.u. after    6 cycles

 Alpha  occ. eigenvalues --  -24.64274  -1.27048  -0.61144  -0.42053  -0.42053
 Alpha  occ. eigenvalues --   -0.35362
 Alpha virt. eigenvalues --    0.15446   0.19541   0.59646   0.90900   0.90900
 Alpha virt. eigenvalues --    0.94546   1.09597   1.09597   1.45375   1.60557
 Alpha virt. eigenvalues --    1.60557   1.73427   2.00748   2.33924   3.44736

  Beta  occ. eigenvalues --  -24.63875  -1.25930  -0.58635  -0.41720  -0.41720
  Beta virt. eigenvalues --   -0.14301   0.16454   0.25318   0.65186   0.92039
  Beta virt. eigenvalues --    0.92039   0.95375   1.17614   1.17614   1.46744
  Beta virt. eigenvalues --    1.66408   1.66408   1.84582   2.02229   2.50731

 Mulliken charges and spin densities:
               1          2
     1  H    0.256258   0.001890
     2  H   -0.001950   0.924294
     3  F   -0.254307   0.073816
 Sum of Mulliken charges =   0.00000   1.00000

 Dipole moment (field-independent basis, Debye):
    X=             -1.5215    Y=             -0.0000    Z=             -0.0000  Tot=              1.5215
 Quadrupole moment (field-independent basis, Debye-Ang):
   XX=             -7.3759   YY=             -6.5471   ZZ=             -6.5471
   XY=             -0.0000   XZ=             -0.0000   YZ=              0.0000

  Exact polarizability:       8.817       0.000       2.573      -0.000      -0.000       2.573
 Approx polarizability:       8.849       0.000       2.613       0.000      -0.000       2.613

 ******    2 imaginary frequencies (negative Signs) ******

                      1                      2                      3
                      A                      A                      A
 Frequencies --  -2764.7198             -2764.7198              1589.5704
 Red. masses --      1.0232                 1.0232                 1.0545
 Frc consts  --      4.6079                 4.6079                 1.5698
 IR Inten    --    116.2922               116.2922                44.1442

                      4
                      A
 Frequencies --   7475.0839
 Red. masses --      1.0571
 Frc consts  --     34.8002
 IR Inten    --    101.8910

 - Thermochemistry -
 -------------------
 Temperature   298.150 Kelvin.  Pressure   1.00000 Atm.
 Atom     1 has atomic number  1 and mass   1.00783

 Molecular mass:    21.01405 amu.
 Principal axes and moments of inertia in atomic units:
                           1         2         3
     Eigenvalues --     0.00000  13.17523  13.17523
           X            1.00000  -0.00000   0.00000
           Y            0.00000   1.00000   0.00000
           Z            0.00000   0.00000   1.00000
 This molecule is a prolate symmetric top.
 Rotational symmetry number  1.
 Rotational temperature (Kelvin)      6.57400
 Rotational constant (GHZ):         136.979902
    2 imaginary frequencies ignored.
 Zero-point vibrational energy      54218.7 (Joules/Mol)
                                   12.95857 (Kcal/Mol)
 Vibrational temperatures:   2287.04 10754.98
          (Kelvin)

 Zero-point correction=                           0.020651 (Hartree/Particle)
 Thermal correction to Energy=                    0.023015
 Thermal correction to Enthalpy=                  0.023959
 Thermal correction to Gibbs Free Energy=         0.002093
 Sum of electronic and zero-point Energies=           -100.877649
 Sum of electronic and thermal Energies=              -100.875285
 Sum of electronic and thermal Enthalpies=            -100.874341
 Sum of electronic and thermal Free Energies=         -100.896207

                     E (Thermal)             CV                S
                      KCal/Mol        Cal/Mol-Kelvin    Cal/Mol-Kelvin
 Total                   14.442              5.023             46.021
 Electronic               0.000              0.000              1.377
 Translational            0.889              2.981             35.068
 Rotational               0.592              1.987              9.567
 Vibrational             12.961              0.055              0.008

 Normal termination of Gaussian 16 at Fri Aug 22 15:48:08 2025.
