 Gaussian 16, Revision C.01,
 Gaussian 16:  ES64L-G16RevC.01  3-Jul-2019

 -----------------------------------------
 # sp b3lyp/6-311g** Force nosymm scf=(qc)
 -----------------------------------------

 -------------------
 Title Card Required
 -------------------
 Symbolic Z-matrix:
 Charge =  0 Multiplicity = 2

                          Input orientation:
 ---------------------------------------------------------------------
 Center     Atomic      Atomic             Coordinates (Angstroms)
 Number     Number       Type             X           Y           Z
 ---------------------------------------------------------------------
      1          1           0        0.000000    0.000000    0.000000
      2          1           0       -0.850000    0.000000    0.000000
      3          9           0        3.950000    0.000000    0.000000
 ---------------------------------------------------------------------

 SCF Done:  E(UB3LYP) =  -100.927608671     a.u. after  127 cycles

 Alpha  occ. eigenvalues --  -24.76185  -1.22082  -0.55286  -0.46460  -0.46442
 Alpha  occ. eigenvalues --   -0.41290
 Alpha virt. eigenvalues --    0.03671   0.20426   0.43258   0.86084   0.90961
 Alpha virt. eigenvalues --    0.91577   1.01015   1.08216   1.08218   1.48867
 Alpha virt. eigenvalues --    1.75554   1.75556   2.10960   2.37634   2.87582

  Beta  occ. eigenvalues --  -24.73030  -1.13008  -0.43298  -0.43278  -0.41287
  Beta virt. eigenvalues --   -0.25935   0.03674   0.20429   0.43275   0.92461
  Beta virt. eigenvalues --    0.93068   0.95550   1.05158   1.08216   1.08218
  Beta virt. eigenvalues --    1.48868   1.75554   1.75556   2.10964   2.37634

 Mulliken charges and spin densities:
               1          2
     1  H    0.000541  -0.000121
     2  H   -0.001729  -0.000007
     3  F    0.001188   1.000127
 Sum of Mulliken charges =   0.00000   1.00000

 Dipole moment (field-independent basis, Debye):
    X=              0.0204    Y=              0.0000    Z=             -0.0000  Tot=              0.0204
 Quadrupole moment (field-independent basis, Debye-Ang):
   XX=             -6.3257   YY=             -6.9151   ZZ=             -6.3895
   XY=              0.0000   XZ=             -0.0000   YZ=             -0.3433

  Exact polarizability:       9.467       0.000       2.098      -0.000      -0.185       2.382
 Approx polarizability:      11.517       0.000       2.187      -0.000      -0.231       2.541

 ******    1 imaginary frequencies (negative Signs) ******

                      1                      2                      3
                      A                      A                      A
 Frequencies --    -60.6958              1322.4995              1324.6412
 Red. masses --      1.1085                 1.0088                 1.0088
 Frc consts  --      0.0024                 1.0395                 1.0429
 IR Inten    --      0.0417                 0.0009                 0.0003

                      4
                      A
 Frequencies --   3135.8079
 Red. masses --      1.0078
 Frc consts  --      5.8389
 IR Inten    --      0.0301

 - Thermochemistry -
 -------------------
 Temperature   298.150 Kelvin.  Pressure   1.00000 Atm.
 Atom     1 has atomic number  1 and mass   1.00783

 Molecular mass:    21.01405 amu.
 Principal axes and moments of inertia in atomic units:
                           1         2         3
     Eigenvalues --     0.00000 125.85947 125.85947
           X            1.00000  -0.00000   0.00000
           Y            0.00000   1.00000   0.00000
           Z            0.00000   0.00000   1.00000
 This molecule is a prolate symmetric top.
 Rotational symmetry number  1.
 Rotational temperature (Kelvin)      0.68818
 Rotational constant (GHZ):          14.339336
    1 imaginary frequencies ignored.
 Zero-point vibrational energy      34589.7 (Joules/Mol)
                                    8.26714 (Kcal/Mol)
 Vibrational temperatures:   1902.78  1905.86  4511.73
          (Kelvin)

 Zero-point correction=                           0.013175 (Hartree/Particle)
 Thermal correction to Energy=                    0.015555
 Thermal correction to Enthalpy=                  0.016500
 Thermal correction to Gibbs Free Energy=        -0.007517
 Sum of electronic and zero-point Energies=           -100.914434
 Sum of electronic and thermal Energies=              -100.912053
 Sum of electronic and thermal Enthalpies=            -100.911109
 Sum of electronic and thermal Free Energies=         -100.935126

                     E (Thermal)             CV                S
                      KCal/Mol        Cal/Mol-Kelvin    Cal/Mol-Kelvin
 Total                    9.761              5.242             50.547
 Electronic               0.000              0.000              1.377
 Translational            0.889              2.981             35.068
 Rotational               0.592              1.987             14.052
 Vibrational              8.280              0.274              0.050

 Normal termination of Gaussian 16 at Sat Aug 23 01:30:31 2025.
