 Gaussian 16, Revision C.01,
 Gaussian 16:  ES64L-G16RevC.01  3-Jul-2019

 -----------------------------------------
 # sp b3lyp/6-311g** Force nosymm scf=(qc)
 -----------------------------------------

 -------------------
 Title Card Required
 -------------------
 Symbolic Z-matrix:
 Charge =  0 Multiplicity = 2

                          Input orientation:
 ---------------------------------------------------------------------
 Center     Atomic      Atomic             Coordinates (Angstroms)
 Number     Number       Type             X           Y           Z
 ---------------------------------------------------------------------
      1          1           0        0.000000    0.000000    0.000000
      2          1           0       -3.450000    0.000000    0.000000
      3          9           0        1.350000    0.000000    0.000000
 ---------------------------------------------------------------------

 SCF Done:  E(UB3LYP) =  -100.889189352     a.u. after    7 cycles

 Alpha  occ. eigenvalues --  -24.64365  -1.10656  -0.45284  -0.36871  -0.36871
 Alpha  occ. eigenvalues --   -0.33977
 Alpha virt. eigenvalues --   -0.10423   0.21140   0.28189   0.93029   0.93029
 Alpha virt. eigenvalues --    1.02652   1.18518   1.23538   1.23538   1.23599
 Alpha virt. eigenvalues --    1.33261   1.33261   1.70881   2.13649   2.22922

  Beta  occ. eigenvalues --  -24.64355  -1.10631  -0.45258  -0.36862  -0.36862
  Beta virt. eigenvalues --   -0.11015  -0.06175   0.24541   0.38302   0.93027
  Beta virt. eigenvalues --    0.93027   1.02679   1.18577   1.33229   1.33229
  Beta virt. eigenvalues --    1.46008   1.46491   1.46491   1.70911   2.22557

 Mulliken charges and spin densities:
               1          2
     1  H    0.357517  -0.001192
     2  H    0.001730   0.998127
     3  F   -0.359248   0.003066
 Sum of Mulliken charges =  -0.00000   1.00000

 Dipole moment (field-independent basis, Debye):
    X=             -2.4697    Y=             -0.0000    Z=             -0.0000  Tot=              2.4697
 Quadrupole moment (field-independent basis, Debye-Ang):
   XX=             -9.3533   YY=             -7.2328   ZZ=             -7.2328
   XY=              0.0000   XZ=             -0.0000   YZ=             -0.0000

  Exact polarizability:      12.438      -0.000       2.257       0.000      -0.000       2.257
 Approx polarizability:      19.975       0.000       2.196      -0.000      -0.000       2.196

 ******    2 imaginary frequencies (negative Signs) ******

                      1                      2                      3
                      A                      A                      A
 Frequencies --   -876.9412               -73.3413              1127.0550
 Red. masses --      1.0571                 1.0545                 1.0320
 Frc consts  --      0.4790                 0.0033                 0.7724
 IR Inten    --     56.3918                 0.1158               130.6704

                      4
                      A
 Frequencies --   1127.0550
 Red. masses --      1.0320
 Frc consts  --      0.7724
 IR Inten    --    130.6704

 - Thermochemistry -
 -------------------
 Temperature   298.150 Kelvin.  Pressure   1.00000 Atm.
 Atom     1 has atomic number  1 and mass   1.00783

 Molecular mass:    21.01405 amu.
 Principal axes and moments of inertia in atomic units:
                           1         2         3
     Eigenvalues --     0.00000  82.95192  82.95192
           X            1.00000  -0.00000   0.00000
           Y            0.00000   1.00000   0.00000
           Z            0.00000   0.00000   1.00000
 This molecule is a prolate symmetric top.
 Rotational symmetry number  1.
 Rotational temperature (Kelvin)      1.04415
 Rotational constant (GHZ):          21.756472
    2 imaginary frequencies ignored.
 Zero-point vibrational energy      13482.6 (Joules/Mol)
                                    3.22241 (Kcal/Mol)
 Vibrational temperatures:   1621.58  1621.58
          (Kelvin)

 Zero-point correction=                           0.005135 (Hartree/Particle)
 Thermal correction to Energy=                    0.007541
 Thermal correction to Enthalpy=                  0.008485
 Thermal correction to Gibbs Free Energy=        -0.015168
 Sum of electronic and zero-point Energies=           -100.884054
 Sum of electronic and thermal Energies=              -100.881649
 Sum of electronic and thermal Enthalpies=            -100.880705
 Sum of electronic and thermal Free Energies=         -100.904357

                     E (Thermal)             CV                S
                      KCal/Mol        Cal/Mol-Kelvin    Cal/Mol-Kelvin
 Total                    4.732              5.483             49.781
 Electronic               0.000              0.000              1.377
 Translational            0.889              2.981             35.068
 Rotational               0.592              1.987             13.224
 Vibrational              3.251              0.515              0.112

 Normal termination of Gaussian 16 at Fri Aug 22 16:18:35 2025.
