 Gaussian 16, Revision C.01,
 Gaussian 16:  ES64L-G16RevC.01  3-Jul-2019

 -----------------------------------------
 # sp b3lyp/6-311g** Force nosymm scf=(qc)
 -----------------------------------------

 -------------------
 Title Card Required
 -------------------
 Symbolic Z-matrix:
 Charge =  0 Multiplicity = 2

                          Input orientation:
 ---------------------------------------------------------------------
 Center     Atomic      Atomic             Coordinates (Angstroms)
 Number     Number       Type             X           Y           Z
 ---------------------------------------------------------------------
      1          1           0        0.000000    0.000000    0.000000
      2          1           0       -2.550000    0.000000    0.000000
      3          9           0        1.400000    0.000000    0.000000
 ---------------------------------------------------------------------

 SCF Done:  E(UB3LYP) =  -100.878351594     a.u. after    7 cycles

 Alpha  occ. eigenvalues --  -24.64106  -1.10136  -0.44542  -0.36494  -0.36494
 Alpha  occ. eigenvalues --   -0.35461
 Alpha virt. eigenvalues --   -0.11130   0.23247   0.26875   0.93355   0.93355
 Alpha virt. eigenvalues --    1.03264   1.15684   1.22039   1.22039   1.25026
 Alpha virt. eigenvalues --    1.33020   1.33020   1.72960   2.13161   2.22311

  Beta  occ. eigenvalues --  -24.63997  -1.09852  -0.44166  -0.36392  -0.36392
  Beta virt. eigenvalues --   -0.14043  -0.06593   0.25766   0.36006   0.93327
  Beta virt. eigenvalues --    0.93327   1.03531   1.16716   1.32641   1.32641
  Beta virt. eigenvalues --    1.42959   1.42959   1.43876   1.73163   2.21606

 Mulliken charges and spin densities:
               1          2
     1  H    0.346058  -0.017651
     2  H    0.014143   0.983517
     3  F   -0.360201   0.034134
 Sum of Mulliken charges =  -0.00000   1.00000

 Dipole moment (field-independent basis, Debye):
    X=             -2.6813    Y=             -0.0000    Z=              0.0000  Tot=              2.6813
 Quadrupole moment (field-independent basis, Debye-Ang):
   XX=             -9.1235   YY=             -7.2634   ZZ=             -7.2634
   XY=              0.0000   XZ=              0.0000   YZ=             -0.0000

  Exact polarizability:      17.930      -0.000       2.249      -0.000       0.000       2.249
 Approx polarizability:      26.852      -0.000       2.187      -0.000       0.000       2.187

 ******    2 imaginary frequencies (negative Signs) ******

                      1                      2                      3
                      A                      A                      A
 Frequencies --  -1110.0942              -205.7403              1070.8153
 Red. masses --      1.0494                 1.0622                 1.0266
 Frc consts  --      0.7619                 0.0265                 0.6935
 IR Inten    --    123.1783                 1.5183               110.4169

                      4
                      A
 Frequencies --   1070.8153
 Red. masses --      1.0266
 Frc consts  --      0.6935
 IR Inten    --    110.4169

 - Thermochemistry -
 -------------------
 Temperature   298.150 Kelvin.  Pressure   1.00000 Atm.
 Atom     1 has atomic number  1 and mass   1.00783

 Molecular mass:    21.01405 amu.
 Principal axes and moments of inertia in atomic units:
                           1         2         3
     Eigenvalues --     0.00000  58.26715  58.26715
           X            1.00000  -0.00000   0.00000
           Y            0.00000   1.00000   0.00000
           Z            0.00000   0.00000   1.00000
 This molecule is a prolate symmetric top.
 Rotational symmetry number  1.
 Rotational temperature (Kelvin)      1.48650
 Rotational constant (GHZ):          30.973564
    2 imaginary frequencies ignored.
 Zero-point vibrational energy      12809.8 (Joules/Mol)
                                    3.06161 (Kcal/Mol)
 Vibrational temperatures:   1540.66  1540.66
          (Kelvin)

 Zero-point correction=                           0.004879 (Hartree/Particle)
 Thermal correction to Energy=                    0.007295
 Thermal correction to Enthalpy=                  0.008240
 Thermal correction to Gibbs Free Energy=        -0.015093
 Sum of electronic and zero-point Energies=           -100.873473
 Sum of electronic and thermal Energies=              -100.871056
 Sum of electronic and thermal Enthalpies=            -100.870112
 Sum of electronic and thermal Free Energies=         -100.893445

                     E (Thermal)             CV                S
                      KCal/Mol        Cal/Mol-Kelvin    Cal/Mol-Kelvin
 Total                    4.578              5.580             49.108
 Electronic               0.000              0.000              1.377
 Translational            0.889              2.981             35.068
 Rotational               0.592              1.987             12.522
 Vibrational              3.097              0.612              0.140

 Normal termination of Gaussian 16 at Fri Aug 22 16:20:34 2025.
