 Gaussian 16, Revision C.01,
 Gaussian 16:  ES64L-G16RevC.01  3-Jul-2019

 -----------------------------------------
 # sp b3lyp/6-311g** Force nosymm scf=(qc)
 -----------------------------------------

 -------------------
 Title Card Required
 -------------------
 Symbolic Z-matrix:
 Charge =  0 Multiplicity = 2

                          Input orientation:
 ---------------------------------------------------------------------
 Center     Atomic      Atomic             Coordinates (Angstroms)
 Number     Number       Type             X           Y           Z
 ---------------------------------------------------------------------
      1          1           0        0.000000    0.000000    0.000000
      2          1           0       -0.600000    0.000000    0.000000
      3          9           0        1.700000    0.000000    0.000000
 ---------------------------------------------------------------------

 SCF Done:  E(UB3LYP) =  -100.914029453     a.u. after    6 cycles

 Alpha  occ. eigenvalues --  -24.73784  -1.20232  -0.56512  -0.46341  -0.44657
 Alpha  occ. eigenvalues --   -0.44657
 Alpha virt. eigenvalues --    0.10886   0.19901   0.48826   0.89385   0.89385
 Alpha virt. eigenvalues --    0.95990   1.09875   1.09875   1.24356   1.69145
 Alpha virt. eigenvalues --    1.82462   1.91957   1.91957   2.47815   3.69613

  Beta  occ. eigenvalues --  -24.70829  -1.11927  -0.49295  -0.41738  -0.41738
  Beta virt. eigenvalues --   -0.24577   0.11605   0.20581   0.50198   0.90648
  Beta virt. eigenvalues --    0.90648   1.03109   1.11050   1.11050   1.27971
  Beta virt. eigenvalues --    1.71020   1.83220   1.92497   1.92497   2.49192

 Mulliken charges and spin densities:
               1          2
     1  H    0.052746  -0.028177
     2  H    0.015886   0.115618
     3  F   -0.068632   0.912558
 Sum of Mulliken charges =   0.00000   1.00000

 Dipole moment (field-independent basis, Debye):
    X=             -0.5922    Y=             -0.0000    Z=             -0.0000  Tot=              0.5922
 Quadrupole moment (field-independent basis, Debye-Ang):
   XX=             -6.2630   YY=             -6.6631   ZZ=             -6.6631
   XY=              0.0000   XZ=             -0.0000   YZ=              0.0000

  Exact polarizability:      14.762       0.000       2.138       0.000      -0.000       2.138
 Approx polarizability:      16.591      -0.000       2.201      -0.000      -0.000       2.201

 ******    2 imaginary frequencies (negative Signs) ******

                      1                      2                      3
                      A                      A                      A
 Frequencies --  -2857.7491             -2857.7491               318.6293
 Red. masses --      1.0101                 1.0101                 1.1085
 Frc consts  --      4.8601                 4.8601                 0.0663
 IR Inten    --      0.0961                 0.0961                41.5907

                      4
                      A
 Frequencies --   6949.8548
 Red. masses --      1.0078
 Frc consts  --     28.6807
 IR Inten    --    349.0018

 - Thermochemistry -
 -------------------
 Temperature   298.150 Kelvin.  Pressure   1.00000 Atm.
 Atom     1 has atomic number  1 and mass   1.00783

 Molecular mass:    21.01405 amu.
 Principal axes and moments of inertia in atomic units:
                           1         2         3
     Eigenvalues --     0.00000  26.67818  26.67818
           X            1.00000  -0.00000   0.00000
           Y            0.00000   1.00000   0.00000
           Z            0.00000   0.00000   1.00000
 This molecule is a prolate symmetric top.
 Rotational symmetry number  1.
 Rotational temperature (Kelvin)      3.24662
 Rotational constant (GHZ):          67.648590
    2 imaginary frequencies ignored.
 Zero-point vibrational energy      43475.2 (Joules/Mol)
                                   10.39082 (Kcal/Mol)
 Warning -- explicit consideration of   1 degrees of freedom as
           vibrations may cause significant error
 Vibrational temperatures:    458.44  9999.29
          (Kelvin)

 Zero-point correction=                           0.016559 (Hartree/Particle)
 Thermal correction to Energy=                    0.019317
 Thermal correction to Enthalpy=                  0.020261
 Thermal correction to Gibbs Free Energy=        -0.002893
 Sum of electronic and zero-point Energies=           -100.897471
 Sum of electronic and thermal Energies=              -100.894713
 Sum of electronic and thermal Enthalpies=            -100.893769
 Sum of electronic and thermal Free Energies=         -100.916923

                     E (Thermal)             CV                S
                      KCal/Mol        Cal/Mol-Kelvin    Cal/Mol-Kelvin
 Total                   12.121              6.606             48.732
 Electronic               0.000              0.000              1.377
 Translational            0.889              2.981             35.068
 Rotational               0.592              1.987             10.969
 Vibrational             10.640              1.638              1.317
 Vibration     1          0.705              1.638              1.317

 Normal termination of Gaussian 16 at Fri Aug 22 16:36:13 2025.
