 Gaussian 16, Revision C.01,
 Gaussian 16:  ES64L-G16RevC.01  3-Jul-2019

 -----------------------------------------
 # sp b3lyp/6-311g** Force nosymm scf=(qc)
 -----------------------------------------

 -------------------
 Title Card Required
 -------------------
 Symbolic Z-matrix:
 Charge =  0 Multiplicity = 2

                          Input orientation:
 ---------------------------------------------------------------------
 Center     Atomic      Atomic             Coordinates (Angstroms)
 Number     Number       Type             X           Y           Z
 ---------------------------------------------------------------------
      1          1           0        0.000000    0.000000    0.000000
      2          1           0       -3.900000    0.000000    0.000000
      3          9           0        3.700000    0.000000    0.000000
 ---------------------------------------------------------------------

 SCF Done:  E(UB3LYP) =  -100.758611598     a.u. after   29 cycles

 Alpha  occ. eigenvalues --  -24.75653  -1.21596  -0.54777  -0.45991  -0.45991
 Alpha  occ. eigenvalues --   -0.32260
 Alpha virt. eigenvalues --   -0.06102   0.24169   0.37598   0.87055   0.91315
 Alpha virt. eigenvalues --    0.91315   1.01404   1.25235   1.25235   1.25267
 Alpha virt. eigenvalues --    1.46386   1.46386   1.46992   2.14627   2.42444

  Beta  occ. eigenvalues --  -24.72522  -1.12595  -0.42852  -0.42852  -0.32607
  Beta virt. eigenvalues --   -0.25618  -0.05904   0.23933   0.38201   0.92809
  Beta virt. eigenvalues --    0.92809   0.96309   1.05475   1.24847   1.24847
  Beta virt. eigenvalues --    1.24861   1.46598   1.46717   1.46717   2.14687

 Mulliken charges and spin densities:
               1          2
     1  H    0.006493  -0.992001
     2  H    0.000041   0.999201
     3  F   -0.006534   0.992800
 Sum of Mulliken charges =  -0.00000   1.00000

 Dipole moment (field-independent basis, Debye):
    X=             -0.1253    Y=             -0.0000    Z=              0.0000  Tot=              0.1253
 Quadrupole moment (field-independent basis, Debye-Ang):
   XX=             -7.1687   YY=             -7.6189   ZZ=             -7.6189
   XY=             -0.0000   XZ=              0.0000   YZ=              0.0000

  Exact polarizability:      17.426       0.000       2.029      -0.000       0.000       2.029
 Approx polarizability:      13.016      -0.000       1.936       0.000      -0.000       1.936

 ******    2 imaginary frequencies (negative Signs) ******

                      1                      2                      3
                      A                      A                      A
 Frequencies --   -177.7848               -69.7862                56.4937
 Red. masses --      1.0357                 1.0767                 1.0186
 Frc consts  --      0.0193                 0.0031                 0.0019
 IR Inten    --      4.9978                 0.2884                 0.0436

                      4
                      A
 Frequencies --     56.4938
 Red. masses --      1.0186
 Frc consts  --      0.0019
 IR Inten    --      0.0436

 - Thermochemistry -
 -------------------
 Temperature   298.150 Kelvin.  Pressure   1.00000 Atm.
 Atom     1 has atomic number  1 and mass   1.00783

 Molecular mass:    21.01405 amu.
 Principal axes and moments of inertia in atomic units:
                           1         2         3
     Eigenvalues --     0.00000 235.10898 235.10898
           X            1.00000  -0.00000   0.00000
           Y            0.00000   1.00000   0.00000
           Z            0.00000   0.00000   1.00000
 This molecule is a prolate symmetric top.
 Rotational symmetry number  1.
 Rotational temperature (Kelvin)      0.36840
 Rotational constant (GHZ):           7.676190
    2 imaginary frequencies ignored.
 Zero-point vibrational energy        675.8 (Joules/Mol)
                                    0.16152 (Kcal/Mol)
 Warning -- explicit consideration of   2 degrees of freedom as
           vibrations may cause significant error
 Vibrational temperatures:     81.28    81.28
          (Kelvin)

 Zero-point correction=                           0.000257 (Hartree/Particle)
 Thermal correction to Energy=                    0.004261
 Thermal correction to Enthalpy=                  0.005205
 Thermal correction to Gibbs Free Energy=        -0.023727
 Sum of electronic and zero-point Energies=           -100.758354
 Sum of electronic and thermal Energies=              -100.754351
 Sum of electronic and thermal Enthalpies=            -100.753407
 Sum of electronic and thermal Free Energies=         -100.782338

                     E (Thermal)             CV                S
                      KCal/Mol        Cal/Mol-Kelvin    Cal/Mol-Kelvin
 Total                    2.674              8.918             60.891
 Electronic               0.000              0.000              1.377
 Translational            0.889              2.981             35.068
 Rotational               0.592              1.987             15.294
 Vibrational              1.192              3.950              9.152
 Vibration     1          0.596              1.975              4.576
 Vibration     2          0.596              1.975              4.576

 Normal termination of Gaussian 16 at Sat Aug 23 00:05:29 2025.
