 Gaussian 16, Revision C.01,
 Gaussian 16:  ES64L-G16RevC.01  3-Jul-2019

 -----------------------------------------
 # sp b3lyp/6-311g** Force nosymm scf=(qc)
 -----------------------------------------

 -------------------
 Title Card Required
 -------------------
 Symbolic Z-matrix:
 Charge =  0 Multiplicity = 2

                          Input orientation:
 ---------------------------------------------------------------------
 Center     Atomic      Atomic             Coordinates (Angstroms)
 Number     Number       Type             X           Y           Z
 ---------------------------------------------------------------------
      1          1           0        0.000000    0.000000    0.000000
      2          1           0       -1.100000    0.000000    0.000000
      3          9           0        2.350000    0.000000    0.000000
 ---------------------------------------------------------------------

 SCF Done:  E(UB3LYP) =  -100.891199992     a.u. after   13 cycles

 Alpha  occ. eigenvalues --  -24.74899  -1.20915  -0.54192  -0.45387  -0.45387
 Alpha  occ. eigenvalues --   -0.38955
 Alpha virt. eigenvalues --   -0.02213   0.21878   0.36837   0.89116   0.91516
 Alpha virt. eigenvalues --    0.91516   1.09329   1.09329   1.09766   1.32211
 Alpha virt. eigenvalues --    1.58455   1.58455   2.15390   2.33106   2.55197

  Beta  occ. eigenvalues --  -24.71860  -1.12219  -0.42349  -0.42349  -0.38732
  Beta virt. eigenvalues --   -0.25778  -0.01485   0.22287   0.37292   0.92947
  Beta virt. eigenvalues --    0.92947   0.97199   1.09765   1.09765   1.13232
  Beta virt. eigenvalues --    1.33633   1.58794   1.58794   2.15969   2.33607

 Mulliken charges and spin densities:
               1          2
     1  H   -0.000221  -0.038229
     2  H    0.029430   0.079229
     3  F   -0.029210   0.959001
 Sum of Mulliken charges =  -0.00000   1.00000

 Dipole moment (field-independent basis, Debye):
    X=             -0.4967    Y=             -0.0000    Z=              0.0000  Tot=              0.4967
 Quadrupole moment (field-independent basis, Debye-Ang):
   XX=             -6.1250   YY=             -7.3538   ZZ=             -7.3538
   XY=             -0.0000   XZ=              0.0000   YZ=              0.0000

  Exact polarizability:      31.808      -0.000       2.186       0.000       0.000       2.186
 Approx polarizability:      39.055      -0.000       2.140       0.000      -0.000       2.140

 ******    1 imaginary frequencies (negative Signs) ******

                      1                      2                      3
                      A                      A                      A
 Frequencies --   -349.3212               809.2965              1423.1493
 Red. masses --      1.1013                 1.0138                 1.0113
 Frc consts  --      0.0792                 0.3912                 1.2068
 IR Inten    --     94.2997               236.7655                 0.1179

                      4
                      A
 Frequencies --   1423.1522
 Red. masses --      1.0113
 Frc consts  --      1.2068
 IR Inten    --      0.1179

 - Thermochemistry -
 -------------------
 Temperature   298.150 Kelvin.  Pressure   1.00000 Atm.
 Atom     1 has atomic number  1 and mass   1.00783

 Molecular mass:    21.01405 amu.
 Principal axes and moments of inertia in atomic units:
                           1         2         3
     Eigenvalues --     0.00000  56.90623  56.90623
           X            1.00000  -0.00000   0.00000
           Y            0.00000   1.00000   0.00000
           Z            0.00000   0.00000   1.00000
 This molecule is a prolate symmetric top.
 Rotational symmetry number  1.
 Rotational temperature (Kelvin)      1.52205
 Rotational constant (GHZ):          31.714301
    1 imaginary frequencies ignored.
 Zero-point vibrational energy      21865.3 (Joules/Mol)
                                    5.22594 (Kcal/Mol)
 Vibrational temperatures:   1164.40  2047.59  2047.60
          (Kelvin)

 Zero-point correction=                           0.008328 (Hartree/Particle)
 Thermal correction to Energy=                    0.010778
 Thermal correction to Enthalpy=                  0.011722
 Thermal correction to Gibbs Free Energy=        -0.011632
 Sum of electronic and zero-point Energies=           -100.882872
 Sum of electronic and thermal Energies=              -100.880422
 Sum of electronic and thermal Enthalpies=            -100.879478
 Sum of electronic and thermal Free Energies=         -100.902832

                     E (Thermal)             CV                S
                      KCal/Mol        Cal/Mol-Kelvin    Cal/Mol-Kelvin
 Total                    6.763              5.799             49.153
 Electronic               0.000              0.000              1.377
 Translational            0.889              2.981             35.068
 Rotational               0.592              1.987             12.475
 Vibrational              5.282              0.831              0.232

 Normal termination of Gaussian 16 at Fri Aug 22 17:25:24 2025.
