 Gaussian 16, Revision C.01,
 Gaussian 16:  ES64L-G16RevC.01  3-Jul-2019

 -----------------------------------------
 # sp b3lyp/6-311g** Force nosymm scf=(qc)
 -----------------------------------------

 -------------------
 Title Card Required
 -------------------
 Symbolic Z-matrix:
 Charge =  0 Multiplicity = 2

                          Input orientation:
 ---------------------------------------------------------------------
 Center     Atomic      Atomic             Coordinates (Angstroms)
 Number     Number       Type             X           Y           Z
 ---------------------------------------------------------------------
      1          1           0        0.000000    0.000000    0.000000
      2          1           0       -1.650000    0.000000    0.000000
      3          9           0        1.800000    0.000000    0.000000
 ---------------------------------------------------------------------

 SCF Done:  E(UB3LYP) =  -100.833260408     a.u. after   16 cycles

 Alpha  occ. eigenvalues --  -24.67122  -1.13525  -0.46804  -0.38859  -0.38859
 Alpha  occ. eigenvalues --   -0.38208
 Alpha virt. eigenvalues --   -0.11331   0.22321   0.29937   0.87219   0.94456
 Alpha virt. eigenvalues --    0.94456   1.03354   1.18210   1.18210   1.33783
 Alpha virt. eigenvalues --    1.36073   1.36073   1.77742   2.16363   2.37946

  Beta  occ. eigenvalues --  -24.64976  -1.07586  -0.38620  -0.36758  -0.36758
  Beta virt. eigenvalues --   -0.22109  -0.09201   0.25083   0.30028   0.90444
  Beta virt. eigenvalues --    0.94869   0.94869   1.07405   1.22306   1.22306
  Beta virt. eigenvalues --    1.36650   1.36650   1.39806   1.79358   2.17165

 Mulliken charges and spin densities:
               1          2
     1  H    0.160066  -0.416243
     2  H    0.066903   0.744055
     3  F   -0.226969   0.672188
 Sum of Mulliken charges =   0.00000   1.00000

 Dipole moment (field-independent basis, Debye):
    X=             -2.5368    Y=             -0.0000    Z=              0.0000  Tot=              2.5368
 Quadrupole moment (field-independent basis, Debye-Ang):
   XX=             -8.2547   YY=             -7.4558   ZZ=             -7.4558
   XY=             -0.0000   XZ=              0.0000   YZ=              0.0000

  Exact polarizability:      47.549      -0.000       2.147       0.000       0.000       2.147
 Approx polarizability:      67.802       0.000       2.073      -0.000       0.000       2.073

 ******    2 imaginary frequencies (negative Signs) ******

                      1                      2                      3
                      A                      A                      A
 Frequencies --  -2204.6746              -598.3518               928.7591
 Red. masses --      1.0178                 1.0967                 1.0169
 Frc consts  --      2.9147                 0.2313                 0.5168
 IR Inten    --    416.9989                 8.2179                11.5390

                      4
                      A
 Frequencies --    928.7591
 Red. masses --      1.0169
 Frc consts  --      0.5168
 IR Inten    --     11.5390

 - Thermochemistry -
 -------------------
 Temperature   298.150 Kelvin.  Pressure   1.00000 Atm.
 Atom     1 has atomic number  1 and mass   1.00783

 Molecular mass:    21.01405 amu.
 Principal axes and moments of inertia in atomic units:
                           1         2         3
     Eigenvalues --     0.00000  49.74051  49.74051
           X            1.00000  -0.00000   0.00000
           Y            0.00000   1.00000   0.00000
           Z            0.00000   0.00000   1.00000
 This molecule is a prolate symmetric top.
 Rotational symmetry number  1.
 Rotational temperature (Kelvin)      1.74132
 Rotational constant (GHZ):          36.283127
    2 imaginary frequencies ignored.
 Zero-point vibrational energy      11110.4 (Joules/Mol)
                                    2.65546 (Kcal/Mol)
 Vibrational temperatures:   1336.28  1336.28
          (Kelvin)

 Zero-point correction=                           0.004232 (Hartree/Particle)
 Thermal correction to Energy=                    0.006689
 Thermal correction to Enthalpy=                  0.007633
 Thermal correction to Gibbs Free Energy=        -0.015602
 Sum of electronic and zero-point Energies=           -100.829029
 Sum of electronic and thermal Energies=              -100.826571
 Sum of electronic and thermal Enthalpies=            -100.825627
 Sum of electronic and thermal Free Energies=         -100.848862

                     E (Thermal)             CV                S
                      KCal/Mol        Cal/Mol-Kelvin    Cal/Mol-Kelvin
 Total                    4.197              5.892             48.902
 Electronic               0.000              0.000              1.377
 Translational            0.889              2.981             35.068
 Rotational               0.592              1.987             12.207
 Vibrational              2.716              0.924              0.249

 Normal termination of Gaussian 16 at Fri Aug 22 16:43:12 2025.
