 Gaussian 16, Revision C.01,
 Gaussian 16:  ES64L-G16RevC.01  3-Jul-2019

 -----------------------------------------
 # sp b3lyp/6-311g** Force nosymm scf=(qc)
 -----------------------------------------

 -------------------
 Title Card Required
 -------------------
 Symbolic Z-matrix:
 Charge =  0 Multiplicity = 2

                          Input orientation:
 ---------------------------------------------------------------------
 Center     Atomic      Atomic             Coordinates (Angstroms)
 Number     Number       Type             X           Y           Z
 ---------------------------------------------------------------------
      1          1           0        0.000000    0.000000    0.000000
      2          1           0       -1.200000    0.000000    0.000000
      3          9           0        2.650000    0.000000    0.000000
 ---------------------------------------------------------------------

 SCF Done:  E(UB3LYP) =  -100.872481583     a.u. after  221 cycles

 Alpha  occ. eigenvalues --  -24.76874  -1.22673  -0.55845  -0.47200  -0.47003
 Alpha  occ. eigenvalues --   -0.36101
 Alpha virt. eigenvalues --   -0.03620   0.23231   0.35318   0.85785   0.90478
 Alpha virt. eigenvalues --    0.92951   1.07132   1.13064   1.13077   1.22971
 Alpha virt. eigenvalues --    1.54565   1.54577   2.08438   2.32360   2.55915

  Beta  occ. eigenvalues --  -24.73718  -1.13604  -0.44071  -0.43839  -0.36040
  Beta virt. eigenvalues --   -0.26524  -0.03550   0.23281   0.35455   0.91971
  Beta virt. eigenvalues --    0.94156   0.95700   1.10829   1.13090   1.13098
  Beta virt. eigenvalues --    1.23087   1.54583   1.54594   2.08471   2.32390

 Mulliken charges and spin densities:
               1          2
     1  H   -0.001689  -0.002532
     2  H   -0.008367   0.003249
     3  F    0.010056   0.999284
 Sum of Mulliken charges =  -0.00000   1.00000

 Dipole moment (field-independent basis, Debye):
    X=              0.1273    Y=              0.0013    Z=             -0.0001  Tot=              0.1273
 Quadrupole moment (field-independent basis, Debye-Ang):
   XX=             -6.0989   YY=             -6.7200   ZZ=             -7.4934
   XY=              0.2276   XZ=             -0.0262   YZ=             -0.0901

  Exact polarizability:    -870.236       9.098       2.412      -7.856       0.033       2.032
 Approx polarizability:      26.969       0.055       2.643      -0.006      -0.060       2.128

 ******    1 imaginary frequencies (negative Signs) ******

                      1                      2                      3
                      A                      A                      A
 Frequencies --   -139.4845              1370.2639              1462.3335
 Red. masses --      1.0938                 1.0128                 1.0112
 Frc consts  --      0.0125                 1.1204                 1.2740
 IR Inten    --     21.5883              3054.3846                 2.9578

                      4
                      A
 Frequencies --   2798.1282
 Red. masses --      1.0186
 Frc consts  --      4.6988
 IR Inten    -- 252491.8564

 - Thermochemistry -
 -------------------
 Temperature   298.150 Kelvin.  Pressure   1.00000 Atm.
 Atom     1 has atomic number  1 and mass   1.00783

 Molecular mass:    21.01405 amu.
 Principal axes and moments of inertia in atomic units:
                           1         2         3
     Eigenvalues --     0.00000  71.32770  71.32770
           X            1.00000  -0.00000   0.00000
           Y            0.00000   1.00000   0.00000
           Z            0.00000   0.00000   1.00000
 This molecule is a prolate symmetric top.
 Rotational symmetry number  1.
 Rotational temperature (Kelvin)      1.21431
 Rotational constant (GHZ):          25.302109
    1 imaginary frequencies ignored.
 Zero-point vibrational energy      33679.2 (Joules/Mol)
                                    8.04953 (Kcal/Mol)
 Vibrational temperatures:   1971.50  2103.97  4025.88
          (Kelvin)

 Zero-point correction=                           0.012828 (Hartree/Particle)
 Thermal correction to Energy=                    0.015202
 Thermal correction to Enthalpy=                  0.016147
 Thermal correction to Gibbs Free Energy=        -0.007327
 Sum of electronic and zero-point Energies=           -100.859654
 Sum of electronic and thermal Energies=              -100.857279
 Sum of electronic and thermal Enthalpies=            -100.856335
 Sum of electronic and thermal Free Energies=         -100.879808

                     E (Thermal)             CV                S
                      KCal/Mol        Cal/Mol-Kelvin    Cal/Mol-Kelvin
 Total                    9.540              5.171             49.403
 Electronic               0.000              0.000              1.377
 Translational            0.889              2.981             35.068
 Rotational               0.592              1.987             12.924
 Vibrational              8.058              0.203              0.034

 Normal termination of Gaussian 16 at Fri Aug 22 18:12:23 2025.
