 Gaussian 16, Revision C.01,
 Gaussian 16:  ES64L-G16RevC.01  3-Jul-2019

 -----------------------------------------
 # sp b3lyp/6-311g** Force nosymm scf=(qc)
 -----------------------------------------

 -------------------
 Title Card Required
 -------------------
 Symbolic Z-matrix:
 Charge =  0 Multiplicity = 2

                          Input orientation:
 ---------------------------------------------------------------------
 Center     Atomic      Atomic             Coordinates (Angstroms)
 Number     Number       Type             X           Y           Z
 ---------------------------------------------------------------------
      1          1           0        0.000000    0.000000    0.000000
      2          1           0       -3.250000    0.000000    0.000000
      3          9           0        4.000000    0.000000    0.000000
 ---------------------------------------------------------------------

 SCF Done:  E(UB3LYP) =  -100.758947411     a.u. after   34 cycles

 Alpha  occ. eigenvalues --  -24.75883  -1.21811  -0.55008  -0.46187  -0.46187
 Alpha  occ. eigenvalues --   -0.32290
 Alpha virt. eigenvalues --   -0.07098   0.24682   0.37259   0.86561   0.91167
 Alpha virt. eigenvalues --    0.91167   1.01079   1.25225   1.25225   1.25568
 Alpha virt. eigenvalues --    1.45053   1.45263   1.45263   2.15465   2.40449

  Beta  occ. eigenvalues --  -24.72738  -1.12765  -0.43033  -0.43033  -0.32471
  Beta virt. eigenvalues --   -0.25734  -0.06894   0.24536   0.37518   0.92666
  Beta virt. eigenvalues --    0.92666   0.95942   1.05208   1.25030   1.25030
  Beta virt. eigenvalues --    1.25359   1.45358   1.45563   1.45563   2.15457

 Mulliken charges and spin densities:
               1          2
     1  H    0.002252  -0.993311
     2  H    0.000129   0.995972
     3  F   -0.002381   0.997339
 Sum of Mulliken charges =   0.00000   1.00000

 Dipole moment (field-independent basis, Debye):
    X=             -0.0514    Y=              0.0000    Z=             -0.0000  Tot=              0.0514
 Quadrupole moment (field-independent basis, Debye-Ang):
   XX=             -6.8738   YY=             -7.6287   ZZ=             -7.6287
   XY=              0.0000   XZ=             -0.0000   YZ=             -0.0000

  Exact polarizability:      11.729       0.000       2.033      -0.000      -0.000       2.033
 Approx polarizability:       8.849       0.000       1.936      -0.000      -0.000       1.936

 ******    2 imaginary frequencies (negative Signs) ******

                      1                      2                      3
                      A                      A                      A
 Frequencies --   -249.5519               -72.6484                86.2967
 Red. masses --      1.0087                 1.1074                 1.0156
 Frc consts  --      0.0370                 0.0034                 0.0045
 IR Inten    --      0.6456                 0.4939                 0.0046

                      4
                      A
 Frequencies --     86.2967
 Red. masses --      1.0156
 Frc consts  --      0.0045
 IR Inten    --      0.0046

 - Thermochemistry -
 -------------------
 Temperature   298.150 Kelvin.  Pressure   1.00000 Atm.
 Atom     1 has atomic number  1 and mass   1.00783

 Molecular mass:    21.01405 amu.
 Principal axes and moments of inertia in atomic units:
                           1         2         3
     Eigenvalues --     0.00000 224.91146 224.91146
           X            1.00000  -0.00000   0.00000
           Y            0.00000   1.00000   0.00000
           Z            0.00000   0.00000   1.00000
 This molecule is a prolate symmetric top.
 Rotational symmetry number  1.
 Rotational temperature (Kelvin)      0.38510
 Rotational constant (GHZ):           8.024230
    2 imaginary frequencies ignored.
 Zero-point vibrational energy       1032.3 (Joules/Mol)
                                    0.24673 (Kcal/Mol)
 Warning -- explicit consideration of   2 degrees of freedom as
           vibrations may cause significant error
 Vibrational temperatures:    124.16   124.16
          (Kelvin)

 Zero-point correction=                           0.000393 (Hartree/Particle)
 Thermal correction to Energy=                    0.004276
 Thermal correction to Enthalpy=                  0.005220
 Thermal correction to Gibbs Free Energy=        -0.022877
 Sum of electronic and zero-point Energies=           -100.758554
 Sum of electronic and thermal Energies=              -100.754671
 Sum of electronic and thermal Enthalpies=            -100.753727
 Sum of electronic and thermal Free Energies=         -100.781825

                     E (Thermal)             CV                S
                      KCal/Mol        Cal/Mol-Kelvin    Cal/Mol-Kelvin
 Total                    2.683              8.885             59.136
 Electronic               0.000              0.000              1.377
 Translational            0.889              2.981             35.068
 Rotational               0.592              1.987             15.206
 Vibrational              1.202              3.917              7.485
 Vibration     1          0.601              1.959              3.742
 Vibration     2          0.601              1.959              3.742

 Normal termination of Gaussian 16 at Sat Aug 23 01:57:26 2025.
