 Gaussian 16, Revision C.01,
 Gaussian 16:  ES64L-G16RevC.01  3-Jul-2019

 -----------------------------------------
 # sp b3lyp/6-311g** Force nosymm scf=(qc)
 -----------------------------------------

 -------------------
 Title Card Required
 -------------------
 Symbolic Z-matrix:
 Charge =  0 Multiplicity = 2

                          Input orientation:
 ---------------------------------------------------------------------
 Center     Atomic      Atomic             Coordinates (Angstroms)
 Number     Number       Type             X           Y           Z
 ---------------------------------------------------------------------
      1          1           0        0.000000    0.000000    0.000000
      2          1           0       -2.050000    0.000000    0.000000
      3          9           0        1.650000    0.000000    0.000000
 ---------------------------------------------------------------------

 SCF Done:  E(UB3LYP) =  -100.833423908     a.u. after   12 cycles

 Alpha  occ. eigenvalues --  -24.64959  -1.11081  -0.44285  -0.37164  -0.36946
 Alpha  occ. eigenvalues --   -0.36946
 Alpha virt. eigenvalues --   -0.13128   0.23353   0.28369   0.94743   0.94743
 Alpha virt. eigenvalues --    0.96672   1.05513   1.20427   1.20427   1.29876
 Alpha virt. eigenvalues --    1.33678   1.33678   1.73108   2.10502   2.26915

  Beta  occ. eigenvalues --  -24.63538  -1.07230  -0.40018  -0.35574  -0.35574
  Beta virt. eigenvalues --   -0.19345  -0.09658   0.25362   0.32221   0.94543
  Beta virt. eigenvalues --    0.94543   0.98860   1.08001   1.27137   1.27137
  Beta virt. eigenvalues --    1.37122   1.37122   1.42938   1.71384   2.13213

 Mulliken charges and spin densities:
               1          2
     1  H    0.259639  -0.369113
     2  H    0.045993   0.922793
     3  F   -0.305632   0.446320
 Sum of Mulliken charges =   0.00000   1.00000

 Dipole moment (field-independent basis, Debye):
    X=             -2.9159    Y=              0.0000    Z=              0.0000  Tot=              2.9159
 Quadrupole moment (field-independent basis, Debye-Ang):
   XX=             -8.9632   YY=             -7.3999   ZZ=             -7.3999
   XY=              0.0000   XZ=              0.0000   YZ=              0.0000

  Exact polarizability:      36.601       0.000       2.161       0.000       0.000       2.161
 Approx polarizability:      48.572      -0.000       2.074      -0.000       0.000       2.074

 ******    2 imaginary frequencies (negative Signs) ******

                      1                      2                      3
                      A                      A                      A
 Frequencies --  -1984.7517              -515.6433               844.5821
 Red. masses --      1.0383                 1.0738                 1.0208
 Frc consts  --      2.4098                 0.1682                 0.4290
 IR Inten    --     57.4671                 9.5065                47.8721

                      4
                      A
 Frequencies --    844.5821
 Red. masses --      1.0208
 Frc consts  --      0.4290
 IR Inten    --     47.8721

 - Thermochemistry -
 -------------------
 Temperature   298.150 Kelvin.  Pressure   1.00000 Atm.
 Atom     1 has atomic number  1 and mass   1.00783

 Molecular mass:    21.01405 amu.
 Principal axes and moments of inertia in atomic units:
                           1         2         3
     Eigenvalues --     0.00000  54.12829  54.12829
           X            1.00000  -0.00000   0.00000
           Y            0.00000   1.00000   0.00000
           Z            0.00000   0.00000   1.00000
 This molecule is a prolate symmetric top.
 Rotational symmetry number  1.
 Rotational temperature (Kelvin)      1.60016
 Rotational constant (GHZ):          33.341924
    2 imaginary frequencies ignored.
 Zero-point vibrational energy      10103.4 (Joules/Mol)
                                    2.41478 (Kcal/Mol)
 Vibrational temperatures:   1215.17  1215.17
          (Kelvin)

 Zero-point correction=                           0.003848 (Hartree/Particle)
 Thermal correction to Energy=                    0.006342
 Thermal correction to Enthalpy=                  0.007286
 Thermal correction to Gibbs Free Energy=        -0.016076
 Sum of electronic and zero-point Energies=           -100.829576
 Sum of electronic and thermal Energies=              -100.827082
 Sum of electronic and thermal Enthalpies=            -100.826138
 Sum of electronic and thermal Free Energies=         -100.849500

                     E (Thermal)             CV                S
                      KCal/Mol        Cal/Mol-Kelvin    Cal/Mol-Kelvin
 Total                    3.979              6.128             49.169
 Electronic               0.000              0.000              1.377
 Translational            0.889              2.981             35.068
 Rotational               0.592              1.987             12.375
 Vibrational              2.498              1.160              0.348

 Normal termination of Gaussian 16 at Fri Aug 22 16:34:20 2025.
