 Gaussian 16, Revision C.01,
 Gaussian 16:  ES64L-G16RevC.01  3-Jul-2019

 -----------------------------------------
 # sp b3lyp/6-311g** Force nosymm scf=(qc)
 -----------------------------------------

 -------------------
 Title Card Required
 -------------------
 Symbolic Z-matrix:
 Charge =  0 Multiplicity = 2

                          Input orientation:
 ---------------------------------------------------------------------
 Center     Atomic      Atomic             Coordinates (Angstroms)
 Number     Number       Type             X           Y           Z
 ---------------------------------------------------------------------
      1          1           0        0.000000    0.000000    0.000000
      2          1           0       -3.750000    0.000000    0.000000
      3          9           0        1.500000    0.000000    0.000000
 ---------------------------------------------------------------------

 SCF Done:  E(UB3LYP) =  -100.854637429     a.u. after    8 cycles

 Alpha  occ. eigenvalues --  -24.64362  -1.09690  -0.43238  -0.36437  -0.36437
 Alpha  occ. eigenvalues --   -0.33765
 Alpha virt. eigenvalues --   -0.14516   0.20341   0.27359   0.93494   0.93494
 Alpha virt. eigenvalues --    1.03519   1.09365   1.23722   1.23744   1.23744
 Alpha virt. eigenvalues --    1.31124   1.31124   1.72921   2.12907   2.18927

  Beta  occ. eigenvalues --  -24.64342  -1.09638  -0.43193  -0.36418  -0.36418
  Beta virt. eigenvalues --   -0.14685  -0.06308   0.23126   0.38299   0.93486
  Beta virt. eigenvalues --    0.93486   1.03567   1.09368   1.31030   1.31030
  Beta virt. eigenvalues --    1.46238   1.46622   1.46622   1.72905   2.17815

 Mulliken charges and spin densities:
               1          2
     1  H    0.349423  -0.005160
     2  H    0.001016   0.998930
     3  F   -0.350439   0.006230
 Sum of Mulliken charges =  -0.00000   1.00000

 Dipole moment (field-independent basis, Debye):
    X=             -2.6013    Y=             -0.0000    Z=             -0.0000  Tot=              2.6013
 Quadrupole moment (field-independent basis, Debye-Ang):
   XX=             -9.9384   YY=             -7.3212   ZZ=             -7.3212
   XY=             -0.0000   XZ=             -0.0000   YZ=             -0.0000

  Exact polarizability:      14.951      -0.000       2.187       0.000      -0.000       2.187
 Approx polarizability:      28.522       0.000       2.111      -0.000      -0.000       2.111

 ******    2 imaginary frequencies (negative Signs) ******

                      1                      2                      3
                      A                      A                      A
 Frequencies --  -1147.0752               -59.8902              1019.7773
 Red. masses --      1.0579                 1.0537                 1.0317
 Frc consts  --      0.8201                 0.0022                 0.6321
 IR Inten    --     40.3748                 0.0791               118.9856

                      4
                      A
 Frequencies --   1019.7773
 Red. masses --      1.0317
 Frc consts  --      0.6321
 IR Inten    --    118.9856

 - Thermochemistry -
 -------------------
 Temperature   298.150 Kelvin.  Pressure   1.00000 Atm.
 Atom     1 has atomic number  1 and mass   1.00783

 Molecular mass:    21.01405 amu.
 Principal axes and moments of inertia in atomic units:
                           1         2         3
     Eigenvalues --     0.00000  99.43104  99.43104
           X            1.00000  -0.00000   0.00000
           Y            0.00000   1.00000   0.00000
           Z            0.00000   0.00000   1.00000
 This molecule is a prolate symmetric top.
 Rotational symmetry number  1.
 Rotational temperature (Kelvin)      0.87110
 Rotational constant (GHZ):          18.150682
    2 imaginary frequencies ignored.
 Zero-point vibrational energy      12199.2 (Joules/Mol)
                                    2.91569 (Kcal/Mol)
 Vibrational temperatures:   1467.23  1467.23
          (Kelvin)

 Zero-point correction=                           0.004646 (Hartree/Particle)
 Thermal correction to Energy=                    0.007075
 Thermal correction to Enthalpy=                  0.008019
 Thermal correction to Gibbs Free Energy=        -0.015833
 Sum of electronic and zero-point Energies=           -100.849991
 Sum of electronic and thermal Energies=              -100.847562
 Sum of electronic and thermal Enthalpies=            -100.846618
 Sum of electronic and thermal Free Energies=         -100.870471

                     E (Thermal)             CV                S
                      KCal/Mol        Cal/Mol-Kelvin    Cal/Mol-Kelvin
 Total                    4.440              5.680             50.202
 Electronic               0.000              0.000              1.377
 Translational            0.889              2.981             35.068
 Rotational               0.592              1.987             13.584
 Vibrational              2.959              0.712              0.173

 Normal termination of Gaussian 16 at Fri Aug 22 16:26:47 2025.
