 Gaussian 16, Revision C.01,
 Gaussian 16:  ES64L-G16RevC.01  3-Jul-2019

 -----------------------------------------
 # sp b3lyp/6-311g** Force nosymm scf=(qc)
 -----------------------------------------

 -------------------
 Title Card Required
 -------------------
 Symbolic Z-matrix:
 Charge =  0 Multiplicity = 2

                          Input orientation:
 ---------------------------------------------------------------------
 Center     Atomic      Atomic             Coordinates (Angstroms)
 Number     Number       Type             X           Y           Z
 ---------------------------------------------------------------------
      1          1           0        0.000000    0.000000    0.000000
      2          1           0       -1.850000    0.000000    0.000000
      3          9           0        3.850000    0.000000    0.000000
 ---------------------------------------------------------------------

 SCF Done:  E(UB3LYP) =  -100.782472561     a.u. after   42 cycles

 Alpha  occ. eigenvalues --  -24.76171  -1.22073  -0.55278  -0.46449  -0.46435
 Alpha  occ. eigenvalues --   -0.32856
 Alpha virt. eigenvalues --   -0.10661   0.26028   0.31891   0.86085   0.90962
 Alpha virt. eigenvalues --    0.91396   1.00944   1.11829   1.24972   1.24973
 Alpha virt. eigenvalues --    1.37843   1.37846   1.58677   2.14397   2.38591

  Beta  occ. eigenvalues --  -24.73017  -1.13002  -0.43290  -0.43272  -0.32838
  Beta virt. eigenvalues --   -0.25930  -0.10708   0.26014   0.31917   0.92464
  Beta virt. eigenvalues --    0.92860   0.95553   1.05079   1.11816   1.24976
  Beta virt. eigenvalues --    1.24979   1.37820   1.37821   1.58683   2.14580

 Mulliken charges and spin densities:
               1          2
     1  H    0.000585  -0.763237
     2  H   -0.001459   0.763261
     3  F    0.000874   0.999976
 Sum of Mulliken charges =   0.00000   1.00000

 Dipole moment (field-independent basis, Debye):
    X=              0.0230    Y=              0.0000    Z=              0.0000  Tot=              0.0230
 Quadrupole moment (field-independent basis, Debye-Ang):
   XX=             -6.8173   YY=             -6.9016   ZZ=             -7.7397
   XY=              0.0001   XZ=              0.0000   YZ=              0.1065

  Exact polarizability:      23.183       0.000       2.470       0.000       0.057       2.019
 Approx polarizability:      31.210       0.000       2.528       0.000       0.072       1.963

 ******    2 imaginary frequencies (negative Signs) ******

                      1                      2                      3
                      A                      A                      A
 Frequencies --  -1632.6628               -45.3331               713.6979
 Red. masses --      1.0078                 1.1085                 1.0115
 Frc consts  --      1.5828                 0.0013                 0.3036
 IR Inten    --      0.0053                 0.0418                 0.0011

                      4
                      A
 Frequencies --    714.1312
 Red. masses --      1.0115
 Frc consts  --      0.3039
 IR Inten    --      0.0007

 - Thermochemistry -
 -------------------
 Temperature   298.150 Kelvin.  Pressure   1.00000 Atm.
 Atom     1 has atomic number  1 and mass   1.00783

 Molecular mass:    21.01405 amu.
 Principal axes and moments of inertia in atomic units:
                           1         2         3
     Eigenvalues --     0.00000 154.53591 154.53591
           X            1.00000  -0.00000   0.00000
           Y            0.00000   1.00000   0.00000
           Z            0.00000   0.00000   1.00000
 This molecule is a prolate symmetric top.
 Rotational symmetry number  1.
 Rotational temperature (Kelvin)      0.56048
 Rotational constant (GHZ):          11.678458
    2 imaginary frequencies ignored.
 Zero-point vibrational energy       8540.3 (Joules/Mol)
                                    2.04118 (Kcal/Mol)
 Vibrational temperatures:   1026.85  1027.48
          (Kelvin)

 Zero-point correction=                           0.003253 (Hartree/Particle)
 Thermal correction to Energy=                    0.005828
 Thermal correction to Enthalpy=                  0.006772
 Thermal correction to Gibbs Free Energy=        -0.017691
 Sum of electronic and zero-point Energies=           -100.779220
 Sum of electronic and thermal Energies=              -100.776645
 Sum of electronic and thermal Enthalpies=            -100.775701
 Sum of electronic and thermal Free Energies=         -100.800163

                     E (Thermal)             CV                S
                      KCal/Mol        Cal/Mol-Kelvin    Cal/Mol-Kelvin
 Total                    3.657              6.574             51.485
 Electronic               0.000              0.000              1.377
 Translational            0.889              2.981             35.068
 Rotational               0.592              1.987             14.460
 Vibrational              2.176              1.606              0.580

 Normal termination of Gaussian 16 at Sat Aug 23 01:04:45 2025.
