 Gaussian 16, Revision C.01,
 Gaussian 16:  ES64L-G16RevC.01  3-Jul-2019

 -----------------------------------------
 # sp b3lyp/6-311g** Force nosymm scf=(qc)
 -----------------------------------------

 -------------------
 Title Card Required
 -------------------
 Symbolic Z-matrix:
 Charge =  0 Multiplicity = 2

                          Input orientation:
 ---------------------------------------------------------------------
 Center     Atomic      Atomic             Coordinates (Angstroms)
 Number     Number       Type             X           Y           Z
 ---------------------------------------------------------------------
      1          1           0        0.000000    0.000000    0.000000
      2          1           0       -3.050000    0.000000    0.000000
      3          9           0        1.650000    0.000000    0.000000
 ---------------------------------------------------------------------

 SCF Done:  E(UB3LYP) =  -100.825674758     a.u. after   13 cycles

 Alpha  occ. eigenvalues --  -24.65267  -1.11134  -0.43861  -0.37154  -0.37154
 Alpha  occ. eigenvalues --   -0.34488
 Alpha virt. eigenvalues --   -0.15136   0.21640   0.28707   0.94425   0.94425
 Alpha virt. eigenvalues --    0.98469   1.06719   1.23045   1.23045   1.23561
 Alpha virt. eigenvalues --    1.32732   1.32732   1.74218   2.13697   2.22628

  Beta  occ. eigenvalues --  -24.64044  -1.07824  -0.40702  -0.35974  -0.35974
  Beta virt. eigenvalues --   -0.17887  -0.07979   0.22699   0.36977   0.94109
  Beta virt. eigenvalues --    0.94109   0.99320   1.07619   1.26424   1.26424
  Beta virt. eigenvalues --    1.44160   1.44519   1.44519   1.71357   2.13606

 Mulliken charges and spin densities:
               1          2
     1  H    0.306098  -0.378467
     2  H    0.006297   0.992504
     3  F   -0.312396   0.385963
 Sum of Mulliken charges =   0.00000   1.00000

 Dipole moment (field-independent basis, Debye):
    X=             -2.6048    Y=              0.0000    Z=              0.0000  Tot=              2.6048
 Quadrupole moment (field-independent basis, Debye-Ang):
   XX=             -9.9651   YY=             -7.3954   ZZ=             -7.3954
   XY=              0.0000   XZ=              0.0000   YZ=             -0.0000

  Exact polarizability:      23.553       0.000       2.135      -0.000       0.000       2.135
 Approx polarizability:      37.067      -0.000       2.041       0.000       0.000       2.041

 ******    2 imaginary frequencies (negative Signs) ******

                      1                      2                      3
                      A                      A                      A
 Frequencies --  -1831.2050              -181.1771               831.7103
 Red. masses --      1.0565                 1.0551                 1.0268
 Frc consts  --      2.0873                 0.0204                 0.4185
 IR Inten    --     79.7634                 1.8461                85.2009

                      4
                      A
 Frequencies --    831.7103
 Red. masses --      1.0268
 Frc consts  --      0.4185
 IR Inten    --     85.2009

 - Thermochemistry -
 -------------------
 Temperature   298.150 Kelvin.  Pressure   1.00000 Atm.
 Atom     1 has atomic number  1 and mass   1.00783

 Molecular mass:    21.01405 amu.
 Principal axes and moments of inertia in atomic units:
                           1         2         3
     Eigenvalues --     0.00000  82.34046  82.34046
           X            1.00000  -0.00000   0.00000
           Y            0.00000   1.00000   0.00000
           Z            0.00000   0.00000   1.00000
 This molecule is a prolate symmetric top.
 Rotational symmetry number  1.
 Rotational temperature (Kelvin)      1.05190
 Rotational constant (GHZ):          21.918037
    2 imaginary frequencies ignored.
 Zero-point vibrational energy       9949.5 (Joules/Mol)
                                    2.37798 (Kcal/Mol)
 Vibrational temperatures:   1196.65  1196.65
          (Kelvin)

 Zero-point correction=                           0.003790 (Hartree/Particle)
 Thermal correction to Energy=                    0.006289
 Thermal correction to Enthalpy=                  0.007234
 Thermal correction to Gibbs Free Energy=        -0.016533
 Sum of electronic and zero-point Energies=           -100.821885
 Sum of electronic and thermal Energies=              -100.819385
 Sum of electronic and thermal Enthalpies=            -100.818441
 Sum of electronic and thermal Free Energies=         -100.842207

                     E (Thermal)             CV                S
                      KCal/Mol        Cal/Mol-Kelvin    Cal/Mol-Kelvin
 Total                    3.947              6.168             50.020
 Electronic               0.000              0.000              1.377
 Translational            0.889              2.981             35.068
 Rotational               0.592              1.987             13.209
 Vibrational              2.465              1.200              0.366

 Normal termination of Gaussian 16 at Fri Aug 22 16:35:17 2025.
