 Gaussian 16, Revision C.01,
 Gaussian 16:  ES64L-G16RevC.01  3-Jul-2019

 -----------------------------------------
 # sp b3lyp/6-311g** Force nosymm scf=(qc)
 -----------------------------------------

 -------------------
 Title Card Required
 -------------------
 Symbolic Z-matrix:
 Charge =  0 Multiplicity = 2

                          Input orientation:
 ---------------------------------------------------------------------
 Center     Atomic      Atomic             Coordinates (Angstroms)
 Number     Number       Type             X           Y           Z
 ---------------------------------------------------------------------
      1          1           0        0.000000    0.000000    0.000000
      2          1           0       -3.350000    0.000000    0.000000
      3          9           0        2.050000    0.000000    0.000000
 ---------------------------------------------------------------------

 SCF Done:  E(UB3LYP) =  -100.784273549     a.u. after   15 cycles

 Alpha  occ. eigenvalues --  -24.68635  -1.14958  -0.47641  -0.40106  -0.40106
 Alpha  occ. eigenvalues --   -0.33495
 Alpha virt. eigenvalues --   -0.13350   0.22603   0.32383   0.88620   0.94795
 Alpha virt. eigenvalues --    0.94795   1.05812   1.24026   1.24026   1.24248
 Alpha virt. eigenvalues --    1.35927   1.35927   1.58074   2.14181   2.30346

  Beta  occ. eigenvalues --  -24.66186  -1.08095  -0.37688  -0.37688  -0.37620
  Beta virt. eigenvalues --   -0.21080  -0.07276   0.22982   0.37661   0.90381
  Beta virt. eigenvalues --    0.95567   0.95567   1.08203   1.21761   1.21761
  Beta virt. eigenvalues --    1.44868   1.45497   1.45497   1.50698   2.12080

 Mulliken charges and spin densities:
               1          2
     1  H    0.177734  -0.766940
     2  H    0.002241   0.996615
     3  F   -0.179976   0.770325
 Sum of Mulliken charges =  -0.00000   1.00000

 Dipole moment (field-independent basis, Debye):
    X=             -1.8657    Y=              0.0000    Z=              0.0000  Tot=              1.8657
 Quadrupole moment (field-independent basis, Debye-Ang):
   XX=             -9.9281   YY=             -7.5024   ZZ=             -7.5024
   XY=              0.0000   XZ=              0.0000   YZ=             -0.0000

  Exact polarizability:      27.290      -0.000       2.054      -0.000       0.000       2.054
 Approx polarizability:      38.201      -0.000       1.941      -0.000       0.000       1.941

 ******    2 imaginary frequencies (negative Signs) ******

                      1                      2                      3
                      A                      A                      A
 Frequencies --  -1057.2449              -144.1587               445.7698
 Red. masses --      1.0563                 1.0553                 1.0248
 Frc consts  --      0.6956                 0.0129                 0.1200
 IR Inten    --    116.1841                 0.5057                29.3723

                      4
                      A
 Frequencies --    445.7698
 Red. masses --      1.0248
 Frc consts  --      0.1200
 IR Inten    --     29.3723

 - Thermochemistry -
 -------------------
 Temperature   298.150 Kelvin.  Pressure   1.00000 Atm.
 Atom     1 has atomic number  1 and mass   1.00783

 Molecular mass:    21.01405 amu.
 Principal axes and moments of inertia in atomic units:
                           1         2         3
     Eigenvalues --     0.00000 110.49181 110.49181
           X            1.00000  -0.00000   0.00000
           Y            0.00000   1.00000   0.00000
           Z            0.00000   0.00000   1.00000
 This molecule is a prolate symmetric top.
 Rotational symmetry number  1.
 Rotational temperature (Kelvin)      0.78389
 Rotational constant (GHZ):          16.333711
    2 imaginary frequencies ignored.
 Zero-point vibrational energy       5332.6 (Joules/Mol)
                                    1.27452 (Kcal/Mol)
 Warning -- explicit consideration of   2 degrees of freedom as
           vibrations may cause significant error
 Vibrational temperatures:    641.36   641.36
          (Kelvin)

 Zero-point correction=                           0.002031 (Hartree/Particle)
 Thermal correction to Energy=                    0.004926
 Thermal correction to Enthalpy=                  0.005871
 Thermal correction to Gibbs Free Energy=        -0.018768
 Sum of electronic and zero-point Energies=           -100.782242
 Sum of electronic and thermal Energies=              -100.779347
 Sum of electronic and thermal Enthalpies=            -100.778403
 Sum of electronic and thermal Free Energies=         -100.803041

                     E (Thermal)             CV                S
                      KCal/Mol        Cal/Mol-Kelvin    Cal/Mol-Kelvin
 Total                    3.091              7.708             51.856
 Electronic               0.000              0.000              1.377
 Translational            0.889              2.981             35.068
 Rotational               0.592              1.987             13.793
 Vibrational              1.610              2.740              1.617
 Vibration     1          0.805              1.370              0.809
 Vibration     2          0.805              1.370              0.809

 Normal termination of Gaussian 16 at Fri Aug 22 17:01:30 2025.
