 Gaussian 16, Revision C.01,
 Gaussian 16:  ES64L-G16RevC.01  3-Jul-2019

 -----------------------------------------
 # sp b3lyp/6-311g** Force nosymm scf=(qc)
 -----------------------------------------

 -------------------
 Title Card Required
 -------------------
 Symbolic Z-matrix:
 Charge =  0 Multiplicity = 2

                          Input orientation:
 ---------------------------------------------------------------------
 Center     Atomic      Atomic             Coordinates (Angstroms)
 Number     Number       Type             X           Y           Z
 ---------------------------------------------------------------------
      1          1           0        0.000000    0.000000    0.000000
      2          1           0       -0.850000    0.000000    0.000000
      3          9           0        3.200000    0.000000    0.000000
 ---------------------------------------------------------------------

 SCF Done:  E(UB3LYP) =  -100.928213787     a.u. after  173 cycles

 Alpha  occ. eigenvalues --  -24.76513  -1.22343  -0.55539  -0.46764  -0.46690
 Alpha  occ. eigenvalues --   -0.41167
 Alpha virt. eigenvalues --    0.03859   0.20507   0.43252   0.85901   0.90775
 Alpha virt. eigenvalues --    0.93475   1.03466   1.08317   1.08322   1.49229
 Alpha virt. eigenvalues --    1.75658   1.75664   2.12910   2.38278   2.87702

  Beta  occ. eigenvalues --  -24.73353  -1.13260  -0.43624  -0.43522  -0.41136
  Beta virt. eigenvalues --   -0.26168   0.03884   0.20526   0.43330   0.92274
  Beta virt. eigenvalues --    0.95130   0.95361   1.07345   1.08316   1.08321
  Beta virt. eigenvalues --    1.49240   1.75658   1.75664   2.12931   2.38283

 Mulliken charges and spin densities:
               1          2
     1  H   -0.003089  -0.000710
     2  H   -0.003576  -0.000117
     3  F    0.006665   1.000828
 Sum of Mulliken charges =   0.00000   1.00000

 Dipole moment (field-independent basis, Debye):
    X=              0.0745    Y=              0.0000    Z=             -0.0000  Tot=              0.0745
 Quadrupole moment (field-independent basis, Debye-Ang):
   XX=             -6.1466   YY=             -6.6577   ZZ=             -6.6617
   XY=             -0.0000   XZ=              0.0000   YZ=             -0.4319

  Exact polarizability:       9.955      -0.000       2.240       0.000      -0.231       2.238
 Approx polarizability:      11.935      -0.000       2.368       0.000      -0.290       2.365

                      1                      2                      3
                      A                      A                      A
 Frequencies --     51.7306              1328.7152              1328.7546
 Red. masses --      1.1085                 1.0092                 1.0092
 Frc consts  --      0.0017                 1.0498                 1.0498
 IR Inten    --      0.2261                 0.0015                 0.0016

                      4
                      A
 Frequencies --   3136.3828
 Red. masses --      1.0078
 Frc consts  --      5.8411
 IR Inten    --      0.2491

 - Thermochemistry -
 -------------------
 Temperature   298.150 Kelvin.  Pressure   1.00000 Atm.
 Atom     1 has atomic number  1 and mass   1.00783

 Molecular mass:    21.01405 amu.
 Principal axes and moments of inertia in atomic units:
                           1         2         3
     Eigenvalues --     0.00000  86.81393  86.81393
           X            1.00000  -0.00000   0.00000
           Y            0.00000   1.00000   0.00000
           Z            0.00000   0.00000   1.00000
 This molecule is a prolate symmetric top.
 Rotational symmetry number  1.
 Rotational temperature (Kelvin)      0.99770
 Rotational constant (GHZ):          20.788612
 Zero-point vibrational energy      34964.4 (Joules/Mol)
                                    8.35668 (Kcal/Mol)
 Warning -- explicit consideration of   1 degrees of freedom as
           vibrations may cause significant error
 Vibrational temperatures:     74.43  1911.72  1911.78  4512.56
          (Kelvin)

 Zero-point correction=                           0.013317 (Hartree/Particle)
 Thermal correction to Energy=                    0.016529
 Thermal correction to Enthalpy=                  0.017473
 Thermal correction to Gibbs Free Energy=        -0.008449
 Sum of electronic and zero-point Energies=           -100.914897
 Sum of electronic and thermal Energies=              -100.911685
 Sum of electronic and thermal Enthalpies=            -100.910741
 Sum of electronic and thermal Free Energies=         -100.936663

                     E (Thermal)             CV                S
                      KCal/Mol        Cal/Mol-Kelvin    Cal/Mol-Kelvin
 Total                   10.372              7.214             54.558
 Electronic               0.000              0.000              1.377
 Translational            0.889              2.981             35.068
 Rotational               0.592              1.987             13.314
 Vibrational              8.891              2.246              4.799
 Vibration     1          0.596              1.977              4.750

 Normal termination of Gaussian 16 at Fri Aug 22 20:15:42 2025.
