 Gaussian 16, Revision C.01,
 Gaussian 16:  ES64L-G16RevC.01  3-Jul-2019

 -----------------------------------------
 # sp b3lyp/6-311g** Force nosymm scf=(qc)
 -----------------------------------------

 -------------------
 Title Card Required
 -------------------
 Symbolic Z-matrix:
 Charge =  0 Multiplicity = 2

                          Input orientation:
 ---------------------------------------------------------------------
 Center     Atomic      Atomic             Coordinates (Angstroms)
 Number     Number       Type             X           Y           Z
 ---------------------------------------------------------------------
      1          1           0        0.000000    0.000000    0.000000
      2          1           0       -1.550000    0.000000    0.000000
      3          9           0        2.550000    0.000000    0.000000
 ---------------------------------------------------------------------

 SCF Done:  E(UB3LYP) =  -100.816499451     a.u. after   18 cycles

 Alpha  occ. eigenvalues --  -24.73398  -1.19511  -0.52565  -0.44112  -0.44112
 Alpha  occ. eigenvalues --   -0.35594
 Alpha virt. eigenvalues --   -0.11134   0.23942   0.30894   0.89344   0.92603
 Alpha virt. eigenvalues --    0.92603   1.03517   1.12317   1.19278   1.19278
 Alpha virt. eigenvalues --    1.38614   1.38614   1.76263   2.18711   2.44998

  Beta  occ. eigenvalues --  -24.70447  -1.11079  -0.41165  -0.41165  -0.35163
  Beta virt. eigenvalues --   -0.24828  -0.10485   0.25121   0.30870   0.94016
  Beta virt. eigenvalues --    0.94016   0.96206   1.05944   1.15879   1.19855
  Beta virt. eigenvalues --    1.19855   1.39093   1.39093   1.76915   2.19713

 Mulliken charges and spin densities:
               1          2
     1  H    0.019418  -0.386817
     2  H    0.036507   0.453672
     3  F   -0.055925   0.933145
 Sum of Mulliken charges =  -0.00000   1.00000

 Dipole moment (field-independent basis, Debye):
    X=             -0.9935    Y=             -0.0000    Z=             -0.0000  Tot=              0.9935
 Quadrupole moment (field-independent basis, Debye-Ang):
   XX=             -6.9600   YY=             -7.6859   ZZ=             -7.6859
   XY=             -0.0000   XZ=             -0.0000   YZ=             -0.0000

  Exact polarizability:      59.948      -0.000       2.042      -0.000       0.000       2.042
 Approx polarizability:      81.012       0.000       2.014       0.000       0.000       2.014

 ******    2 imaginary frequencies (negative Signs) ******

                      1                      2                      3
                      A                      A                      A
 Frequencies --  -2074.9495              -308.0530              1079.5559
 Red. masses --      1.0083                 1.1079                 1.0130
 Frc consts  --      2.5578                 0.0619                 0.6956
 IR Inten    --    487.7579                35.2159                 0.0090

                      4
                      A
 Frequencies --   1079.5559
 Red. masses --      1.0130
 Frc consts  --      0.6956
 IR Inten    --      0.0090

 - Thermochemistry -
 -------------------
 Temperature   298.150 Kelvin.  Pressure   1.00000 Atm.
 Atom     1 has atomic number  1 and mass   1.00783

 Molecular mass:    21.01405 amu.
 Principal axes and moments of inertia in atomic units:
                           1         2         3
     Eigenvalues --     0.00000  76.26878  76.26878
           X            1.00000  -0.00000   0.00000
           Y            0.00000   1.00000   0.00000
           Z            0.00000   0.00000   1.00000
 This molecule is a prolate symmetric top.
 Rotational symmetry number  1.
 Rotational temperature (Kelvin)      1.13564
 Rotational constant (GHZ):          23.662910
    2 imaginary frequencies ignored.
 Zero-point vibrational energy      12914.4 (Joules/Mol)
                                    3.08661 (Kcal/Mol)
 Vibrational temperatures:   1553.24  1553.24
          (Kelvin)

 Zero-point correction=                           0.004919 (Hartree/Particle)
 Thermal correction to Energy=                    0.007333
 Thermal correction to Enthalpy=                  0.008278
 Thermal correction to Gibbs Free Energy=        -0.015307
 Sum of electronic and zero-point Energies=           -100.811581
 Sum of electronic and thermal Energies=              -100.809166
 Sum of electronic and thermal Enthalpies=            -100.808222
 Sum of electronic and thermal Free Energies=         -100.831806

                     E (Thermal)             CV                S
                      KCal/Mol        Cal/Mol-Kelvin    Cal/Mol-Kelvin
 Total                    4.602              5.564             49.638
 Electronic               0.000              0.000              1.377
 Translational            0.889              2.981             35.068
 Rotational               0.592              1.987             13.057
 Vibrational              3.121              0.596              0.136

 Normal termination of Gaussian 16 at Fri Aug 22 17:53:20 2025.
