 Gaussian 16, Revision C.01,
 Gaussian 16:  ES64L-G16RevC.01  3-Jul-2019

 -----------------------------------------
 # sp b3lyp/6-311g** Force nosymm scf=(qc)
 -----------------------------------------

 -------------------
 Title Card Required
 -------------------
 Symbolic Z-matrix:
 Charge =  0 Multiplicity = 2

                          Input orientation:
 ---------------------------------------------------------------------
 Center     Atomic      Atomic             Coordinates (Angstroms)
 Number     Number       Type             X           Y           Z
 ---------------------------------------------------------------------
      1          1           0        0.000000    0.000000    0.000000
      2          1           0       -2.500000    0.000000    0.000000
      3          9           0        2.200000    0.000000    0.000000
 ---------------------------------------------------------------------

 SCF Done:  E(UB3LYP) =  -100.780147683     a.u. after   16 cycles

 Alpha  occ. eigenvalues --  -24.69709  -1.16010  -0.48764  -0.40996  -0.40996
 Alpha  occ. eigenvalues --   -0.34398
 Alpha virt. eigenvalues --   -0.13057   0.24334   0.32185   0.89017   0.94559
 Alpha virt. eigenvalues --    0.94559   1.06469   1.23254   1.23254   1.26359
 Alpha virt. eigenvalues --    1.36283   1.36283   1.50954   2.14128   2.30613

  Beta  occ. eigenvalues --  -24.67086  -1.08608  -0.38395  -0.38395  -0.36626
  Beta virt. eigenvalues --   -0.22009  -0.09814   0.25440   0.34641   0.92913
  Beta virt. eigenvalues --    0.95652   0.95652   1.08877   1.21845   1.21845
  Beta virt. eigenvalues --    1.41341   1.41341   1.41489   1.43938   2.13235

 Mulliken charges and spin densities:
               1          2
     1  H    0.127955  -0.796431
     2  H    0.015012   0.970224
     3  F   -0.142967   0.826207
 Sum of Mulliken charges =   0.00000   1.00000

 Dipole moment (field-independent basis, Debye):
    X=             -1.7565    Y=              0.0000    Z=             -0.0000  Tot=              1.7565
 Quadrupole moment (field-independent basis, Debye-Ang):
   XX=             -9.2339   YY=             -7.5652   ZZ=             -7.5652
   XY=              0.0000   XZ=             -0.0000   YZ=             -0.0000

  Exact polarizability:      40.438       0.000       2.033      -0.000      -0.000       2.033
 Approx polarizability:      46.924      -0.000       1.929       0.000      -0.000       1.929

 ******    2 imaginary frequencies (negative Signs) ******

                      1                      2                      3
                      A                      A                      A
 Frequencies --   -993.6496              -383.9618               411.1662
 Red. masses --      1.0341                 1.0783                 1.0196
 Frc consts  --      0.6016                 0.0937                 0.1016
 IR Inten    --     78.9704                19.5207                13.4998

                      4
                      A
 Frequencies --    411.1662
 Red. masses --      1.0196
 Frc consts  --      0.1016
 IR Inten    --     13.4998

 - Thermochemistry -
 -------------------
 Temperature   298.150 Kelvin.  Pressure   1.00000 Atm.
 Atom     1 has atomic number  1 and mass   1.00783

 Molecular mass:    21.01405 amu.
 Principal axes and moments of inertia in atomic units:
                           1         2         3
     Eigenvalues --     0.00000  88.70348  88.70348
           X            1.00000  -0.00000   0.00000
           Y            0.00000   1.00000   0.00000
           Z            0.00000   0.00000   1.00000
 This molecule is a prolate symmetric top.
 Rotational symmetry number  1.
 Rotational temperature (Kelvin)      0.97644
 Rotational constant (GHZ):          20.345776
    2 imaginary frequencies ignored.
 Zero-point vibrational energy       4918.6 (Joules/Mol)
                                    1.17558 (Kcal/Mol)
 Warning -- explicit consideration of   2 degrees of freedom as
           vibrations may cause significant error
 Vibrational temperatures:    591.58   591.58
          (Kelvin)

 Zero-point correction=                           0.001873 (Hartree/Particle)
 Thermal correction to Energy=                    0.004831
 Thermal correction to Enthalpy=                  0.005775
 Thermal correction to Gibbs Free Energy=        -0.018764
 Sum of electronic and zero-point Energies=           -100.778274
 Sum of electronic and thermal Energies=              -100.775317
 Sum of electronic and thermal Enthalpies=            -100.774372
 Sum of electronic and thermal Free Energies=         -100.798912

                     E (Thermal)             CV                S
                      KCal/Mol        Cal/Mol-Kelvin    Cal/Mol-Kelvin
 Total                    3.032              7.860             51.647
 Electronic               0.000              0.000              1.377
 Translational            0.889              2.981             35.068
 Rotational               0.592              1.987             13.357
 Vibrational              1.550              2.892              1.845
 Vibration     1          0.775              1.446              0.923
 Vibration     2          0.775              1.446              0.923

 Normal termination of Gaussian 16 at Fri Aug 22 17:12:07 2025.
