 Gaussian 16, Revision C.01,
 Gaussian 16:  ES64L-G16RevC.01  3-Jul-2019

 -----------------------------------------
 # sp b3lyp/6-311g** Force nosymm scf=(qc)
 -----------------------------------------

 -------------------
 Title Card Required
 -------------------
 Symbolic Z-matrix:
 Charge =  0 Multiplicity = 2

                          Input orientation:
 ---------------------------------------------------------------------
 Center     Atomic      Atomic             Coordinates (Angstroms)
 Number     Number       Type             X           Y           Z
 ---------------------------------------------------------------------
      1          1           0        0.000000    0.000000    0.000000
      2          1           0       -3.550000    0.000000    0.000000
      3          9           0        1.000000    0.000000    0.000000
 ---------------------------------------------------------------------

 SCF Done:  E(UB3LYP) =  -100.966142538     a.u. after    6 cycles

 Alpha  occ. eigenvalues --  -24.64188  -1.16061  -0.51657  -0.38807  -0.38807
 Alpha  occ. eigenvalues --   -0.33658
 Alpha virt. eigenvalues --    0.00573   0.23822   0.34626   0.94034   0.94034
 Alpha virt. eigenvalues --    0.98569   1.23743   1.23855   1.23855   1.29415
 Alpha virt. eigenvalues --    1.35921   1.35921   1.90117   2.14151   2.33856

  Beta  occ. eigenvalues --  -24.64186  -1.16057  -0.51652  -0.38805  -0.38805
  Beta virt. eigenvalues --   -0.05796   0.01168   0.33382   0.39520   0.94035
  Beta virt. eigenvalues --    0.94035   0.98570   1.29262   1.35919   1.35919
  Beta virt. eigenvalues --    1.50002   1.50271   1.50271   1.90152   2.33648

 Mulliken charges and spin densities:
               1          2
     1  H    0.319906   0.000487
     2  H    0.000892   0.998962
     3  F   -0.320798   0.000551
 Sum of Mulliken charges =   0.00000   1.00000

 Dipole moment (field-independent basis, Debye):
    X=             -2.0360    Y=             -0.0000    Z=              0.0000  Tot=              2.0360
 Quadrupole moment (field-independent basis, Debye-Ang):
   XX=             -8.2289   YY=             -6.9621   ZZ=             -6.9621
   XY=             -0.0000   XZ=              0.0000   YZ=              0.0000

  Exact polarizability:       6.653      -0.000       2.398       0.000      -0.000       2.398
 Approx polarizability:       8.176      -0.000       2.370       0.000      -0.000       2.370

 ******    1 imaginary frequencies (negative Signs) ******

                      1                      2                      3
                      A                      A                      A
 Frequencies --    -44.7023               984.2509               984.2509
 Red. masses --      1.0532                 1.0372                 1.0372
 Frc consts  --      0.0012                 0.5920                 0.5920
 IR Inten    --      0.0457               169.0870               169.0870

                      4
                      A
 Frequencies --   3026.8727
 Red. masses --      1.0583
 Frc consts  --      5.7130
 IR Inten    --     89.1204

 - Thermochemistry -
 -------------------
 Temperature   298.150 Kelvin.  Pressure   1.00000 Atm.
 Atom     1 has atomic number  1 and mass   1.00783

 Molecular mass:    21.01405 amu.
 Principal axes and moments of inertia in atomic units:
                           1         2         3
     Eigenvalues --     0.00000  72.79076  72.79076
           X            1.00000  -0.00000   0.00000
           Y            0.00000   1.00000   0.00000
           Z            0.00000   0.00000   1.00000
 This molecule is a prolate symmetric top.
 Rotational symmetry number  1.
 Rotational temperature (Kelvin)      1.18990
 Rotational constant (GHZ):          24.793549
    1 imaginary frequencies ignored.
 Zero-point vibrational energy      29879.0 (Joules/Mol)
                                    7.14125 (Kcal/Mol)
 Vibrational temperatures:   1416.12  1416.12  4354.99
          (Kelvin)

 Zero-point correction=                           0.011380 (Hartree/Particle)
 Thermal correction to Energy=                    0.013819
 Thermal correction to Enthalpy=                  0.014763
 Thermal correction to Gibbs Free Energy=        -0.008807
 Sum of electronic and zero-point Energies=           -100.954762
 Sum of electronic and thermal Energies=              -100.952323
 Sum of electronic and thermal Enthalpies=            -100.951379
 Sum of electronic and thermal Free Energies=         -100.974950

                     E (Thermal)             CV                S
                      KCal/Mol        Cal/Mol-Kelvin    Cal/Mol-Kelvin
 Total                    8.672              5.758             49.609
 Electronic               0.000              0.000              1.377
 Translational            0.889              2.981             35.068
 Rotational               0.592              1.987             12.964
 Vibrational              7.190              0.790              0.199

 Normal termination of Gaussian 16 at Fri Aug 22 16:01:34 2025.
