 Gaussian 16, Revision C.01,
 Gaussian 16:  ES64L-G16RevC.01  3-Jul-2019

 -----------------------------------------
 # sp b3lyp/6-311g** Force nosymm scf=(qc)
 -----------------------------------------

 -------------------
 Title Card Required
 -------------------
 Symbolic Z-matrix:
 Charge =  0 Multiplicity = 2

                          Input orientation:
 ---------------------------------------------------------------------
 Center     Atomic      Atomic             Coordinates (Angstroms)
 Number     Number       Type             X           Y           Z
 ---------------------------------------------------------------------
      1          1           0        0.000000    0.000000    0.000000
      2          1           0       -2.800000    0.000000    0.000000
      3          9           0        2.650000    0.000000    0.000000
 ---------------------------------------------------------------------

 SCF Done:  E(UB3LYP) =  -100.766320390     a.u. after   20 cycles

 Alpha  occ. eigenvalues --  -24.72583  -1.18744  -0.51692  -0.43413  -0.43413
 Alpha  occ. eigenvalues --   -0.33192
 Alpha virt. eigenvalues --   -0.10661   0.24621   0.34125   0.90164   0.93158
 Alpha virt. eigenvalues --    0.93158   1.06003   1.24377   1.24377   1.25888
 Alpha virt. eigenvalues --    1.40195   1.40195   1.42429   2.15325   2.36018

  Beta  occ. eigenvalues --  -24.69669  -1.10428  -0.40504  -0.40504  -0.34790
  Beta virt. eigenvalues --   -0.23890  -0.08388   0.25161   0.35941   0.94571
  Beta virt. eigenvalues --    0.94571   0.97915   1.09192   1.22631   1.22631
  Beta virt. eigenvalues --    1.26766   1.43621   1.43621   1.44050   2.15055

 Mulliken charges and spin densities:
               1          2
     1  H    0.065379  -0.909125
     2  H    0.004392   0.987366
     3  F   -0.069771   0.921759
 Sum of Mulliken charges =   0.00000   1.00000

 Dipole moment (field-independent basis, Debye):
    X=             -1.0036    Y=              0.0000    Z=              0.0000  Tot=              1.0036
 Quadrupole moment (field-independent basis, Debye-Ang):
   XX=             -8.7897   YY=             -7.6077   ZZ=             -7.6077
   XY=              0.0000   XZ=              0.0000   YZ=              0.0000

  Exact polarizability:      37.939       0.000       2.018       0.000       0.000       2.018
 Approx polarizability:      41.689       0.000       1.919       0.000       0.000       1.919

 ******    2 imaginary frequencies (negative Signs) ******

                      1                      2                      3
                      A                      A                      A
 Frequencies --   -618.2356              -253.0020               238.7127
 Red. masses --      1.0300                 1.0828                 1.0186
 Frc consts  --      0.2320                 0.0408                 0.0342
 IR Inten    --     57.3047                 9.3321                 3.7642

                      4
                      A
 Frequencies --    238.7127
 Red. masses --      1.0186
 Frc consts  --      0.0342
 IR Inten    --      3.7642

 - Thermochemistry -
 -------------------
 Temperature   298.150 Kelvin.  Pressure   1.00000 Atm.
 Atom     1 has atomic number  1 and mass   1.00783

 Molecular mass:    21.01405 amu.
 Principal axes and moments of inertia in atomic units:
                           1         2         3
     Eigenvalues --     0.00000 120.84885 120.84885
           X            1.00000  -0.00000   0.00000
           Y            0.00000   1.00000   0.00000
           Z            0.00000   0.00000   1.00000
 This molecule is a prolate symmetric top.
 Rotational symmetry number  1.
 Rotational temperature (Kelvin)      0.71671
 Rotational constant (GHZ):          14.933872
    2 imaginary frequencies ignored.
 Zero-point vibrational energy       2855.6 (Joules/Mol)
                                    0.68251 (Kcal/Mol)
 Warning -- explicit consideration of   2 degrees of freedom as
           vibrations may cause significant error
 Vibrational temperatures:    343.45   343.45
          (Kelvin)

 Zero-point correction=                           0.001088 (Hartree/Particle)
 Thermal correction to Energy=                    0.004453
 Thermal correction to Enthalpy=                  0.005397
 Thermal correction to Gibbs Free Energy=        -0.020280
 Sum of electronic and zero-point Energies=           -100.765233
 Sum of electronic and thermal Energies=              -100.761867
 Sum of electronic and thermal Enthalpies=            -100.760923
 Sum of electronic and thermal Free Energies=         -100.786600

                     E (Thermal)             CV                S
                      KCal/Mol        Cal/Mol-Kelvin    Cal/Mol-Kelvin
 Total                    2.794              8.531             54.042
 Electronic               0.000              0.000              1.377
 Translational            0.889              2.981             35.068
 Rotational               0.592              1.987             13.971
 Vibrational              1.313              3.563              3.625
 Vibration     1          0.657              1.781              1.812
 Vibration     2          0.657              1.781              1.812

 Normal termination of Gaussian 16 at Fri Aug 22 18:15:09 2025.
