 Gaussian 16, Revision C.01,
 Gaussian 16:  ES64L-G16RevC.01  3-Jul-2019

 -----------------------------------------
 # sp b3lyp/6-311g** Force nosymm scf=(qc)
 -----------------------------------------

 -------------------
 Title Card Required
 -------------------
 Symbolic Z-matrix:
 Charge =  0 Multiplicity = 2

                          Input orientation:
 ---------------------------------------------------------------------
 Center     Atomic      Atomic             Coordinates (Angstroms)
 Number     Number       Type             X           Y           Z
 ---------------------------------------------------------------------
      1          1           0        0.000000    0.000000    0.000000
      2          1           0       -3.650000    0.000000    0.000000
      3          9           0        1.900000    0.000000    0.000000
 ---------------------------------------------------------------------

 SCF Done:  E(UB3LYP) =  -100.794782662     a.u. after   11 cycles

 Alpha  occ. eigenvalues --  -24.67437  -1.13715  -0.46340  -0.39082  -0.39082
 Alpha  occ. eigenvalues --   -0.33460
 Alpha virt. eigenvalues --   -0.14427   0.21998   0.30858   0.90318   0.94864
 Alpha virt. eigenvalues --    0.94864   1.05640   1.24051   1.24051   1.24085
 Alpha virt. eigenvalues --    1.34495   1.34495   1.65271   2.13716   2.27840

  Beta  occ. eigenvalues --  -24.65260  -1.07669  -0.38613  -0.36945  -0.36945
  Beta virt. eigenvalues --   -0.20049  -0.06768   0.22141   0.37956   0.91178
  Beta virt. eigenvalues --    0.95191   0.95191   1.08033   1.22639   1.22639
  Beta virt. eigenvalues --    1.45742   1.46120   1.46120   1.59245   2.11865

 Mulliken charges and spin densities:
               1          2
     1  H    0.222405  -0.682959
     2  H    0.001226   0.998341
     3  F   -0.223631   0.684618
 Sum of Mulliken charges =   0.00000   1.00000

 Dipole moment (field-independent basis, Debye):
    X=             -2.1068    Y=             -0.0000    Z=              0.0000  Tot=              2.1068
 Quadrupole moment (field-independent basis, Debye-Ang):
   XX=            -10.1409   YY=             -7.4645   ZZ=             -7.4645
   XY=             -0.0000   XZ=              0.0000   YZ=              0.0000

  Exact polarizability:      24.275      -0.000       2.077       0.000      -0.000       2.077
 Approx polarizability:      36.440       0.000       1.964      -0.000      -0.000       1.964

 ******    2 imaginary frequencies (negative Signs) ******

                      1                      2                      3
                      A                      A                      A
 Frequencies --  -1306.7515               -99.3814               560.0680
 Red. masses --      1.0576                 1.0539                 1.0274
 Frc consts  --      1.0641                 0.0061                 0.1899
 IR Inten    --    129.8124                 0.1549                46.4143

                      4
                      A
 Frequencies --    560.0680
 Red. masses --      1.0274
 Frc consts  --      0.1899
 IR Inten    --     46.4143

 - Thermochemistry -
 -------------------
 Temperature   298.150 Kelvin.  Pressure   1.00000 Atm.
 Atom     1 has atomic number  1 and mass   1.00783

 Molecular mass:    21.01405 amu.
 Principal axes and moments of inertia in atomic units:
                           1         2         3
     Eigenvalues --     0.00000 114.27077 114.27077
           X            1.00000  -0.00000   0.00000
           Y            0.00000   1.00000   0.00000
           Z            0.00000   0.00000   1.00000
 This molecule is a prolate symmetric top.
 Rotational symmetry number  1.
 Rotational temperature (Kelvin)      0.75797
 Rotational constant (GHZ):          15.793551
    2 imaginary frequencies ignored.
 Zero-point vibrational energy       6699.9 (Joules/Mol)
                                    1.60131 (Kcal/Mol)
 Warning -- explicit consideration of   2 degrees of freedom as
           vibrations may cause significant error
 Vibrational temperatures:    805.81   805.81
          (Kelvin)

 Zero-point correction=                           0.002552 (Hartree/Particle)
 Thermal correction to Energy=                    0.005279
 Thermal correction to Enthalpy=                  0.006223
 Thermal correction to Gibbs Free Energy=        -0.018176
 Sum of electronic and zero-point Energies=           -100.792231
 Sum of electronic and thermal Energies=              -100.789504
 Sum of electronic and thermal Enthalpies=            -100.788560
 Sum of electronic and thermal Free Energies=         -100.812959

                     E (Thermal)             CV                S
                      KCal/Mol        Cal/Mol-Kelvin    Cal/Mol-Kelvin
 Total                    3.313              7.203             51.353
 Electronic               0.000              0.000              1.377
 Translational            0.889              2.981             35.068
 Rotational               0.592              1.987             13.860
 Vibrational              1.831              2.235              1.047
 Vibration     1          0.916              1.118              0.524
 Vibration     2          0.916              1.118              0.524

 Normal termination of Gaussian 16 at Fri Aug 22 16:51:24 2025.
