 Gaussian 16, Revision C.01,
 Gaussian 16:  ES64L-G16RevC.01  3-Jul-2019

 -----------------------------------------
 # sp b3lyp/6-311g** Force nosymm scf=(qc)
 -----------------------------------------

 -------------------
 Title Card Required
 -------------------
 Symbolic Z-matrix:
 Charge =  0 Multiplicity = 2

                          Input orientation:
 ---------------------------------------------------------------------
 Center     Atomic      Atomic             Coordinates (Angstroms)
 Number     Number       Type             X           Y           Z
 ---------------------------------------------------------------------
      1          1           0        0.000000    0.000000    0.000000
      2          1           0       -0.750000    0.000000    0.000000
      3          9           0        2.150000    0.000000    0.000000
 ---------------------------------------------------------------------

 SCF Done:  E(UB3LYP) =  -100.934367017     a.u. after    5 cycles

 Alpha  occ. eigenvalues --  -24.75394  -1.21395  -0.54977  -0.45809  -0.45809
 Alpha  occ. eigenvalues --   -0.44274
 Alpha virt. eigenvalues --    0.06746   0.20265   0.45977   0.90475   0.90888
 Alpha virt. eigenvalues --    0.90888   1.07441   1.07441   1.14138   1.58421
 Alpha virt. eigenvalues --    1.81248   1.81248   1.96045   2.39502   3.27341

  Beta  occ. eigenvalues --  -24.72320  -1.12599  -0.44402  -0.42736  -0.42736
  Beta virt. eigenvalues --   -0.25893   0.07430   0.20739   0.46299   0.92308
  Beta virt. eigenvalues --    0.92308   0.98598   1.07861   1.07861   1.17957
  Beta virt. eigenvalues --    1.59332   1.81470   1.81470   1.96410   2.39969

 Mulliken charges and spin densities:
               1          2
     1  H   -0.006113  -0.018772
     2  H    0.025736   0.050719
     3  F   -0.019622   0.968053
 Sum of Mulliken charges =   0.00000   1.00000

 Dipole moment (field-independent basis, Debye):
    X=             -0.2938    Y=              0.0000    Z=             -0.0000  Tot=              0.2938
 Quadrupole moment (field-independent basis, Debye-Ang):
   XX=             -5.8517   YY=             -6.9283   ZZ=             -6.9283
   XY=              0.0000   XZ=             -0.0000   YZ=              0.0000

  Exact polarizability:      16.100      -0.000       2.051       0.000      -0.000       2.051
 Approx polarizability:      17.464       0.000       2.114      -0.000      -0.000       2.114

 ******    3 imaginary frequencies (negative Signs) ******

                      1                      2                      3
                      A                      A                      A
 Frequencies --   -327.4544              -327.4544              -170.8710
 Red. masses --      1.0100                 1.0100                 1.1085
 Frc consts  --      0.0638                 0.0638                 0.0191
 IR Inten    --      0.2035                 0.2035                15.3732

                      4
                      A
 Frequencies --   4286.7165
 Red. masses --      1.0078
 Frc consts  --     10.9116
 IR Inten    --    144.9748

 - Thermochemistry -
 -------------------
 Temperature   298.150 Kelvin.  Pressure   1.00000 Atm.
 Atom     1 has atomic number  1 and mass   1.00783

 Molecular mass:    21.01405 amu.
 Principal axes and moments of inertia in atomic units:
                           1         2         3
     Eigenvalues --     0.00000  42.50217  42.50217
           X            1.00000  -0.00000   0.00000
           Y            0.00000   1.00000   0.00000
           Z            0.00000   0.00000   1.00000
 This molecule is a prolate symmetric top.
 Rotational symmetry number  1.
 Rotational temperature (Kelvin)      2.03787
 Rotational constant (GHZ):          42.462330
    3 imaginary frequencies ignored.
 Zero-point vibrational energy      25640.3 (Joules/Mol)
                                    6.12817 (Kcal/Mol)
 Vibrational temperatures:   6167.63
          (Kelvin)

 Zero-point correction=                           0.009766 (Hartree/Particle)
 Thermal correction to Energy=                    0.012126
 Thermal correction to Enthalpy=                  0.013071
 Thermal correction to Gibbs Free Energy=        -0.009897
 Sum of electronic and zero-point Energies=           -100.924601
 Sum of electronic and thermal Energies=              -100.922241
 Sum of electronic and thermal Enthalpies=            -100.921297
 Sum of electronic and thermal Free Energies=         -100.944265

                     E (Thermal)             CV                S
                      KCal/Mol        Cal/Mol-Kelvin    Cal/Mol-Kelvin
 Total                    7.609              4.968             48.340
 Electronic               0.000              0.000              1.377
 Translational            0.889              2.981             35.068
 Rotational               0.592              1.987             11.895
 Vibrational              6.128              0.000              0.000

 Normal termination of Gaussian 16 at Fri Aug 22 17:06:32 2025.
