 Gaussian 16, Revision C.01,
 Gaussian 16:  ES64L-G16RevC.01  3-Jul-2019

 -----------------------------------------
 # sp b3lyp/6-311g** Force nosymm scf=(qc)
 -----------------------------------------

 -------------------
 Title Card Required
 -------------------
 Symbolic Z-matrix:
 Charge =  0 Multiplicity = 2

                          Input orientation:
 ---------------------------------------------------------------------
 Center     Atomic      Atomic             Coordinates (Angstroms)
 Number     Number       Type             X           Y           Z
 ---------------------------------------------------------------------
      1          1           0        0.000000    0.000000    0.000000
      2          1           0       -2.550000    0.000000    0.000000
      3          9           0        3.250000    0.000000    0.000000
 ---------------------------------------------------------------------

 SCF Done:  E(UB3LYP) =  -100.763114825     a.u. after   26 cycles

 Alpha  occ. eigenvalues --  -24.74922  -1.20918  -0.54042  -0.45375  -0.45375
 Alpha  occ. eigenvalues --   -0.32800
 Alpha virt. eigenvalues --   -0.09757   0.25495   0.34059   0.88529   0.91767
 Alpha virt. eigenvalues --    0.91767   1.02642   1.24832   1.24832   1.26511
 Alpha virt. eigenvalues --    1.41046   1.41046   1.42376   2.15710   2.37117

  Beta  occ. eigenvalues --  -24.71840  -1.12070  -0.42288  -0.42288  -0.33304
  Beta virt. eigenvalues --   -0.25252  -0.08956   0.25385   0.35127   0.93246
  Beta virt. eigenvalues --    0.93246   0.97527   1.06605   1.24223   1.24223
  Beta virt. eigenvalues --    1.25757   1.42326   1.42326   1.43647   2.16509

 Mulliken charges and spin densities:
               1          2
     1  H    0.017287  -0.951384
     2  H    0.003273   0.974275
     3  F   -0.020561   0.977109
 Sum of Mulliken charges =  -0.00000   1.00000

 Dipole moment (field-independent basis, Debye):
    X=             -0.3829    Y=             -0.0000    Z=             -0.0000  Tot=              0.3829
 Quadrupole moment (field-independent basis, Debye-Ang):
   XX=             -7.5192   YY=             -7.6565   ZZ=             -7.6565
   XY=             -0.0000   XZ=             -0.0000   YZ=              0.0000

  Exact polarizability:      38.876      -0.000       2.019      -0.000      -0.000       2.019
 Approx polarizability:      31.694      -0.000       1.926      -0.000       0.000       1.926

 ******    2 imaginary frequencies (negative Signs) ******

                      1                      2                      3
                      A                      A                      A
 Frequencies --   -639.6345              -183.4454               235.0058
 Red. masses --      1.0088                 1.1074                 1.0153
 Frc consts  --      0.2432                 0.0220                 0.0330
 IR Inten    --     13.3606                11.9064                 0.2258

                      4
                      A
 Frequencies --    235.0058
 Red. masses --      1.0153
 Frc consts  --      0.0330
 IR Inten    --      0.2258

 - Thermochemistry -
 -------------------
 Temperature   298.150 Kelvin.  Pressure   1.00000 Atm.
 Atom     1 has atomic number  1 and mass   1.00783

 Molecular mass:    21.01405 amu.
 Principal axes and moments of inertia in atomic units:
                           1         2         3
     Eigenvalues --     0.00000 144.94824 144.94824
           X            1.00000  -0.00000   0.00000
           Y            0.00000   1.00000   0.00000
           Z            0.00000   0.00000   1.00000
 This molecule is a prolate symmetric top.
 Rotational symmetry number  1.
 Rotational temperature (Kelvin)      0.59755
 Rotational constant (GHZ):          12.450936
    2 imaginary frequencies ignored.
 Zero-point vibrational energy       2811.3 (Joules/Mol)
                                    0.67192 (Kcal/Mol)
 Warning -- explicit consideration of   2 degrees of freedom as
           vibrations may cause significant error
 Vibrational temperatures:    338.12   338.12
          (Kelvin)

 Zero-point correction=                           0.001071 (Hartree/Particle)
 Thermal correction to Energy=                    0.004447
 Thermal correction to Enthalpy=                  0.005391
 Thermal correction to Gibbs Free Energy=        -0.020484
 Sum of electronic and zero-point Energies=           -100.762044
 Sum of electronic and thermal Energies=              -100.758668
 Sum of electronic and thermal Enthalpies=            -100.757724
 Sum of electronic and thermal Free Energies=         -100.783599

                     E (Thermal)             CV                S
                      KCal/Mol        Cal/Mol-Kelvin    Cal/Mol-Kelvin
 Total                    2.791              8.543             54.459
 Electronic               0.000              0.000              1.377
 Translational            0.889              2.981             35.068
 Rotational               0.592              1.987             14.333
 Vibrational              1.309              3.575              3.681
 Vibration     1          0.655              1.787              1.840
 Vibration     2          0.655              1.787              1.840

 Normal termination of Gaussian 16 at Fri Aug 22 20:35:06 2025.
