 Gaussian 16, Revision C.01,
 Gaussian 16:  ES64L-G16RevC.01  3-Jul-2019

 -----------------------------------------
 # sp b3lyp/6-311g** Force nosymm scf=(qc)
 -----------------------------------------

 -------------------
 Title Card Required
 -------------------
 Symbolic Z-matrix:
 Charge =  0 Multiplicity = 2

                          Input orientation:
 ---------------------------------------------------------------------
 Center     Atomic      Atomic             Coordinates (Angstroms)
 Number     Number       Type             X           Y           Z
 ---------------------------------------------------------------------
      1          1           0        0.000000    0.000000    0.000000
      2          1           0       -0.800000    0.000000    0.000000
      3          9           0        2.550000    0.000000    0.000000
 ---------------------------------------------------------------------

 SCF Done:  E(UB3LYP) =  -100.932684485     a.u. after  102 cycles

 Alpha  occ. eigenvalues --  -24.76942  -1.22717  -0.55890  -0.47364  -0.47037
 Alpha  occ. eigenvalues --   -0.41654
 Alpha virt. eigenvalues --    0.05742   0.20776   0.46307   0.85594   0.90457
 Alpha virt. eigenvalues --    0.93360   1.08623   1.08643   1.10977   1.52729
 Alpha virt. eigenvalues --    1.79284   1.79303   2.06151   2.39819   3.05701

  Beta  occ. eigenvalues --  -24.73778  -1.13623  -0.44450  -0.43864  -0.41390
  Beta virt. eigenvalues --   -0.26500   0.05822   0.20828   0.46416   0.91951
  Beta virt. eigenvalues --    0.95029   0.95265   1.08636   1.08644   1.14545
  Beta virt. eigenvalues --    1.52736   1.79283   1.79301   2.06160   2.39828

 Mulliken charges and spin densities:
               1          2
     1  H   -0.006921  -0.001656
     2  H   -0.008077  -0.000571
     3  F    0.014998   1.002227
 Sum of Mulliken charges =   0.00000   1.00000

 Dipole moment (field-independent basis, Debye):
    X=              0.1574    Y=             -0.0000    Z=              0.0000  Tot=              0.1574
 Quadrupole moment (field-independent basis, Debye-Ang):
   XX=             -6.0416   YY=             -6.8954   ZZ=             -6.3056
   XY=              0.0000   XZ=             -0.0000   YZ=             -0.3150

  Exact polarizability:       9.642      -0.000       2.079      -0.000      -0.162       2.383
 Approx polarizability:      11.142       0.000       2.174      -0.000      -0.207       2.560

                      1                      2                      3
                      A                      A                      A
 Frequencies --    174.9082              1064.7027              1084.2601
 Red. masses --      1.1085                 1.0097                 1.0097
 Frc consts  --      0.0200                 0.6743                 0.6993
 IR Inten    --      0.7832                 0.0058                 0.0087

                      4
                      A
 Frequencies --   3696.4160
 Red. masses --      1.0078
 Frc consts  --      8.1133
 IR Inten    --      3.3562

 - Thermochemistry -
 -------------------
 Temperature   298.150 Kelvin.  Pressure   1.00000 Atm.
 Atom     1 has atomic number  1 and mass   1.00783

 Molecular mass:    21.01405 amu.
 Principal axes and moments of inertia in atomic units:
                           1         2         3
     Eigenvalues --     0.00000  57.78398  57.78398
           X            1.00000  -0.00000   0.00000
           Y            0.00000   1.00000   0.00000
           Z            0.00000   0.00000   1.00000
 This molecule is a prolate symmetric top.
 Rotational symmetry number  1.
 Rotational temperature (Kelvin)      1.49893
 Rotational constant (GHZ):          31.232553
 Zero-point vibrational energy      36009.3 (Joules/Mol)
                                    8.60643 (Kcal/Mol)
 Warning -- explicit consideration of   1 degrees of freedom as
           vibrations may cause significant error
 Vibrational temperatures:    251.65  1531.87  1560.01  5318.32
          (Kelvin)

 Zero-point correction=                           0.013715 (Hartree/Particle)
 Thermal correction to Energy=                    0.016732
 Thermal correction to Enthalpy=                  0.017676
 Thermal correction to Gibbs Free Energy=        -0.006779
 Sum of electronic and zero-point Energies=           -100.918969
 Sum of electronic and thermal Energies=              -100.915953
 Sum of electronic and thermal Enthalpies=            -100.915008
 Sum of electronic and thermal Free Energies=         -100.939464

                     E (Thermal)             CV                S
                      KCal/Mol        Cal/Mol-Kelvin    Cal/Mol-Kelvin
 Total                   10.499              7.447             51.471
 Electronic               0.000              0.000              1.377
 Translational            0.889              2.981             35.068
 Rotational               0.592              1.987             12.505
 Vibrational              9.018              2.479              2.521
 Vibration     1          0.627              1.873              2.382

 Normal termination of Gaussian 16 at Fri Aug 22 17:51:13 2025.
