 Gaussian 16, Revision C.01,
 Gaussian 16:  ES64L-G16RevC.01  3-Jul-2019

 -----------------------------------------
 # sp b3lyp/6-311g** Force nosymm scf=(qc)
 -----------------------------------------

 -------------------
 Title Card Required
 -------------------
 Symbolic Z-matrix:
 Charge =  0 Multiplicity = 2

                          Input orientation:
 ---------------------------------------------------------------------
 Center     Atomic      Atomic             Coordinates (Angstroms)
 Number     Number       Type             X           Y           Z
 ---------------------------------------------------------------------
      1          1           0        0.000000    0.000000    0.000000
      2          1           0       -0.550000    0.000000    0.000000
      3          9           0        1.750000    0.000000    0.000000
 ---------------------------------------------------------------------

 SCF Done:  E(UB3LYP) =  -100.892977787     a.u. after    6 cycles

 Alpha  occ. eigenvalues --  -24.74301  -1.20641  -0.56772  -0.47452  -0.45043
 Alpha  occ. eigenvalues --   -0.45043
 Alpha virt. eigenvalues --    0.11523   0.19828   0.50836   0.89554   0.89554
 Alpha virt. eigenvalues --    0.95527   1.10717   1.10717   1.23805   1.68485
 Alpha virt. eigenvalues --    1.82062   1.95547   1.95547   2.48869   3.69042

  Beta  occ. eigenvalues --  -24.71292  -1.12151  -0.50240  -0.42064  -0.42064
  Beta virt. eigenvalues --   -0.24809   0.12117   0.20479   0.52071   0.90851
  Beta virt. eigenvalues --    0.90851   1.02787   1.11664   1.11664   1.27451
  Beta virt. eigenvalues --    1.70118   1.82763   1.95937   1.95937   2.50033

 Mulliken charges and spin densities:
               1          2
     1  H    0.036711  -0.024778
     2  H    0.015883   0.092249
     3  F   -0.052594   0.932528
 Sum of Mulliken charges =   0.00000   1.00000

 Dipole moment (field-independent basis, Debye):
    X=             -0.4672    Y=              0.0000    Z=              0.0000  Tot=              0.4672
 Quadrupole moment (field-independent basis, Debye-Ang):
   XX=             -6.0983   YY=             -6.6051   ZZ=             -6.6051
   XY=              0.0000   XZ=              0.0000   YZ=             -0.0000

  Exact polarizability:      12.875      -0.000       2.089      -0.000      -0.000       2.089
 Approx polarizability:      13.985       0.000       2.157       0.000      -0.000       2.157

 ******    2 imaginary frequencies (negative Signs) ******

                      1                      2                      3
                      A                      A                      A
 Frequencies --  -3752.8808             -3752.8808               354.8643
 Red. masses --      1.0097                 1.0097                 1.1085
 Frc consts  --      8.3783                 8.3783                 0.0822
 IR Inten    --      0.2978                 0.2978                30.5794

                      4
                      A
 Frequencies --   8281.7690
 Red. masses --      1.0078
 Frc consts  --     40.7270
 IR Inten    --    250.6297

 - Thermochemistry -
 -------------------
 Temperature   298.150 Kelvin.  Pressure   1.00000 Atm.
 Atom     1 has atomic number  1 and mass   1.00783

 Molecular mass:    21.01405 amu.
 Principal axes and moments of inertia in atomic units:
                           1         2         3
     Eigenvalues --     0.00000  27.22953  27.22953
           X            1.00000  -0.00000   0.00000
           Y            0.00000   1.00000   0.00000
           Z            0.00000   0.00000   1.00000
 This molecule is a prolate symmetric top.
 Rotational symmetry number  1.
 Rotational temperature (Kelvin)      3.18088
 Rotational constant (GHZ):          66.278814
    2 imaginary frequencies ignored.
 Zero-point vibrational energy      51658.5 (Joules/Mol)
                                   12.34669 (Kcal/Mol)
 Warning -- explicit consideration of   1 degrees of freedom as
           vibrations may cause significant error
 Vibrational temperatures:    510.57 11915.62
          (Kelvin)

 Zero-point correction=                           0.019676 (Hartree/Particle)
 Thermal correction to Energy=                    0.022392
 Thermal correction to Enthalpy=                  0.023336
 Thermal correction to Gibbs Free Energy=         0.000245
 Sum of electronic and zero-point Energies=           -100.873302
 Sum of electronic and thermal Energies=              -100.870586
 Sum of electronic and thermal Enthalpies=            -100.869642
 Sum of electronic and thermal Free Energies=         -100.892733

                     E (Thermal)             CV                S
                      KCal/Mol        Cal/Mol-Kelvin    Cal/Mol-Kelvin
 Total                   14.051              6.533             48.600
 Electronic               0.000              0.000              1.377
 Translational            0.889              2.981             35.068
 Rotational               0.592              1.987             11.010
 Vibrational             12.570              1.565              1.145
 Vibration     1          0.731              1.565              1.145

 Normal termination of Gaussian 16 at Fri Aug 22 16:39:11 2025.
