 Gaussian 16, Revision C.01,
 Gaussian 16:  ES64L-G16RevC.01  3-Jul-2019

 -----------------------------------------
 # sp b3lyp/6-311g** Force nosymm scf=(qc)
 -----------------------------------------

 -------------------
 Title Card Required
 -------------------
 Symbolic Z-matrix:
 Charge =  0 Multiplicity = 2

                          Input orientation:
 ---------------------------------------------------------------------
 Center     Atomic      Atomic             Coordinates (Angstroms)
 Number     Number       Type             X           Y           Z
 ---------------------------------------------------------------------
      1          1           0        0.000000    0.000000    0.000000
      2          1           0       -1.150000    0.000000    0.000000
      3          9           0        1.150000    0.000000    0.000000
 ---------------------------------------------------------------------

 SCF Done:  E(UB3LYP) =  -100.948423455     a.u. after    7 cycles

 Alpha  occ. eigenvalues --  -24.64568  -1.14181  -0.53883  -0.38235  -0.38235
 Alpha  occ. eigenvalues --   -0.37599
 Alpha virt. eigenvalues --    0.07259   0.19281   0.34525   0.91330   0.91330
 Alpha virt. eigenvalues --    0.99313   1.09056   1.09056   1.27635   1.54156
 Alpha virt. eigenvalues --    1.54156   1.58186   2.16367   2.31809   2.53481

  Beta  occ. eigenvalues --  -24.63540  -1.11565  -0.48223  -0.37293  -0.37293
  Beta virt. eigenvalues --   -0.20246   0.09961   0.22191   0.38626   0.92273
  Beta virt. eigenvalues --    0.92273   1.01574   1.15276   1.15276   1.33309
  Beta virt. eigenvalues --    1.58212   1.58212   1.61901   2.28484   2.31091

 Mulliken charges and spin densities:
               1          2
     1  H    0.280863  -0.051805
     2  H    0.045889   0.759839
     3  F   -0.326752   0.291967
 Sum of Mulliken charges =   0.00000   1.00000

 Dipole moment (field-independent basis, Debye):
    X=             -2.3429    Y=             -0.0000    Z=              0.0000  Tot=              2.3429
 Quadrupole moment (field-independent basis, Debye-Ang):
   XX=             -7.7667   YY=             -6.8524   ZZ=             -6.8524
   XY=             -0.0000   XZ=              0.0000   YZ=             -0.0000

  Exact polarizability:      19.738      -0.000       2.523       0.000      -0.000       2.523
 Approx polarizability:      25.307      -0.000       2.521      -0.000      -0.000       2.521

 ******    1 imaginary frequencies (negative Signs) ******

                      1                      2                      3
                      A                      A                      A
 Frequencies --  -1936.5432              1013.4466              1013.4466
 Red. masses --      1.0178                 1.0179                 1.0179
 Frc consts  --      2.2490                 0.6160                 0.6160
 IR Inten    --     52.4544                45.2005                45.2005

                      4
                      A
 Frequencies --   1068.9482
 Red. masses --      1.0966
 Frc consts  --      0.7383
 IR Inten    --     46.7196

 - Thermochemistry -
 -------------------
 Temperature   298.150 Kelvin.  Pressure   1.00000 Atm.
 Atom     1 has atomic number  1 and mass   1.00783

 Molecular mass:    21.01405 amu.
 Principal axes and moments of inertia in atomic units:
                           1         2         3
     Eigenvalues --     0.00000  21.74399  21.74399
           X            1.00000  -0.00000   0.00000
           Y            0.00000   1.00000   0.00000
           Z            0.00000   0.00000   1.00000
 This molecule is a prolate symmetric top.
 Rotational symmetry number  1.
 Rotational temperature (Kelvin)      3.98335
 Rotational constant (GHZ):          82.999541
    1 imaginary frequencies ignored.
 Zero-point vibrational energy      18517.2 (Joules/Mol)
                                    4.42573 (Kcal/Mol)
 Vibrational temperatures:   1458.12  1458.12  1537.98
          (Kelvin)

 Zero-point correction=                           0.007053 (Hartree/Particle)
 Thermal correction to Energy=                    0.009511
 Thermal correction to Enthalpy=                  0.010456
 Thermal correction to Gibbs Free Energy=        -0.011997
 Sum of electronic and zero-point Energies=           -100.941371
 Sum of electronic and thermal Energies=              -100.938912
 Sum of electronic and thermal Enthalpies=            -100.937968
 Sum of electronic and thermal Free Energies=         -100.960421

                     E (Thermal)             CV                S
                      KCal/Mol        Cal/Mol-Kelvin    Cal/Mol-Kelvin
 Total                    5.969              6.001             47.256
 Electronic               0.000              0.000              1.377
 Translational            0.889              2.981             35.068
 Rotational               0.592              1.987             10.563
 Vibrational              4.487              1.033              0.248

 Normal termination of Gaussian 16 at Fri Aug 22 16:07:08 2025.
