 Gaussian 16, Revision C.01,
 Gaussian 16:  ES64L-G16RevC.01  3-Jul-2019

 -----------------------------------------
 # sp b3lyp/6-311g** Force nosymm scf=(qc)
 -----------------------------------------

 -------------------
 Title Card Required
 -------------------
 Symbolic Z-matrix:
 Charge =  0 Multiplicity = 2

                          Input orientation:
 ---------------------------------------------------------------------
 Center     Atomic      Atomic             Coordinates (Angstroms)
 Number     Number       Type             X           Y           Z
 ---------------------------------------------------------------------
      1          1           0        0.000000    0.000000    0.000000
      2          1           0       -1.050000    0.000000    0.000000
      3          9           0        1.950000    0.000000    0.000000
 ---------------------------------------------------------------------

 SCF Done:  E(UB3LYP) =  -100.903605581     a.u. after   10 cycles

 Alpha  occ. eigenvalues --  -24.72910  -1.19167  -0.52855  -0.43796  -0.43796
 Alpha  occ. eigenvalues --   -0.40636
 Alpha virt. eigenvalues --   -0.00487   0.21223   0.36325   0.90769   0.91475
 Alpha virt. eigenvalues --    0.91475   1.07830   1.07830   1.09120   1.48327
 Alpha virt. eigenvalues --    1.60564   1.60564   2.19132   2.32221   2.57021

  Beta  occ. eigenvalues --  -24.70057  -1.11088  -0.40962  -0.40962  -0.40627
  Beta virt. eigenvalues --   -0.25033   0.00951   0.22046   0.36912   0.92728
  Beta virt. eigenvalues --    0.92728   0.98047   1.09032   1.09032   1.12000
  Beta virt. eigenvalues --    1.50995   1.61361   1.61361   2.20654   2.33524

 Mulliken charges and spin densities:
               1          2
     1  H    0.036403  -0.072933
     2  H    0.045426   0.179649
     3  F   -0.081829   0.893283
 Sum of Mulliken charges =   0.00000   1.00000

 Dipole moment (field-independent basis, Debye):
    X=             -0.9980    Y=             -0.0000    Z=             -0.0000  Tot=              0.9980
 Quadrupole moment (field-independent basis, Debye-Ang):
   XX=             -6.6757   YY=             -7.2360   ZZ=             -7.2360
   XY=             -0.0000   XZ=             -0.0000   YZ=             -0.0000

  Exact polarizability:      33.235      -0.000       2.188      -0.000      -0.000       2.188
 Approx polarizability:      44.664       0.000       2.202       0.000       0.000       2.202

 ******    1 imaginary frequencies (negative Signs) ******

                      1                      2                      3
                      A                      A                      A
 Frequencies --   -672.1724               987.5882              1439.0243
 Red. masses --      1.0883                 1.0252                 1.0122
 Frc consts  --      0.2897                 0.5891                 1.2349
 IR Inten    --    377.2836               429.0473                 0.0083

                      4
                      A
 Frequencies --   1439.0243
 Red. masses --      1.0122
 Frc consts  --      1.2349
 IR Inten    --      0.0083

 - Thermochemistry -
 -------------------
 Temperature   298.150 Kelvin.  Pressure   1.00000 Atm.
 Atom     1 has atomic number  1 and mass   1.00783

 Molecular mass:    21.01405 amu.
 Principal axes and moments of inertia in atomic units:
                           1         2         3
     Eigenvalues --     0.00000  41.84701  41.84701
           X            1.00000  -0.00000   0.00000
           Y            0.00000   1.00000   0.00000
           Z            0.00000   0.00000   1.00000
 This molecule is a prolate symmetric top.
 Rotational symmetry number  1.
 Rotational temperature (Kelvin)      2.06978
 Rotational constant (GHZ):          43.127129
    1 imaginary frequencies ignored.
 Zero-point vibrational energy      23121.6 (Joules/Mol)
                                    5.52621 (Kcal/Mol)
 Vibrational temperatures:   1420.92  2070.43  2070.43
          (Kelvin)

 Zero-point correction=                           0.008807 (Hartree/Particle)
 Thermal correction to Energy=                    0.011218
 Thermal correction to Enthalpy=                  0.012163
 Thermal correction to Gibbs Free Energy=        -0.010852
 Sum of electronic and zero-point Energies=           -100.894799
 Sum of electronic and thermal Energies=              -100.892387
 Sum of electronic and thermal Enthalpies=            -100.891443
 Sum of electronic and thermal Free Energies=         -100.914458

                     E (Thermal)             CV                S
                      KCal/Mol        Cal/Mol-Kelvin    Cal/Mol-Kelvin
 Total                    7.040              5.544             48.438
 Electronic               0.000              0.000              1.377
 Translational            0.889              2.981             35.068
 Rotational               0.592              1.987             11.864
 Vibrational              5.558              0.576              0.129

 Normal termination of Gaussian 16 at Fri Aug 22 16:52:24 2025.
