 Gaussian 16, Revision C.01,
 Gaussian 16:  ES64L-G16RevC.01  3-Jul-2019

 -----------------------------------------
 # sp b3lyp/6-311g** Force nosymm scf=(qc)
 -----------------------------------------

 -------------------
 Title Card Required
 -------------------
 Symbolic Z-matrix:
 Charge =  0 Multiplicity = 2

                          Input orientation:
 ---------------------------------------------------------------------
 Center     Atomic      Atomic             Coordinates (Angstroms)
 Number     Number       Type             X           Y           Z
 ---------------------------------------------------------------------
      1          1           0        0.000000    0.000000    0.000000
      2          1           0       -2.450000    0.000000    0.000000
      3          9           0        3.750000    0.000000    0.000000
 ---------------------------------------------------------------------

 SCF Done:  E(UB3LYP) =  -100.763222385     a.u. after   35 cycles

 Alpha  occ. eigenvalues --  -24.75761  -1.21697  -0.54886  -0.46085  -0.46085
 Alpha  occ. eigenvalues --   -0.32606
 Alpha virt. eigenvalues --   -0.09467   0.25810   0.34461   0.86938   0.91241
 Alpha virt. eigenvalues --    0.91241   1.01292   1.25069   1.25069   1.26502
 Alpha virt. eigenvalues --    1.41314   1.41314   1.43314   2.15684   2.36436

  Beta  occ. eigenvalues --  -24.72625  -1.12680  -0.42940  -0.42940  -0.32784
  Beta virt. eigenvalues --   -0.25688  -0.09182   0.25631   0.34876   0.92737
  Beta virt. eigenvalues --    0.92737   0.96241   1.05392   1.24865   1.24865
  Beta virt. eigenvalues --    1.26271   1.41735   1.41735   1.43723   2.15935

 Mulliken charges and spin densities:
               1          2
     1  H    0.003351  -0.959310
     2  H    0.001556   0.964883
     3  F   -0.004907   0.994427
 Sum of Mulliken charges =   0.00000   1.00000

 Dipole moment (field-independent basis, Debye):
    X=             -0.1127    Y=             -0.0000    Z=             -0.0000  Tot=              0.1127
 Quadrupole moment (field-independent basis, Debye-Ang):
   XX=             -6.8072   YY=             -7.6714   ZZ=             -7.6714
   XY=              0.0000   XZ=              0.0000   YZ=              0.0000

  Exact polarizability:      26.234       0.000       2.018       0.000       0.000       2.018
 Approx polarizability:      19.637       0.000       1.930       0.000      -0.000       1.930

 ******    2 imaginary frequencies (negative Signs) ******

                      1                      2                      3
                      A                      A                      A
 Frequencies --   -712.0777              -101.5208               264.9007
 Red. masses --      1.0079                 1.1085                 1.0136
 Frc consts  --      0.3011                 0.0067                 0.0419
 IR Inten    --      2.0036                 2.2243                 0.0071

                      4
                      A
 Frequencies --    264.9007
 Red. masses --      1.0136
 Frc consts  --      0.0419
 IR Inten    --      0.0071

 - Thermochemistry -
 -------------------
 Temperature   298.150 Kelvin.  Pressure   1.00000 Atm.
 Atom     1 has atomic number  1 and mass   1.00783

 Molecular mass:    21.01405 amu.
 Principal axes and moments of inertia in atomic units:
                           1         2         3
     Eigenvalues --     0.00000 171.86843 171.86843
           X            1.00000  -0.00000   0.00000
           Y            0.00000   1.00000   0.00000
           Z            0.00000   0.00000   1.00000
 This molecule is a prolate symmetric top.
 Rotational symmetry number  1.
 Rotational temperature (Kelvin)      0.50395
 Rotational constant (GHZ):          10.500714
    2 imaginary frequencies ignored.
 Zero-point vibrational energy       3168.9 (Joules/Mol)
                                    0.75739 (Kcal/Mol)
 Warning -- explicit consideration of   2 degrees of freedom as
           vibrations may cause significant error
 Vibrational temperatures:    381.13   381.13
          (Kelvin)

 Zero-point correction=                           0.001207 (Hartree/Particle)
 Thermal correction to Energy=                    0.004499
 Thermal correction to Enthalpy=                  0.005443
 Thermal correction to Gibbs Free Energy=        -0.020392
 Sum of electronic and zero-point Energies=           -100.762015
 Sum of electronic and thermal Energies=              -100.758723
 Sum of electronic and thermal Enthalpies=            -100.757779
 Sum of electronic and thermal Free Energies=         -100.783614

                     E (Thermal)             CV                S
                      KCal/Mol        Cal/Mol-Kelvin    Cal/Mol-Kelvin
 Total                    2.823              8.443             54.375
 Electronic               0.000              0.000              1.377
 Translational            0.889              2.981             35.068
 Rotational               0.592              1.987             14.671
 Vibrational              1.342              3.475              3.258
 Vibration     1          0.671              1.737              1.629
 Vibration     2          0.671              1.737              1.629

 Normal termination of Gaussian 16 at Sat Aug 23 00:26:02 2025.
