 Gaussian 16, Revision C.01,
 Gaussian 16:  ES64L-G16RevC.01  3-Jul-2019

 -----------------------------------------
 # sp b3lyp/6-311g** Force nosymm scf=(qc)
 -----------------------------------------

 -------------------
 Title Card Required
 -------------------
 Symbolic Z-matrix:
 Charge =  0 Multiplicity = 2

                          Input orientation:
 ---------------------------------------------------------------------
 Center     Atomic      Atomic             Coordinates (Angstroms)
 Number     Number       Type             X           Y           Z
 ---------------------------------------------------------------------
      1          1           0        0.000000    0.000000    0.000000
      2          1           0       -1.650000    0.000000    0.000000
      3          9           0        3.500000    0.000000    0.000000
 ---------------------------------------------------------------------

 SCF Done:  E(UB3LYP) =  -100.800222982     a.u. after  223 cycles

 Alpha  occ. eigenvalues --  -24.76337  -1.22217  -0.55418  -0.46605  -0.46573
 Alpha  occ. eigenvalues --   -0.33132
 Alpha virt. eigenvalues --   -0.10389   0.25608   0.30715   0.85970   0.90846
 Alpha virt. eigenvalues --    0.91977   1.01276   1.06986   1.23229   1.23230
 Alpha virt. eigenvalues --    1.38820   1.38824   1.71194   2.18190   2.43040

  Beta  occ. eigenvalues --  -24.73182  -1.13144  -0.43451  -0.43410  -0.33119
  Beta virt. eigenvalues --   -0.26063  -0.10427   0.25593   0.30807   0.92348
  Beta virt. eigenvalues --    0.93428   0.95437   1.05354   1.06977   1.23220
  Beta virt. eigenvalues --    1.23224   1.38810   1.38812   1.71242   2.18465

 Mulliken charges and spin densities:
               1          2
     1  H    0.000459  -0.540161
     2  H   -0.002900   0.540126
     3  F    0.002441   1.000035
 Sum of Mulliken charges =   0.00000   1.00000

 Dipole moment (field-independent basis, Debye):
    X=              0.0478    Y=             -0.0000    Z=              0.0000  Tot=              0.0478
 Quadrupole moment (field-independent basis, Debye-Ang):
   XX=             -6.4794   YY=             -7.7724   ZZ=             -6.9080
   XY=             -0.0000   XZ=              0.0000   YZ=              0.0014

  Exact polarizability:      23.935      -0.000       2.022       0.000       0.001       2.485
 Approx polarizability:      39.801      -0.000       1.992      -0.000       0.001       2.574

 ******    2 imaginary frequencies (negative Signs) ******

                      1                      2                      3
                      A                      A                      A
 Frequencies --  -1987.4229               -23.5463               979.6723
 Red. masses --      1.0078                 1.1085                 1.0114
 Frc consts  --      2.3454                 0.0004                 0.5719
 IR Inten    --      0.0379                 0.1559                 0.0024

                      4
                      A
 Frequencies --    980.4979
 Red. masses --      1.0114
 Frc consts  --      0.5729
 IR Inten    --      0.0011

 - Thermochemistry -
 -------------------
 Temperature   298.150 Kelvin.  Pressure   1.00000 Atm.
 Atom     1 has atomic number  1 and mass   1.00783

 Molecular mass:    21.01405 amu.
 Principal axes and moments of inertia in atomic units:
                           1         2         3
     Eigenvalues --     0.00000 126.62768 126.62768
           X            1.00000  -0.00000   0.00000
           Y            0.00000   1.00000   0.00000
           Z            0.00000   0.00000   1.00000
 This molecule is a prolate symmetric top.
 Rotational symmetry number  1.
 Rotational temperature (Kelvin)      0.68400
 Rotational constant (GHZ):          14.252344
    2 imaginary frequencies ignored.
 Zero-point vibrational energy      11724.4 (Joules/Mol)
                                    2.80220 (Kcal/Mol)
 Vibrational temperatures:   1409.53  1410.72
          (Kelvin)

 Zero-point correction=                           0.004466 (Hartree/Particle)
 Thermal correction to Energy=                    0.006906
 Thermal correction to Enthalpy=                  0.007850
 Thermal correction to Gibbs Free Energy=        -0.016245
 Sum of electronic and zero-point Energies=           -100.795757
 Sum of electronic and thermal Energies=              -100.793317
 Sum of electronic and thermal Enthalpies=            -100.792373
 Sum of electronic and thermal Free Energies=         -100.816468

                     E (Thermal)             CV                S
                      KCal/Mol        Cal/Mol-Kelvin    Cal/Mol-Kelvin
 Total                    4.333              5.767             50.712
 Electronic               0.000              0.000              1.377
 Translational            0.889              2.981             35.068
 Rotational               0.592              1.987             14.064
 Vibrational              2.852              0.799              0.203

 Normal termination of Gaussian 16 at Fri Aug 22 22:07:27 2025.
