 Gaussian 16, Revision C.01,
 Gaussian 16:  ES64L-G16RevC.01  3-Jul-2019

 -----------------------------------------
 # sp b3lyp/6-311g** Force nosymm scf=(qc)
 -----------------------------------------

 -------------------
 Title Card Required
 -------------------
 Symbolic Z-matrix:
 Charge =  0 Multiplicity = 2

                          Input orientation:
 ---------------------------------------------------------------------
 Center     Atomic      Atomic             Coordinates (Angstroms)
 Number     Number       Type             X           Y           Z
 ---------------------------------------------------------------------
      1          1           0        0.000000    0.000000    0.000000
      2          1           0       -3.400000    0.000000    0.000000
      3          9           0        2.700000    0.000000    0.000000
 ---------------------------------------------------------------------

 SCF Done:  E(UB3LYP) =  -100.764137250     a.u. after   20 cycles

 Alpha  occ. eigenvalues --  -24.72814  -1.18963  -0.51928  -0.43610  -0.43610
 Alpha  occ. eigenvalues --   -0.32775
 Alpha virt. eigenvalues --   -0.09410   0.23828   0.35589   0.89986   0.93022
 Alpha virt. eigenvalues --    0.93022   1.05620   1.24738   1.24738   1.24983
 Alpha virt. eigenvalues --    1.42212   1.42212   1.43559   2.14763   2.37866

  Beta  occ. eigenvalues --  -24.69881  -1.10586  -0.40680  -0.40680  -0.34612
  Beta virt. eigenvalues --   -0.24022  -0.06851   0.24108   0.37721   0.94445
  Beta virt. eigenvalues --    0.94445   0.97816   1.08726   1.22724   1.22724
  Beta virt. eigenvalues --    1.25605   1.45540   1.45809   1.45809   2.14090

 Mulliken charges and spin densities:
               1          2
     1  H    0.063811  -0.925536
     2  H    0.000894   0.997357
     3  F   -0.064705   0.928178
 Sum of Mulliken charges =  -0.00000   1.00000

 Dipole moment (field-independent basis, Debye):
    X=             -0.9085    Y=              0.0000    Z=             -0.0000  Tot=              0.9085
 Quadrupole moment (field-independent basis, Debye-Ang):
   XX=             -8.8982   YY=             -7.5925   ZZ=             -7.5925
   XY=              0.0000   XZ=             -0.0000   YZ=              0.0000

  Exact polarizability:      32.498       0.000       2.023      -0.000       0.000       2.023
 Approx polarizability:      37.760       0.000       1.921      -0.000      -0.000       1.921

 ******    2 imaginary frequencies (negative Signs) ******

                      1                      2                      3
                      A                      A                      A
 Frequencies --   -511.2176              -134.7800               190.7726
 Red. masses --      1.0502                 1.0614                 1.0210
 Frc consts  --      0.1617                 0.0114                 0.0219
 IR Inten    --     62.5538                 0.6306                 3.8431

                      4
                      A
 Frequencies --    190.7726
 Red. masses --      1.0210
 Frc consts  --      0.0219
 IR Inten    --      3.8431

 - Thermochemistry -
 -------------------
 Temperature   298.150 Kelvin.  Pressure   1.00000 Atm.
 Atom     1 has atomic number  1 and mass   1.00783

 Molecular mass:    21.01405 amu.
 Principal axes and moments of inertia in atomic units:
                           1         2         3
     Eigenvalues --     0.00000 146.78920 146.78920
           X            1.00000  -0.00000   0.00000
           Y            0.00000   1.00000   0.00000
           Z            0.00000   0.00000   1.00000
 This molecule is a prolate symmetric top.
 Rotational symmetry number  1.
 Rotational temperature (Kelvin)      0.59006
 Rotational constant (GHZ):          12.294782
    2 imaginary frequencies ignored.
 Zero-point vibrational energy       2282.1 (Joules/Mol)
                                    0.54545 (Kcal/Mol)
 Warning -- explicit consideration of   2 degrees of freedom as
           vibrations may cause significant error
 Vibrational temperatures:    274.48   274.48
          (Kelvin)

 Zero-point correction=                           0.000869 (Hartree/Particle)
 Thermal correction to Energy=                    0.004380
 Thermal correction to Enthalpy=                  0.005325
 Thermal correction to Gibbs Free Energy=        -0.020924
 Sum of electronic and zero-point Energies=           -100.763268
 Sum of electronic and thermal Energies=              -100.759757
 Sum of electronic and thermal Enthalpies=            -100.758813
 Sum of electronic and thermal Free Energies=         -100.785061

                     E (Thermal)             CV                S
                      KCal/Mol        Cal/Mol-Kelvin    Cal/Mol-Kelvin
 Total                    2.749              8.673             55.244
 Electronic               0.000              0.000              1.377
 Translational            0.889              2.981             35.068
 Rotational               0.592              1.987             14.358
 Vibrational              1.268              3.705              4.441
 Vibration     1          0.634              1.853              2.220
 Vibration     2          0.634              1.853              2.220

 Normal termination of Gaussian 16 at Fri Aug 22 18:26:48 2025.
