 Gaussian 16, Revision C.01,
 Gaussian 16:  ES64L-G16RevC.01  3-Jul-2019

 -----------------------------------------
 # sp b3lyp/6-311g** Force nosymm scf=(qc)
 -----------------------------------------

 -------------------
 Title Card Required
 -------------------
 Symbolic Z-matrix:
 Charge =  0 Multiplicity = 2

                          Input orientation:
 ---------------------------------------------------------------------
 Center     Atomic      Atomic             Coordinates (Angstroms)
 Number     Number       Type             X           Y           Z
 ---------------------------------------------------------------------
      1          1           0        0.000000    0.000000    0.000000
      2          1           0       -2.250000    0.000000    0.000000
      3          9           0        2.400000    0.000000    0.000000
 ---------------------------------------------------------------------

 SCF Done:  E(UB3LYP) =  -100.777089801     a.u. after   17 cycles

 Alpha  occ. eigenvalues --  -24.71124  -1.17362  -0.50214  -0.42179  -0.42179
 Alpha  occ. eigenvalues --   -0.34503
 Alpha virt. eigenvalues --   -0.12755   0.24796   0.32497   0.89771   0.93958
 Alpha virt. eigenvalues --    0.93958   1.06527   1.23288   1.23288   1.26719
 Alpha virt. eigenvalues --    1.36039   1.36039   1.44848   2.12745   2.32216

  Beta  occ. eigenvalues --  -24.68340  -1.09454  -0.39407  -0.39407  -0.35621
  Beta virt. eigenvalues --   -0.23032  -0.10750   0.26286   0.33438   0.95271
  Beta virt. eigenvalues --    0.95271   0.95928   1.09276   1.22351   1.22351
  Beta virt. eigenvalues --    1.32392   1.39278   1.39278   1.43825   2.12803

 Mulliken charges and spin densities:
               1          2
     1  H    0.082500  -0.818319
     2  H    0.021077   0.939339
     3  F   -0.103577   0.878980
 Sum of Mulliken charges =  -0.00000   1.00000

 Dipole moment (field-independent basis, Debye):
    X=             -1.4873    Y=             -0.0000    Z=             -0.0000  Tot=              1.4873
 Quadrupole moment (field-independent basis, Debye-Ang):
   XX=             -8.6861   YY=             -7.6193   ZZ=             -7.6193
   XY=             -0.0000   XZ=             -0.0000   YZ=             -0.0000

  Exact polarizability:      50.278      -0.000       2.015      -0.000      -0.000       2.015
 Approx polarizability:      53.576       0.000       1.922       0.000       0.000       1.922

 ******    2 imaginary frequencies (negative Signs) ******

                      1                      2                      3
                      A                      A                      A
 Frequencies --  -1064.5874              -408.8585               426.5083
 Red. masses --      1.0143                 1.1008                 1.0172
 Frc consts  --      0.6773                 0.1084                 0.1090
 IR Inten    --     53.0412                41.5643                 4.9050

                      4
                      A
 Frequencies --    426.5083
 Red. masses --      1.0172
 Frc consts  --      0.1090
 IR Inten    --      4.9050

 - Thermochemistry -
 -------------------
 Temperature   298.150 Kelvin.  Pressure   1.00000 Atm.
 Atom     1 has atomic number  1 and mass   1.00783

 Molecular mass:    21.01405 amu.
 Principal axes and moments of inertia in atomic units:
                           1         2         3
     Eigenvalues --     0.00000  89.97086  89.97086
           X            1.00000  -0.00000   0.00000
           Y            0.00000   1.00000   0.00000
           Z            0.00000   0.00000   1.00000
 This molecule is a prolate symmetric top.
 Rotational symmetry number  1.
 Rotational temperature (Kelvin)      0.96269
 Rotational constant (GHZ):          20.059176
    2 imaginary frequencies ignored.
 Zero-point vibrational energy       5102.2 (Joules/Mol)
                                    1.21945 (Kcal/Mol)
 Warning -- explicit consideration of   2 degrees of freedom as
           vibrations may cause significant error
 Vibrational temperatures:    613.65   613.65
          (Kelvin)

 Zero-point correction=                           0.001943 (Hartree/Particle)
 Thermal correction to Energy=                    0.004873
 Thermal correction to Enthalpy=                  0.005817
 Thermal correction to Gibbs Free Energy=        -0.018686
 Sum of electronic and zero-point Energies=           -100.775146
 Sum of electronic and thermal Energies=              -100.772217
 Sum of electronic and thermal Enthalpies=            -100.771273
 Sum of electronic and thermal Free Energies=         -100.795776

                     E (Thermal)             CV                S
                      KCal/Mol        Cal/Mol-Kelvin    Cal/Mol-Kelvin
 Total                    3.058              7.793             51.571
 Electronic               0.000              0.000              1.377
 Translational            0.889              2.981             35.068
 Rotational               0.592              1.987             13.385
 Vibrational              1.576              2.825              1.740
 Vibration     1          0.788              1.413              0.870
 Vibration     2          0.788              1.413              0.870

 Normal termination of Gaussian 16 at Fri Aug 22 17:32:24 2025.
