 Gaussian 16, Revision C.01,
 Gaussian 16:  ES64L-G16RevC.01  3-Jul-2019

 -----------------------------------------
 # sp b3lyp/6-311g** Force nosymm scf=(qc)
 -----------------------------------------

 -------------------
 Title Card Required
 -------------------
 Symbolic Z-matrix:
 Charge =  0 Multiplicity = 2

                          Input orientation:
 ---------------------------------------------------------------------
 Center     Atomic      Atomic             Coordinates (Angstroms)
 Number     Number       Type             X           Y           Z
 ---------------------------------------------------------------------
      1          1           0        0.000000    0.000000    0.000000
      2          1           0       -1.250000    0.000000    0.000000
      3          9           0        3.700000    0.000000    0.000000
 ---------------------------------------------------------------------

 SCF Done:  E(UB3LYP) =  -100.862673694     a.u. after   72 cycles

 Alpha  occ. eigenvalues --  -24.76293  -1.22181  -0.55383  -0.46567  -0.46538
 Alpha  occ. eigenvalues --   -0.35786
 Alpha virt. eigenvalues --   -0.05135   0.23200   0.33405   0.85999   0.90876
 Alpha virt. eigenvalues --    0.91709   1.01065   1.14118   1.14120   1.18794
 Alpha virt. eigenvalues --    1.51872   1.51875   2.02896   2.30235   2.53751

  Beta  occ. eigenvalues --  -24.73137  -1.13106  -0.43403  -0.43374  -0.35785
  Beta virt. eigenvalues --   -0.26029  -0.05132   0.23205   0.33426   0.92376
  Beta virt. eigenvalues --    0.93203   0.95465   1.05197   1.14117   1.14120
  Beta virt. eigenvalues --    1.18800   1.51872   1.51874   2.02900   2.30237

 Mulliken charges and spin densities:
               1          2
     1  H    0.000676  -0.000082
     2  H   -0.002486  -0.000124
     3  F    0.001810   1.000206
 Sum of Mulliken charges =   0.00000   1.00000

 Dipole moment (field-independent basis, Debye):
    X=              0.0338    Y=             -0.0000    Z=             -0.0000  Tot=              0.0338
 Quadrupole moment (field-independent basis, Debye-Ang):
   XX=             -6.2976   YY=             -7.1125   ZZ=             -7.1126
   XY=              0.0000   XZ=              0.0000   YZ=              0.4322

  Exact polarizability:      16.964       0.000       2.309       0.000       0.233       2.309
 Approx polarizability:      26.578       0.000       2.388       0.000       0.291       2.388

 ******    2 imaginary frequencies (negative Signs) ******

                      1                      2                      3
                      A                      A                      A
 Frequencies --   -790.4260               -63.0780              1435.7454
 Red. masses --      1.0078                 1.1085                 1.0099
 Frc consts  --      0.3710                 0.0026                 1.2265
 IR Inten    --      0.1075                 0.0913                 0.0012

                      4
                      A
 Frequencies --   1435.7726
 Red. masses --      1.0099
 Frc consts  --      1.2266
 IR Inten    --      0.0011

 - Thermochemistry -
 -------------------
 Temperature   298.150 Kelvin.  Pressure   1.00000 Atm.
 Atom     1 has atomic number  1 and mass   1.00783

 Molecular mass:    21.01405 amu.
 Principal axes and moments of inertia in atomic units:
                           1         2         3
     Eigenvalues --     0.00000 124.54025 124.54025
           X            1.00000  -0.00000   0.00000
           Y            0.00000   1.00000   0.00000
           Z            0.00000   0.00000   1.00000
 This molecule is a prolate symmetric top.
 Rotational symmetry number  1.
 Rotational temperature (Kelvin)      0.69547
 Rotational constant (GHZ):          14.491228
    2 imaginary frequencies ignored.
 Zero-point vibrational energy      17175.5 (Joules/Mol)
                                    4.10504 (Kcal/Mol)
 Vibrational temperatures:   2065.72  2065.76
          (Kelvin)

 Zero-point correction=                           0.006542 (Hartree/Particle)
 Thermal correction to Energy=                    0.008915
 Thermal correction to Enthalpy=                  0.009859
 Thermal correction to Gibbs Free Energy=        -0.014138
 Sum of electronic and zero-point Energies=           -100.856132
 Sum of electronic and thermal Energies=              -100.853759
 Sum of electronic and thermal Enthalpies=            -100.852814
 Sum of electronic and thermal Free Energies=         -100.876812

                     E (Thermal)             CV                S
                      KCal/Mol        Cal/Mol-Kelvin    Cal/Mol-Kelvin
 Total                    5.594              5.155             50.508
 Electronic               0.000              0.000              1.377
 Translational            0.889              2.981             35.068
 Rotational               0.592              1.987             14.031
 Vibrational              4.113              0.187              0.031

 Normal termination of Gaussian 16 at Fri Aug 22 23:48:00 2025.
