 Gaussian 16, Revision C.01,
 Gaussian 16:  ES64L-G16RevC.01  3-Jul-2019

 -----------------------------------------
 # sp b3lyp/6-311g** Force nosymm scf=(qc)
 -----------------------------------------

 -------------------
 Title Card Required
 -------------------
 Symbolic Z-matrix:
 Charge =  0 Multiplicity = 2

                          Input orientation:
 ---------------------------------------------------------------------
 Center     Atomic      Atomic             Coordinates (Angstroms)
 Number     Number       Type             X           Y           Z
 ---------------------------------------------------------------------
      1          1           0        0.000000    0.000000    0.000000
      2          1           0       -2.650000    0.000000    0.000000
      3          9           0        2.650000    0.000000    0.000000
 ---------------------------------------------------------------------

 SCF Done:  E(UB3LYP) =  -100.767176158     a.u. after   19 cycles

 Alpha  occ. eigenvalues --  -24.72589  -1.18748  -0.51698  -0.43417  -0.43417
 Alpha  occ. eigenvalues --   -0.33348
 Alpha virt. eigenvalues --   -0.11035   0.24836   0.33702   0.90223   0.93157
 Alpha virt. eigenvalues --    0.93157   1.06035   1.24255   1.24255   1.26323
 Alpha virt. eigenvalues --    1.39428   1.39428   1.42019   2.15270   2.35480

  Beta  occ. eigenvalues --  -24.69675  -1.10431  -0.40507  -0.40507  -0.34784
  Beta virt. eigenvalues --   -0.23900  -0.08905   0.25470   0.35343   0.94570
  Beta virt. eigenvalues --    0.94570   0.98036   1.09327   1.22678   1.22678
  Beta virt. eigenvalues --    1.27000   1.42741   1.42741   1.43685   2.15238

 Mulliken charges and spin densities:
               1          2
     1  H    0.063086  -0.902774
     2  H    0.006377   0.980889
     3  F   -0.069463   0.921885
 Sum of Mulliken charges =  -0.00000   1.00000

 Dipole moment (field-independent basis, Debye):
    X=             -1.0213    Y=             -0.0000    Z=              0.0000  Tot=              1.0213
 Quadrupole moment (field-independent basis, Debye-Ang):
   XX=             -8.6957   YY=             -7.6165   ZZ=             -7.6165
   XY=             -0.0000   XZ=              0.0000   YZ=             -0.0000

  Exact polarizability:      40.806      -0.000       2.016       0.000       0.000       2.016
 Approx polarizability:      43.434      -0.000       1.918       0.000      -0.000       1.918

 ******    2 imaginary frequencies (negative Signs) ******

                      1                      2                      3
                      A                      A                      A
 Frequencies --   -676.9317              -284.4505               262.3801
 Red. masses --      1.0222                 1.0917                 1.0179
 Frc consts  --      0.2760                 0.0520                 0.0413
 IR Inten    --     50.4186                16.3057                 3.3843

                      4
                      A
 Frequencies --    262.3802
 Red. masses --      1.0179
 Frc consts  --      0.0413
 IR Inten    --      3.3843

 - Thermochemistry -
 -------------------
 Temperature   298.150 Kelvin.  Pressure   1.00000 Atm.
 Atom     1 has atomic number  1 and mass   1.00783

 Molecular mass:    21.01405 amu.
 Principal axes and moments of inertia in atomic units:
                           1         2         3
     Eigenvalues --     0.00000 115.46100 115.46100
           X            1.00000  -0.00000   0.00000
           Y            0.00000   1.00000   0.00000
           Z            0.00000   0.00000   1.00000
 This molecule is a prolate symmetric top.
 Rotational symmetry number  1.
 Rotational temperature (Kelvin)      0.75016
 Rotational constant (GHZ):          15.630743
    2 imaginary frequencies ignored.
 Zero-point vibrational energy       3138.8 (Joules/Mol)
                                    0.75018 (Kcal/Mol)
 Warning -- explicit consideration of   2 degrees of freedom as
           vibrations may cause significant error
 Vibrational temperatures:    377.51   377.51
          (Kelvin)

 Zero-point correction=                           0.001195 (Hartree/Particle)
 Thermal correction to Energy=                    0.004495
 Thermal correction to Enthalpy=                  0.005439
 Thermal correction to Gibbs Free Energy=        -0.020037
 Sum of electronic and zero-point Energies=           -100.765981
 Sum of electronic and thermal Energies=              -100.762682
 Sum of electronic and thermal Enthalpies=            -100.761737
 Sum of electronic and thermal Free Energies=         -100.787213

                     E (Thermal)             CV                S
                      KCal/Mol        Cal/Mol-Kelvin    Cal/Mol-Kelvin
 Total                    2.820              8.451             53.618
 Electronic               0.000              0.000              1.377
 Translational            0.889              2.981             35.068
 Rotational               0.592              1.987             13.881
 Vibrational              1.339              3.483              3.292
 Vibration     1          0.670              1.742              1.646
 Vibration     2          0.670              1.742              1.646

 Normal termination of Gaussian 16 at Fri Aug 22 18:15:00 2025.
