 Gaussian 16, Revision C.01,
 Gaussian 16:  ES64L-G16RevC.01  3-Jul-2019

 -----------------------------------------
 # sp b3lyp/6-311g** Force nosymm scf=(qc)
 -----------------------------------------

 -------------------
 Title Card Required
 -------------------
 Symbolic Z-matrix:
 Charge =  0 Multiplicity = 2

                          Input orientation:
 ---------------------------------------------------------------------
 Center     Atomic      Atomic             Coordinates (Angstroms)
 Number     Number       Type             X           Y           Z
 ---------------------------------------------------------------------
      1          1           0        0.000000    0.000000    0.000000
      2          1           0       -3.900000    0.000000    0.000000
      3          9           0        3.300000    0.000000    0.000000
 ---------------------------------------------------------------------

 SCF Done:  E(UB3LYP) =  -100.759400849     a.u. after   26 cycles

 Alpha  occ. eigenvalues --  -24.74970  -1.20965  -0.54092  -0.45417  -0.45417
 Alpha  occ. eigenvalues --   -0.32350
 Alpha virt. eigenvalues --   -0.06817   0.24043   0.36810   0.88265   0.91738
 Alpha virt. eigenvalues --    0.91738   1.02446   1.25146   1.25146   1.25176
 Alpha virt. eigenvalues --    1.45679   1.45679   1.46040   2.14527   2.41864

  Beta  occ. eigenvalues --  -24.71883  -1.12101  -0.42324  -0.42324  -0.33100
  Beta virt. eigenvalues --   -0.25263  -0.05947   0.23784   0.38160   0.93219
  Beta virt. eigenvalues --    0.93219   0.97254   1.06361   1.24284   1.24284
  Beta virt. eigenvalues --    1.24324   1.46567   1.46698   1.46698   2.14756

 Mulliken charges and spin densities:
               1          2
     1  H    0.019333  -0.977949
     2  H    0.000094   0.999215
     3  F   -0.019427   0.978734
 Sum of Mulliken charges =  -0.00000   1.00000

 Dipole moment (field-independent basis, Debye):
    X=             -0.3312    Y=              0.0000    Z=             -0.0000  Tot=              0.3312
 Quadrupole moment (field-independent basis, Debye-Ang):
   XX=             -7.7580   YY=             -7.6145   ZZ=             -7.6145
   XY=              0.0000   XZ=             -0.0000   YZ=             -0.0000

  Exact polarizability:      27.373       0.000       2.032      -0.000       0.000       2.032
 Approx polarizability:      23.951       0.000       1.932      -0.000      -0.000       1.932

 ******    2 imaginary frequencies (negative Signs) ******

                      1                      2                      3
                      A                      A                      A
 Frequencies --   -269.2371               -75.5300                83.2887
 Red. masses --      1.0492                 1.0624                 1.0201
 Frc consts  --      0.0448                 0.0036                 0.0042
 IR Inten    --     20.8877                 0.1807                 0.3503

                      4
                      A
 Frequencies --     83.2887
 Red. masses --      1.0201
 Frc consts  --      0.0042
 IR Inten    --      0.3503

 - Thermochemistry -
 -------------------
 Temperature   298.150 Kelvin.  Pressure   1.00000 Atm.
 Atom     1 has atomic number  1 and mass   1.00783

 Molecular mass:    21.01405 amu.
 Principal axes and moments of inertia in atomic units:
                           1         2         3
     Eigenvalues --     0.00000 206.73589 206.73589
           X            1.00000  -0.00000   0.00000
           Y            0.00000   1.00000   0.00000
           Z            0.00000   0.00000   1.00000
 This molecule is a prolate symmetric top.
 Rotational symmetry number  1.
 Rotational temperature (Kelvin)      0.41896
 Rotational constant (GHZ):           8.729695
    2 imaginary frequencies ignored.
 Zero-point vibrational energy        996.4 (Joules/Mol)
                                    0.23813 (Kcal/Mol)
 Warning -- explicit consideration of   2 degrees of freedom as
           vibrations may cause significant error
 Vibrational temperatures:    119.83   119.83
          (Kelvin)

 Zero-point correction=                           0.000379 (Hartree/Particle)
 Thermal correction to Energy=                    0.004274
 Thermal correction to Enthalpy=                  0.005218
 Thermal correction to Gibbs Free Energy=        -0.022865
 Sum of electronic and zero-point Energies=           -100.759021
 Sum of electronic and thermal Energies=              -100.755127
 Sum of electronic and thermal Enthalpies=            -100.754182
 Sum of electronic and thermal Free Energies=         -100.782266

                     E (Thermal)             CV                S
                      KCal/Mol        Cal/Mol-Kelvin    Cal/Mol-Kelvin
 Total                    2.682              8.889             59.107
 Electronic               0.000              0.000              1.377
 Translational            0.889              2.981             35.068
 Rotational               0.592              1.987             15.038
 Vibrational              1.201              3.921              7.624
 Vibration     1          0.600              1.961              3.812
 Vibration     2          0.600              1.961              3.812

 Normal termination of Gaussian 16 at Fri Aug 22 20:50:32 2025.
