 Gaussian 16, Revision C.01,
 Gaussian 16:  ES64L-G16RevC.01  3-Jul-2019

 -----------------------------------------
 # sp b3lyp/6-311g** Force nosymm scf=(qc)
 -----------------------------------------

 -------------------
 Title Card Required
 -------------------
 Symbolic Z-matrix:
 Charge =  0 Multiplicity = 2

                          Input orientation:
 ---------------------------------------------------------------------
 Center     Atomic      Atomic             Coordinates (Angstroms)
 Number     Number       Type             X           Y           Z
 ---------------------------------------------------------------------
      1          1           0        0.000000    0.000000    0.000000
      2          1           0       -1.450000    0.000000    0.000000
      3          9           0        1.050000    0.000000    0.000000
 ---------------------------------------------------------------------

 SCF Done:  E(UB3LYP) =  -100.960594501     a.u. after    6 cycles

 Alpha  occ. eigenvalues --  -24.63525  -1.14614  -0.52255  -0.37923  -0.37923
 Alpha  occ. eigenvalues --   -0.37301
 Alpha virt. eigenvalues --    0.06751   0.20621   0.33147   0.93834   0.93834
 Alpha virt. eigenvalues --    0.99425   1.14491   1.14491   1.17106   1.42653
 Alpha virt. eigenvalues --    1.42653   1.53379   2.00733   2.33304   2.43226

  Beta  occ. eigenvalues --  -24.63143  -1.13660  -0.49770  -0.37583  -0.37583
  Beta virt. eigenvalues --   -0.17010   0.09409   0.25574   0.36895   0.94096
  Beta virt. eigenvalues --    0.94096   1.00258   1.24368   1.24368   1.25334
  Beta virt. eigenvalues --    1.47696   1.47696   1.56078   2.13232   2.32724

 Mulliken charges and spin densities:
               1          2
     1  H    0.297217  -0.010677
     2  H    0.039734   0.906534
     3  F   -0.336951   0.104142
 Sum of Mulliken charges =   0.00000   1.00000

 Dipole moment (field-independent basis, Debye):
    X=             -2.3991    Y=             -0.0000    Z=              0.0000  Tot=              2.3991
 Quadrupole moment (field-independent basis, Debye-Ang):
   XX=             -7.7301   YY=             -6.8632   ZZ=             -6.8632
   XY=             -0.0000   XZ=              0.0000   YZ=             -0.0000

  Exact polarizability:      14.706       0.000       2.509      -0.000      -0.000       2.509
 Approx polarizability:      16.661      -0.000       2.501      -0.000      -0.000       2.501

 ******    1 imaginary frequencies (negative Signs) ******

                      1                      2                      3
                      A                      A                      A
 Frequencies --   -300.7125               987.5477               987.5477
 Red. masses --      1.0361                 1.0223                 1.0223
 Frc consts  --      0.0552                 0.5874                 0.5874
 IR Inten    --      1.3663                88.3041                88.3041

                      4
                      A
 Frequencies --   2065.8369
 Red. masses --      1.0762
 Frc consts  --      2.7061
 IR Inten    --    165.6929

 - Thermochemistry -
 -------------------
 Temperature   298.150 Kelvin.  Pressure   1.00000 Atm.
 Atom     1 has atomic number  1 and mass   1.00783

 Molecular mass:    21.01405 amu.
 Principal axes and moments of inertia in atomic units:
                           1         2         3
     Eigenvalues --     0.00000  24.28643  24.28643
           X            1.00000  -0.00000   0.00000
           Y            0.00000   1.00000   0.00000
           Z            0.00000   0.00000   1.00000
 This molecule is a prolate symmetric top.
 Rotational symmetry number  1.
 Rotational temperature (Kelvin)      3.56635
 Rotational constant (GHZ):          74.310678
    1 imaginary frequencies ignored.
 Zero-point vibrational energy      24170.1 (Joules/Mol)
                                    5.77680 (Kcal/Mol)
 Vibrational temperatures:   1420.86  1420.86  2972.28
          (Kelvin)

 Zero-point correction=                           0.009206 (Hartree/Particle)
 Thermal correction to Energy=                    0.011644
 Thermal correction to Enthalpy=                  0.012588
 Thermal correction to Gibbs Free Energy=        -0.009945
 Sum of electronic and zero-point Energies=           -100.951389
 Sum of electronic and thermal Energies=              -100.948950
 Sum of electronic and thermal Enthalpies=            -100.948006
 Sum of electronic and thermal Free Energies=         -100.970540

                     E (Thermal)             CV                S
                      KCal/Mol        Cal/Mol-Kelvin    Cal/Mol-Kelvin
 Total                    7.307              5.759             47.426
 Electronic               0.000              0.000              1.377
 Translational            0.889              2.981             35.068
 Rotational               0.592              1.987             10.783
 Vibrational              5.826              0.791              0.198

 Normal termination of Gaussian 16 at Fri Aug 22 16:02:33 2025.
