 Gaussian 16, Revision C.01,
 Gaussian 16:  ES64L-G16RevC.01  3-Jul-2019

 -----------------------------------------
 # sp b3lyp/6-311g** Force nosymm scf=(qc)
 -----------------------------------------

 -------------------
 Title Card Required
 -------------------
 Symbolic Z-matrix:
 Charge =  0 Multiplicity = 2

                          Input orientation:
 ---------------------------------------------------------------------
 Center     Atomic      Atomic             Coordinates (Angstroms)
 Number     Number       Type             X           Y           Z
 ---------------------------------------------------------------------
      1          1           0        0.000000    0.000000    0.000000
      2          1           0       -0.850000    0.000000    0.000000
      3          9           0        1.250000    0.000000    0.000000
 ---------------------------------------------------------------------

 SCF Done:  E(UB3LYP) =  -100.945011501     a.u. after    7 cycles

 Alpha  occ. eigenvalues --  -24.67645  -1.16351  -0.57256  -0.40479  -0.40479
 Alpha  occ. eigenvalues --   -0.39032
 Alpha virt. eigenvalues --    0.09591   0.19187   0.41860   0.88461   0.88461
 Alpha virt. eigenvalues --    0.97435   1.08216   1.08216   1.38992   1.64114
 Alpha virt. eigenvalues --    1.72277   1.72277   2.14335   2.33534   2.82486

  Beta  occ. eigenvalues --  -24.65675  -1.11190  -0.49118  -0.38627  -0.38627
  Beta virt. eigenvalues --   -0.21504   0.11596   0.20597   0.45848   0.89810
  Beta virt. eigenvalues --    0.89810   1.01765   1.12030   1.12030   1.42745
  Beta virt. eigenvalues --    1.68811   1.75026   1.75026   2.14857   2.40409

 Mulliken charges and spin densities:
               1          2
     1  H    0.232397  -0.051697
     2  H    0.017115   0.484345
     3  F   -0.249513   0.567352
 Sum of Mulliken charges =   0.00000   1.00000

 Dipole moment (field-independent basis, Debye):
    X=             -1.7456    Y=              0.0000    Z=             -0.0000  Tot=              1.7456
 Quadrupole moment (field-independent basis, Debye-Ang):
   XX=             -7.4088   YY=             -6.7541   ZZ=             -6.7541
   XY=              0.0000   XZ=             -0.0000   YZ=             -0.0000

  Exact polarizability:      19.884       0.000       2.471       0.000       0.000       2.471
 Approx polarizability:      26.708      -0.000       2.492       0.000       0.000       2.492

 ******    1 imaginary frequencies (negative Signs) ******

                      1                      2                      3
                      A                      A                      A
 Frequencies --  -1109.5019               369.0789               369.0789
 Red. masses --      1.0863                 1.0139                 1.0139
 Frc consts  --      0.7879                 0.0814                 0.0814
 IR Inten    --    225.5357                11.8367                11.8367

                      4
                      A
 Frequencies --   2253.1833
 Red. masses --      1.0269
 Frc consts  --      3.0717
 IR Inten    --    400.2682

 - Thermochemistry -
 -------------------
 Temperature   298.150 Kelvin.  Pressure   1.00000 Atm.
 Atom     1 has atomic number  1 and mass   1.00783

 Molecular mass:    21.01405 amu.
 Principal axes and moments of inertia in atomic units:
                           1         2         3
     Eigenvalues --     0.00000  19.55800  19.55800
           X            1.00000  -0.00000   0.00000
           Y            0.00000   1.00000   0.00000
           Z            0.00000   0.00000   1.00000
 This molecule is a prolate symmetric top.
 Rotational symmetry number  1.
 Rotational temperature (Kelvin)      4.42857
 Rotational constant (GHZ):          92.276380
    1 imaginary frequencies ignored.
 Zero-point vibrational energy      17892.2 (Joules/Mol)
                                    4.27634 (Kcal/Mol)
 Warning -- explicit consideration of   2 degrees of freedom as
           vibrations may cause significant error
 Vibrational temperatures:    531.02   531.02  3241.83
          (Kelvin)

 Zero-point correction=                           0.006815 (Hartree/Particle)
 Thermal correction to Energy=                    0.009857
 Thermal correction to Enthalpy=                  0.010801
 Thermal correction to Gibbs Free Energy=        -0.012464
 Sum of electronic and zero-point Energies=           -100.938197
 Sum of electronic and thermal Energies=              -100.935155
 Sum of electronic and thermal Enthalpies=            -100.934211
 Sum of electronic and thermal Free Energies=         -100.957476

                     E (Thermal)             CV                S
                      KCal/Mol        Cal/Mol-Kelvin    Cal/Mol-Kelvin
 Total                    6.185              8.044             48.965
 Electronic               0.000              0.000              1.377
 Translational            0.889              2.981             35.068
 Rotational               0.592              1.987             10.352
 Vibrational              4.704              3.076              2.168
 Vibration     1          0.741              1.536              1.084
 Vibration     2          0.741              1.536              1.084

 Normal termination of Gaussian 16 at Fri Aug 22 16:11:44 2025.
