 Gaussian 16, Revision C.01,
 Gaussian 16:  ES64L-G16RevC.01  3-Jul-2019

 -----------------------------------------
 # sp b3lyp/6-311g** Force nosymm scf=(qc)
 -----------------------------------------

 -------------------
 Title Card Required
 -------------------
 Symbolic Z-matrix:
 Charge =  0 Multiplicity = 2

                          Input orientation:
 ---------------------------------------------------------------------
 Center     Atomic      Atomic             Coordinates (Angstroms)
 Number     Number       Type             X           Y           Z
 ---------------------------------------------------------------------
      1          1           0        0.000000    0.000000    0.000000
      2          1           0       -0.800000    0.000000    0.000000
      3          9           0        1.500000    0.000000    0.000000
 ---------------------------------------------------------------------

 SCF Done:  E(UB3LYP) =  -100.938337768     a.u. after    6 cycles

 Alpha  occ. eigenvalues --  -24.70758  -1.17848  -0.55434  -0.42398  -0.42398
 Alpha  occ. eigenvalues --   -0.42293
 Alpha virt. eigenvalues --    0.08038   0.19863   0.41295   0.88919   0.88919
 Alpha virt. eigenvalues --    0.97468   1.07860   1.07860   1.27412   1.68308
 Alpha virt. eigenvalues --    1.77216   1.77216   2.04980   2.40224   2.87393

  Beta  occ. eigenvalues --  -24.68183  -1.10788  -0.46878  -0.39897  -0.39897
  Beta virt. eigenvalues --   -0.23432   0.09583   0.20892   0.43550   0.90071
  Beta virt. eigenvalues --    0.90071   1.03517   1.10272   1.10272   1.31106
  Beta virt. eigenvalues --    1.71447   1.78653   1.78653   2.06155   2.43084

 Mulliken charges and spin densities:
               1          2
     1  H    0.134483  -0.053409
     2  H    0.025191   0.274171
     3  F   -0.159674   0.779238
 Sum of Mulliken charges =   0.00000   1.00000

 Dipole moment (field-independent basis, Debye):
    X=             -1.2712    Y=              0.0000    Z=             -0.0000  Tot=              1.2712
 Quadrupole moment (field-independent basis, Debye-Ang):
   XX=             -6.9718   YY=             -6.8367   ZZ=             -6.8367
   XY=              0.0000   XZ=             -0.0000   YZ=              0.0000

  Exact polarizability:      21.732      -0.000       2.324      -0.000      -0.000       2.324
 Approx polarizability:      28.600       0.000       2.353      -0.000      -0.000       2.353

 ******    1 imaginary frequencies (negative Signs) ******

                      1                      2                      3
                      A                      A                      A
 Frequencies --   -598.2540               467.8641               467.8641
 Red. masses --      1.1067                 1.0121                 1.0121
 Frc consts  --      0.2334                 0.1305                 0.1305
 IR Inten    --    139.9498                 1.2605                 1.2605

                      4
                      A
 Frequencies --   3250.6294
 Red. masses --      1.0093
 Frc consts  --      6.2837
 IR Inten    --    724.3814

 - Thermochemistry -
 -------------------
 Temperature   298.150 Kelvin.  Pressure   1.00000 Atm.
 Atom     1 has atomic number  1 and mass   1.00783

 Molecular mass:    21.01405 amu.
 Principal axes and moments of inertia in atomic units:
                           1         2         3
     Eigenvalues --     0.00000  24.64408  24.64408
           X            1.00000  -0.00000   0.00000
           Y            0.00000   1.00000   0.00000
           Z            0.00000   0.00000   1.00000
 This molecule is a prolate symmetric top.
 Rotational symmetry number  1.
 Rotational temperature (Kelvin)      3.51459
 Rotational constant (GHZ):          73.232239
    1 imaginary frequencies ignored.
 Zero-point vibrational energy      25040.0 (Joules/Mol)
                                    5.98470 (Kcal/Mol)
 Warning -- explicit consideration of   2 degrees of freedom as
           vibrations may cause significant error
 Vibrational temperatures:    673.15   673.15  4676.93
          (Kelvin)

 Zero-point correction=                           0.009537 (Hartree/Particle)
 Thermal correction to Energy=                    0.012396
 Thermal correction to Enthalpy=                  0.013340
 Thermal correction to Gibbs Free Energy=        -0.009820
 Sum of electronic and zero-point Energies=           -100.928801
 Sum of electronic and thermal Energies=              -100.925942
 Sum of electronic and thermal Enthalpies=            -100.924998
 Sum of electronic and thermal Free Energies=         -100.948158

                     E (Thermal)             CV                S
                      KCal/Mol        Cal/Mol-Kelvin    Cal/Mol-Kelvin
 Total                    7.778              7.611             48.744
 Electronic               0.000              0.000              1.377
 Translational            0.889              2.981             35.068
 Rotational               0.592              1.987             10.812
 Vibrational              6.297              2.643              1.487
 Vibration     1          0.825              1.321              0.744
 Vibration     2          0.825              1.321              0.744

 Normal termination of Gaussian 16 at Fri Aug 22 16:24:27 2025.
