 Gaussian 16, Revision C.01,
 Gaussian 16:  ES64L-G16RevC.01  3-Jul-2019

 -----------------------------------------
 # sp b3lyp/6-311g** Force nosymm scf=(qc)
 -----------------------------------------

 -------------------
 Title Card Required
 -------------------
 Symbolic Z-matrix:
 Charge =  0 Multiplicity = 2

                          Input orientation:
 ---------------------------------------------------------------------
 Center     Atomic      Atomic             Coordinates (Angstroms)
 Number     Number       Type             X           Y           Z
 ---------------------------------------------------------------------
      1          1           0        0.000000    0.000000    0.000000
      2          1           0       -1.250000    0.000000    0.000000
      3          9           0        1.050000    0.000000    0.000000
 ---------------------------------------------------------------------

 SCF Done:  E(UB3LYP) =  -100.960664650     a.u. after    6 cycles

 Alpha  occ. eigenvalues --  -24.63880  -1.15166  -0.53998  -0.38281  -0.38281
 Alpha  occ. eigenvalues --   -0.37237
 Alpha virt. eigenvalues --    0.08940   0.19585   0.35584   0.92652   0.92652
 Alpha virt. eigenvalues --    0.98953   1.10585   1.10585   1.26905   1.49519
 Alpha virt. eigenvalues --    1.49519   1.55961   2.12423   2.31257   2.58726

  Beta  occ. eigenvalues --  -24.63256  -1.13600  -0.50057  -0.37721  -0.37721
  Beta virt. eigenvalues --   -0.18383   0.11377   0.23457   0.40028   0.93360
  Beta virt. eigenvalues --    0.93360   1.00286   1.18312   1.18312   1.33505
  Beta virt. eigenvalues --    1.54438   1.54438   1.59594   2.25128   2.32358

 Mulliken charges and spin densities:
               1          2
     1  H    0.289633  -0.021664
     2  H    0.039908   0.852567
     3  F   -0.329541   0.169097
 Sum of Mulliken charges =   0.00000   1.00000

 Dipole moment (field-independent basis, Debye):
    X=             -2.3105    Y=              0.0000    Z=             -0.0000  Tot=              2.3105
 Quadrupole moment (field-independent basis, Debye-Ang):
   XX=             -7.7180   YY=             -6.8100   ZZ=             -6.8100
   XY=              0.0000   XZ=              0.0000   YZ=              0.0000

  Exact polarizability:      15.829       0.000       2.541      -0.000      -0.000       2.541
 Approx polarizability:      18.476       0.000       2.544       0.000      -0.000       2.544

 ******    1 imaginary frequencies (negative Signs) ******

                      1                      2                      3
                      A                      A                      A
 Frequencies --   -496.6035               895.4121               895.4121
 Red. masses --      1.0196                 1.0202                 1.0202
 Frc consts  --      0.1482                 0.4819                 0.4819
 IR Inten    --      2.8217                70.5908                70.5908

                      4
                      A
 Frequencies --   1807.7326
 Red. masses --      1.0946
 Frc consts  --      2.1075
 IR Inten    --     77.8160

 - Thermochemistry -
 -------------------
 Temperature   298.150 Kelvin.  Pressure   1.00000 Atm.
 Atom     1 has atomic number  1 and mass   1.00783

 Molecular mass:    21.01405 amu.
 Principal axes and moments of inertia in atomic units:
                           1         2         3
     Eigenvalues --     0.00000  21.06958  21.06958
           X            1.00000  -0.00000   0.00000
           Y            0.00000   1.00000   0.00000
           Z            0.00000   0.00000   1.00000
 This molecule is a prolate symmetric top.
 Rotational symmetry number  1.
 Rotational temperature (Kelvin)      4.11085
 Rotational constant (GHZ):          85.656246
    1 imaginary frequencies ignored.
 Zero-point vibrational energy      21524.1 (Joules/Mol)
                                    5.14440 (Kcal/Mol)
 Vibrational temperatures:   1288.30  1288.30  2600.92
          (Kelvin)

 Zero-point correction=                           0.008198 (Hartree/Particle)
 Thermal correction to Energy=                    0.010670
 Thermal correction to Enthalpy=                  0.011614
 Thermal correction to Gibbs Free Energy=        -0.010828
 Sum of electronic and zero-point Energies=           -100.952467
 Sum of electronic and thermal Energies=              -100.949995
 Sum of electronic and thermal Enthalpies=            -100.949051
 Sum of electronic and thermal Free Energies=         -100.971493

                     E (Thermal)             CV                S
                      KCal/Mol        Cal/Mol-Kelvin    Cal/Mol-Kelvin
 Total                    6.695              6.005             47.233
 Electronic               0.000              0.000              1.377
 Translational            0.889              2.981             35.068
 Rotational               0.592              1.987             10.500
 Vibrational              5.214              1.037              0.288

 Normal termination of Gaussian 16 at Fri Aug 22 16:02:25 2025.
