 Gaussian 16, Revision C.01,
 Gaussian 16:  ES64L-G16RevC.01  3-Jul-2019

 -----------------------------------------
 # sp b3lyp/6-311g** Force nosymm scf=(qc)
 -----------------------------------------

 -------------------
 Title Card Required
 -------------------
 Symbolic Z-matrix:
 Charge =  0 Multiplicity = 2

                          Input orientation:
 ---------------------------------------------------------------------
 Center     Atomic      Atomic             Coordinates (Angstroms)
 Number     Number       Type             X           Y           Z
 ---------------------------------------------------------------------
      1          1           0        0.000000    0.000000    0.000000
      2          1           0       -3.700000    0.000000    0.000000
      3          9           0        2.500000    0.000000    0.000000
 ---------------------------------------------------------------------

 SCF Done:  E(UB3LYP) =  -100.767361918     a.u. after   17 cycles

 Alpha  occ. eigenvalues --  -24.71733  -1.17951  -0.50836  -0.42707  -0.42707
 Alpha  occ. eigenvalues --   -0.32824
 Alpha virt. eigenvalues --   -0.10208   0.23411   0.35243   0.89615   0.93616
 Alpha virt. eigenvalues --    0.93616   1.06210   1.24681   1.24681   1.24749
 Alpha virt. eigenvalues --    1.40503   1.40503   1.44862   2.14257   2.36929

  Beta  occ. eigenvalues --  -24.68892  -1.09864  -0.39875  -0.39875  -0.35358
  Beta virt. eigenvalues --   -0.23335  -0.06423   0.23761   0.38053   0.94979
  Beta virt. eigenvalues --    0.94979   0.95906   1.08529   1.22093   1.22093
  Beta virt. eigenvalues --    1.29705   1.46091   1.46332   1.46332   2.12549

 Mulliken charges and spin densities:
               1          2
     1  H    0.090055  -0.896510
     2  H    0.000536   0.998735
     3  F   -0.090591   0.897775
 Sum of Mulliken charges =   0.00000   1.00000

 Dipole moment (field-independent basis, Debye):
    X=             -1.1613    Y=              0.0000    Z=              0.0000  Tot=              1.1613
 Quadrupole moment (field-independent basis, Debye-Ang):
   XX=             -9.3309   YY=             -7.5688   ZZ=             -7.5688
   XY=              0.0000   XZ=              0.0000   YZ=              0.0000

  Exact polarizability:      30.330       0.000       2.026       0.000      -0.000       2.026
 Approx polarizability:      38.549       0.000       1.921       0.000       0.000       1.921

 ******    2 imaginary frequencies (negative Signs) ******

                      1                      2                      3
                      A                      A                      A
 Frequencies --   -614.7336               -96.5955               240.9035
 Red. masses --      1.0557                 1.0559                 1.0233
 Frc consts  --      0.2350                 0.0058                 0.0350
 IR Inten    --     80.6135                 0.1204                 7.8347

                      4
                      A
 Frequencies --    240.9035
 Red. masses --      1.0233
 Frc consts  --      0.0350
 IR Inten    --      7.8347

 - Thermochemistry -
 -------------------
 Temperature   298.150 Kelvin.  Pressure   1.00000 Atm.
 Atom     1 has atomic number  1 and mass   1.00783

 Molecular mass:    21.01405 amu.
 Principal axes and moments of inertia in atomic units:
                           1         2         3
     Eigenvalues --     0.00000 147.77507 147.77507
           X            1.00000  -0.00000   0.00000
           Y            0.00000   1.00000   0.00000
           Z            0.00000   0.00000   1.00000
 This molecule is a prolate symmetric top.
 Rotational symmetry number  1.
 Rotational temperature (Kelvin)      0.58612
 Rotational constant (GHZ):          12.212758
    2 imaginary frequencies ignored.
 Zero-point vibrational energy       2881.8 (Joules/Mol)
                                    0.68878 (Kcal/Mol)
 Warning -- explicit consideration of   2 degrees of freedom as
           vibrations may cause significant error
 Vibrational temperatures:    346.61   346.61
          (Kelvin)

 Zero-point correction=                           0.001098 (Hartree/Particle)
 Thermal correction to Energy=                    0.004457
 Thermal correction to Enthalpy=                  0.005401
 Thermal correction to Gibbs Free Energy=        -0.020450
 Sum of electronic and zero-point Energies=           -100.766264
 Sum of electronic and thermal Energies=              -100.762905
 Sum of electronic and thermal Enthalpies=            -100.761961
 Sum of electronic and thermal Free Energies=         -100.787812

                     E (Thermal)             CV                S
                      KCal/Mol        Cal/Mol-Kelvin    Cal/Mol-Kelvin
 Total                    2.797              8.524             54.409
 Electronic               0.000              0.000              1.377
 Translational            0.889              2.981             35.068
 Rotational               0.592              1.987             14.371
 Vibrational              1.316              3.556              3.592
 Vibration     1          0.658              1.778              1.796
 Vibration     2          0.658              1.778              1.796

 Normal termination of Gaussian 16 at Fri Aug 22 17:46:26 2025.
