 Gaussian 16, Revision C.01,
 Gaussian 16:  ES64L-G16RevC.01  3-Jul-2019

 -----------------------------------------
 # sp b3lyp/6-311g** Force nosymm scf=(qc)
 -----------------------------------------

 -------------------
 Title Card Required
 -------------------
 Symbolic Z-matrix:
 Charge =  0 Multiplicity = 2

                          Input orientation:
 ---------------------------------------------------------------------
 Center     Atomic      Atomic             Coordinates (Angstroms)
 Number     Number       Type             X           Y           Z
 ---------------------------------------------------------------------
      1          1           0        0.000000    0.000000    0.000000
      2          1           0       -1.450000    0.000000    0.000000
      3          9           0        1.650000    0.000000    0.000000
 ---------------------------------------------------------------------

 SCF Done:  E(UB3LYP) =  -100.863262044     a.u. after   14 cycles

 Alpha  occ. eigenvalues --  -24.66734  -1.13307  -0.47679  -0.39002  -0.38653
 Alpha  occ. eigenvalues --   -0.38653
 Alpha virt. eigenvalues --   -0.07893   0.21150   0.29866   0.92039   0.93434
 Alpha virt. eigenvalues --    0.93434   1.03376   1.14599   1.14599   1.41189
 Alpha virt. eigenvalues --    1.41189   1.43275   1.90218   2.20041   2.44883

  Beta  occ. eigenvalues --  -24.64754  -1.07882  -0.40116  -0.36728  -0.36728
  Beta virt. eigenvalues --   -0.22658  -0.05081   0.23824   0.30415   0.93778
  Beta virt. eigenvalues --    0.93778   0.96296   1.07052   1.19127   1.19127
  Beta virt. eigenvalues --    1.42389   1.42389   1.48202   1.93466   2.22044

 Mulliken charges and spin densities:
               1          2
     1  H    0.179455  -0.274641
     2  H    0.072614   0.658311
     3  F   -0.252068   0.616330
 Sum of Mulliken charges =   0.00000   1.00000

 Dipole moment (field-independent basis, Debye):
    X=             -2.5347    Y=             -0.0000    Z=             -0.0000  Tot=              2.5347
 Quadrupole moment (field-independent basis, Debye-Ang):
   XX=             -8.0086   YY=             -7.3283   ZZ=             -7.3283
   XY=             -0.0000   XZ=             -0.0000   YZ=              0.0000

  Exact polarizability:      41.417      -0.000       2.243      -0.000       0.000       2.243
 Approx polarizability:      63.106       0.000       2.184       0.000       0.000       2.184

 ******    2 imaginary frequencies (negative Signs) ******

                      1                      2                      3
                      A                      A                      A
 Frequencies --  -2509.9027              -482.9788              1089.9560
 Red. masses --      1.0197                 1.0945                 1.0165
 Frc consts  --      3.7847                 0.1504                 0.7115
 IR Inten    --    709.5210                 0.5330                12.2039

                      4
                      A
 Frequencies --   1089.9560
 Red. masses --      1.0165
 Frc consts  --      0.7115
 IR Inten    --     12.2039

 - Thermochemistry -
 -------------------
 Temperature   298.150 Kelvin.  Pressure   1.00000 Atm.
 Atom     1 has atomic number  1 and mass   1.00783

 Molecular mass:    21.01405 amu.
 Principal axes and moments of inertia in atomic units:
                           1         2         3
     Eigenvalues --     0.00000  40.49033  40.49033
           X            1.00000  -0.00000   0.00000
           Y            0.00000   1.00000   0.00000
           Z            0.00000   0.00000   1.00000
 This molecule is a prolate symmetric top.
 Rotational symmetry number  1.
 Rotational temperature (Kelvin)      2.13913
 Rotational constant (GHZ):          44.572154
    2 imaginary frequencies ignored.
 Zero-point vibrational energy      13038.8 (Joules/Mol)
                                    3.11634 (Kcal/Mol)
 Vibrational temperatures:   1568.20  1568.20
          (Kelvin)

 Zero-point correction=                           0.004966 (Hartree/Particle)
 Thermal correction to Energy=                    0.007379
 Thermal correction to Enthalpy=                  0.008323
 Thermal correction to Gibbs Free Energy=        -0.014661
 Sum of electronic and zero-point Energies=           -100.858296
 Sum of electronic and thermal Energies=              -100.855883
 Sum of electronic and thermal Enthalpies=            -100.854939
 Sum of electronic and thermal Free Energies=         -100.877923

                     E (Thermal)             CV                S
                      KCal/Mol        Cal/Mol-Kelvin    Cal/Mol-Kelvin
 Total                    4.630              5.545             48.374
 Electronic               0.000              0.000              1.377
 Translational            0.889              2.981             35.068
 Rotational               0.592              1.987             11.798
 Vibrational              3.149              0.577              0.130

 Normal termination of Gaussian 16 at Fri Aug 22 16:33:47 2025.
