 Gaussian 16, Revision C.01,
 Gaussian 16:  ES64L-G16RevC.01  3-Jul-2019

 -----------------------------------------
 # sp b3lyp/6-311g** Force nosymm scf=(qc)
 -----------------------------------------

 -------------------
 Title Card Required
 -------------------
 Symbolic Z-matrix:
 Charge =  0 Multiplicity = 2

                          Input orientation:
 ---------------------------------------------------------------------
 Center     Atomic      Atomic             Coordinates (Angstroms)
 Number     Number       Type             X           Y           Z
 ---------------------------------------------------------------------
      1          1           0        0.000000    0.000000    0.000000
      2          1           0       -1.850000    0.000000    0.000000
      3          9           0        2.500000    0.000000    0.000000
 ---------------------------------------------------------------------

 SCF Done:  E(UB3LYP) =  -100.789609129     a.u. after   21 cycles

 Alpha  occ. eigenvalues --  -24.72099  -1.18283  -0.51220  -0.43001  -0.43001
 Alpha  occ. eigenvalues --   -0.35157
 Alpha virt. eigenvalues --   -0.12639   0.24602   0.31481   0.89558   0.93420
 Alpha virt. eigenvalues --    0.93420   1.04627   1.16754   1.22582   1.22582
 Alpha virt. eigenvalues --    1.34975   1.34975   1.56255   2.12023   2.37258

  Beta  occ. eigenvalues --  -24.69234  -1.10121  -0.40143  -0.40143  -0.35149
  Beta virt. eigenvalues --   -0.23837  -0.11811   0.26483   0.31091   0.94796
  Beta virt. eigenvalues --    0.94796   0.96131   1.07486   1.19970   1.22796
  Beta virt. eigenvalues --    1.22796   1.36122   1.36122   1.56889   2.12894

 Mulliken charges and spin densities:
               1          2
     1  H    0.046405  -0.694945
     2  H    0.034459   0.789438
     3  F   -0.080864   0.905507
 Sum of Mulliken charges =   0.00000   1.00000

 Dipole moment (field-independent basis, Debye):
    X=             -1.3345    Y=              0.0000    Z=             -0.0000  Tot=              1.3345
 Quadrupole moment (field-independent basis, Debye-Ang):
   XX=             -7.8634   YY=             -7.6758   ZZ=             -7.6758
   XY=              0.0000   XZ=             -0.0000   YZ=              0.0000

  Exact polarizability:      62.062       0.000       2.012      -0.000      -0.000       2.012
 Approx polarizability:      71.139      -0.000       1.945       0.000       0.000       1.945

 ******    2 imaginary frequencies (negative Signs) ******

                      1                      2                      3
                      A                      A                      A
 Frequencies --  -1661.9152              -384.3502               701.2987
 Red. masses --      1.0087                 1.1075                 1.0147
 Frc consts  --      1.6414                 0.0964                 0.2940
 IR Inten    --    133.4849                50.9874                 0.8421

                      4
                      A
 Frequencies --    701.2987
 Red. masses --      1.0147
 Frc consts  --      0.2940
 IR Inten    --      0.8421

 - Thermochemistry -
 -------------------
 Temperature   298.150 Kelvin.  Pressure   1.00000 Atm.
 Atom     1 has atomic number  1 and mass   1.00783

 Molecular mass:    21.01405 amu.
 Principal axes and moments of inertia in atomic units:
                           1         2         3
     Eigenvalues --     0.00000  82.49689  82.49689
           X            1.00000  -0.00000   0.00000
           Y            0.00000   1.00000   0.00000
           Z            0.00000   0.00000   1.00000
 This molecule is a prolate symmetric top.
 Rotational symmetry number  1.
 Rotational temperature (Kelvin)      1.04991
 Rotational constant (GHZ):          21.876474
    2 imaginary frequencies ignored.
 Zero-point vibrational energy       8389.4 (Joules/Mol)
                                    2.00511 (Kcal/Mol)
 Vibrational temperatures:   1009.01  1009.01
          (Kelvin)

 Zero-point correction=                           0.003195 (Hartree/Particle)
 Thermal correction to Energy=                    0.005780
 Thermal correction to Enthalpy=                  0.006724
 Thermal correction to Gibbs Free Energy=        -0.017159
 Sum of electronic and zero-point Energies=           -100.786414
 Sum of electronic and thermal Energies=              -100.783829
 Sum of electronic and thermal Enthalpies=            -100.782885
 Sum of electronic and thermal Free Energies=         -100.806768

                     E (Thermal)             CV                S
                      KCal/Mol        Cal/Mol-Kelvin    Cal/Mol-Kelvin
 Total                    3.627              6.621             50.267
 Electronic               0.000              0.000              1.377
 Translational            0.889              2.981             35.068
 Rotational               0.592              1.987             13.213
 Vibrational              2.146              1.653              0.609

 Normal termination of Gaussian 16 at Fri Aug 22 17:44:38 2025.
