 Gaussian 16, Revision C.01,
 Gaussian 16:  ES64L-G16RevC.01  3-Jul-2019

 -----------------------------------------
 # sp b3lyp/6-311g** Force nosymm scf=(qc)
 -----------------------------------------

 -------------------
 Title Card Required
 -------------------
 Symbolic Z-matrix:
 Charge =  0 Multiplicity = 2

                          Input orientation:
 ---------------------------------------------------------------------
 Center     Atomic      Atomic             Coordinates (Angstroms)
 Number     Number       Type             X           Y           Z
 ---------------------------------------------------------------------
      1          1           0        0.000000    0.000000    0.000000
      2          1           0       -2.850000    0.000000    0.000000
      3          9           0        3.400000    0.000000    0.000000
 ---------------------------------------------------------------------

 SCF Done:  E(UB3LYP) =  -100.760742601     a.u. after   26 cycles

 Alpha  occ. eigenvalues --  -24.75230  -1.21204  -0.54352  -0.45635  -0.45635
 Alpha  occ. eigenvalues --   -0.32541
 Alpha virt. eigenvalues --   -0.08595   0.25157   0.35264   0.87949   0.91577
 Alpha virt. eigenvalues --    0.91577   1.02094   1.25016   1.25016   1.26065
 Alpha virt. eigenvalues --    1.43016   1.43016   1.43262   2.15848   2.38887

  Beta  occ. eigenvalues --  -24.72127  -1.12291  -0.42525  -0.42525  -0.33024
  Beta virt. eigenvalues --   -0.25408  -0.07938   0.24950   0.36241   0.93062
  Beta virt. eigenvalues --    0.93062   0.97039   1.06087   1.24448   1.24448
  Beta virt. eigenvalues --    1.25430   1.44065   1.44065   1.44281   2.16312

 Mulliken charges and spin densities:
               1          2
     1  H    0.013396  -0.972662
     2  H    0.001179   0.988804
     3  F   -0.014575   0.983859
 Sum of Mulliken charges =  -0.00000   1.00000

 Dipole moment (field-independent basis, Debye):
    X=             -0.2707    Y=              0.0000    Z=              0.0000  Tot=              0.2707
 Quadrupole moment (field-independent basis, Debye-Ang):
   XX=             -7.4177   YY=             -7.6398   ZZ=             -7.6398
   XY=             -0.0000   XZ=             -0.0000   YZ=             -0.0000

  Exact polarizability:      30.371      -0.000       2.027      -0.000       0.000       2.027
 Approx polarizability:      24.183      -0.000       1.929      -0.000       0.000       1.929

 ******    2 imaginary frequencies (negative Signs) ******

                      1                      2                      3
                      A                      A                      A
 Frequencies --   -433.2836              -148.6298               153.7927
 Red. masses --      1.0101                 1.1058                 1.0159
 Frc consts  --      0.1117                 0.0144                 0.0142
 IR Inten    --      9.8918                 6.2721                 0.1472

                      4
                      A
 Frequencies --    153.7927
 Red. masses --      1.0159
 Frc consts  --      0.0142
 IR Inten    --      0.1472

 - Thermochemistry -
 -------------------
 Temperature   298.150 Kelvin.  Pressure   1.00000 Atm.
 Atom     1 has atomic number  1 and mass   1.00783

 Molecular mass:    21.01405 amu.
 Principal axes and moments of inertia in atomic units:
                           1         2         3
     Eigenvalues --     0.00000 166.11722 166.11722
           X            1.00000  -0.00000   0.00000
           Y            0.00000   1.00000   0.00000
           Z            0.00000   0.00000   1.00000
 This molecule is a prolate symmetric top.
 Rotational symmetry number  1.
 Rotational temperature (Kelvin)      0.52140
 Rotational constant (GHZ):          10.864263
    2 imaginary frequencies ignored.
 Zero-point vibrational energy       1839.8 (Joules/Mol)
                                    0.43972 (Kcal/Mol)
 Warning -- explicit consideration of   2 degrees of freedom as
           vibrations may cause significant error
 Vibrational temperatures:    221.27   221.27
          (Kelvin)

 Zero-point correction=                           0.000701 (Hartree/Particle)
 Thermal correction to Energy=                    0.004335
 Thermal correction to Enthalpy=                  0.005279
 Thermal correction to Gibbs Free Energy=        -0.021470
 Sum of electronic and zero-point Energies=           -100.760042
 Sum of electronic and thermal Energies=              -100.756408
 Sum of electronic and thermal Enthalpies=            -100.755464
 Sum of electronic and thermal Free Energies=         -100.782213

                     E (Thermal)             CV                S
                      KCal/Mol        Cal/Mol-Kelvin    Cal/Mol-Kelvin
 Total                    2.720              8.765             56.299
 Electronic               0.000              0.000              1.377
 Translational            0.889              2.981             35.068
 Rotational               0.592              1.987             14.604
 Vibrational              1.239              3.797              5.250
 Vibration     1          0.619              1.898              2.625
 Vibration     2          0.619              1.898              2.625

 Normal termination of Gaussian 16 at Fri Aug 22 21:17:50 2025.
