 Gaussian 16, Revision C.01,
 Gaussian 16:  ES64L-G16RevC.01  3-Jul-2019

 -----------------------------------------
 # sp b3lyp/6-311g** Force nosymm scf=(qc)
 -----------------------------------------

 -------------------
 Title Card Required
 -------------------
 Symbolic Z-matrix:
 Charge =  0 Multiplicity = 2

                          Input orientation:
 ---------------------------------------------------------------------
 Center     Atomic      Atomic             Coordinates (Angstroms)
 Number     Number       Type             X           Y           Z
 ---------------------------------------------------------------------
      1          1           0        0.000000    0.000000    0.000000
      2          1           0       -0.850000    0.000000    0.000000
      3          9           0        2.350000    0.000000    0.000000
 ---------------------------------------------------------------------

 SCF Done:  E(UB3LYP) =  -100.928226049     a.u. after    6 cycles

 Alpha  occ. eigenvalues --  -24.75669  -1.21618  -0.54976  -0.46021  -0.46021
 Alpha  occ. eigenvalues --   -0.42246
 Alpha virt. eigenvalues --    0.04043   0.20586   0.43740   0.89602   0.91067
 Alpha virt. eigenvalues --    0.91067   1.07245   1.07245   1.12344   1.49580
 Alpha virt. eigenvalues --    1.74575   1.74575   2.11759   2.38305   2.86590

  Beta  occ. eigenvalues --  -24.72574  -1.12742  -0.42923  -0.42923  -0.42197
  Beta virt. eigenvalues --   -0.26062   0.04624   0.20945   0.44041   0.92521
  Beta virt. eigenvalues --    0.92521   0.97933   1.07517   1.07517   1.16435
  Beta virt. eigenvalues --    1.50135   1.74746   1.74746   2.12035   2.38590

 Mulliken charges and spin densities:
               1          2
     1  H   -0.010348  -0.015505
     2  H    0.022510   0.038234
     3  F   -0.012162   0.977270
 Sum of Mulliken charges =   0.00000   1.00000

 Dipole moment (field-independent basis, Debye):
    X=             -0.2353    Y=              0.0000    Z=             -0.0000  Tot=              0.2353
 Quadrupole moment (field-independent basis, Debye-Ang):
   XX=             -5.7746   YY=             -7.0710   ZZ=             -7.0710
   XY=              0.0000   XZ=             -0.0000   YZ=             -0.0000

  Exact polarizability:      17.701       0.000       2.043      -0.000      -0.000       2.043
 Approx polarizability:      19.527      -0.000       2.115       0.000       0.000       2.115

 ******    1 imaginary frequencies (negative Signs) ******

                      1                      2                      3
                      A                      A                      A
 Frequencies --   -179.3372              1306.9726              1306.9726
 Red. masses --      1.1085                 1.0101                 1.0101
 Frc consts  --      0.0210                 1.0166                 1.0166
 IR Inten    --     10.4360                 0.4636                 0.4636

                      4
                      A
 Frequencies --   3089.4412
 Red. masses --      1.0078
 Frc consts  --      5.6676
 IR Inten    --    101.0278

 - Thermochemistry -
 -------------------
 Temperature   298.150 Kelvin.  Pressure   1.00000 Atm.
 Atom     1 has atomic number  1 and mass   1.00783

 Molecular mass:    21.01405 amu.
 Principal axes and moments of inertia in atomic units:
                           1         2         3
     Eigenvalues --     0.00000  51.41265  51.41265
           X            1.00000  -0.00000   0.00000
           Y            0.00000   1.00000   0.00000
           Z            0.00000   0.00000   1.00000
 This molecule is a prolate symmetric top.
 Rotational symmetry number  1.
 Rotational temperature (Kelvin)      1.68468
 Rotational constant (GHZ):          35.103059
    1 imaginary frequencies ignored.
 Zero-point vibrational energy      34113.8 (Joules/Mol)
                                    8.15340 (Kcal/Mol)
 Vibrational temperatures:   1880.44  1880.44  4445.02
          (Kelvin)

 Zero-point correction=                           0.012993 (Hartree/Particle)
 Thermal correction to Energy=                    0.015375
 Thermal correction to Enthalpy=                  0.016320
 Thermal correction to Gibbs Free Energy=        -0.006853
 Sum of electronic and zero-point Energies=           -100.915233
 Sum of electronic and thermal Energies=              -100.912851
 Sum of electronic and thermal Enthalpies=            -100.911906
 Sum of electronic and thermal Free Energies=         -100.935079

                     E (Thermal)             CV                S
                      KCal/Mol        Cal/Mol-Kelvin    Cal/Mol-Kelvin
 Total                    9.648              5.257             48.772
 Electronic               0.000              0.000              1.377
 Translational            0.889              2.981             35.068
 Rotational               0.592              1.987             12.273
 Vibrational              8.167              0.289              0.053

 Normal termination of Gaussian 16 at Fri Aug 22 17:25:11 2025.
