 Gaussian 16, Revision C.01,
 Gaussian 16:  ES64L-G16RevC.01  3-Jul-2019

 -----------------------------------------
 # sp b3lyp/6-311g** Force nosymm scf=(qc)
 -----------------------------------------

 -------------------
 Title Card Required
 -------------------
 Symbolic Z-matrix:
 Charge =  0 Multiplicity = 2

                          Input orientation:
 ---------------------------------------------------------------------
 Center     Atomic      Atomic             Coordinates (Angstroms)
 Number     Number       Type             X           Y           Z
 ---------------------------------------------------------------------
      1          1           0        0.000000    0.000000    0.000000
      2          1           0       -1.350000    0.000000    0.000000
      3          9           0        1.050000    0.000000    0.000000
 ---------------------------------------------------------------------

 SCF Done:  E(UB3LYP) =  -100.960712096     a.u. after    6 cycles

 Alpha  occ. eigenvalues --  -24.63644  -1.14827  -0.53021  -0.38051  -0.38051
 Alpha  occ. eigenvalues --   -0.37307
 Alpha virt. eigenvalues --    0.07834   0.20058   0.34144   0.93376   0.93376
 Alpha virt. eigenvalues --    0.99235   1.12461   1.12461   1.21493   1.45738
 Alpha virt. eigenvalues --    1.45738   1.54411   2.06580   2.32361   2.50700

  Beta  occ. eigenvalues --  -24.63154  -1.13600  -0.49853  -0.37613  -0.37613
  Beta virt. eigenvalues --   -0.17742   0.10394   0.24467   0.38242   0.93820
  Beta virt. eigenvalues --    0.93820   1.00289   1.21247   1.21247   1.29032
  Beta virt. eigenvalues --    1.50763   1.50763   1.57358   2.20112   2.31904

 Mulliken charges and spin densities:
               1          2
     1  H    0.293586  -0.016015
     2  H    0.041041   0.882787
     3  F   -0.334628   0.133228
 Sum of Mulliken charges =   0.00000   1.00000

 Dipole moment (field-independent basis, Debye):
    X=             -2.3691    Y=              0.0000    Z=             -0.0000  Tot=              2.3691
 Quadrupole moment (field-independent basis, Debye-Ang):
   XX=             -7.7244   YY=             -6.8379   ZZ=             -6.8379
   XY=             -0.0000   XZ=             -0.0000   YZ=             -0.0000

  Exact polarizability:      15.297       0.000       2.525      -0.000       0.000       2.525
 Approx polarizability:      17.554       0.000       2.522      -0.000       0.000       2.522

 ******    1 imaginary frequencies (negative Signs) ******

                      1                      2                      3
                      A                      A                      A
 Frequencies --   -393.5651               950.9452               950.9452
 Red. masses --      1.0287                 1.0213                 1.0213
 Frc consts  --      0.0939                 0.5441                 0.5441
 IR Inten    --      0.0009                79.5989                79.5989

                      4
                      A
 Frequencies --   1942.5390
 Red. masses --      1.0843
 Frc consts  --      2.4107
 IR Inten    --    120.9427

 - Thermochemistry -
 -------------------
 Temperature   298.150 Kelvin.  Pressure   1.00000 Atm.
 Atom     1 has atomic number  1 and mass   1.00783

 Molecular mass:    21.01405 amu.
 Principal axes and moments of inertia in atomic units:
                           1         2         3
     Eigenvalues --     0.00000  22.64374  22.64374
           X            1.00000  -0.00000   0.00000
           Y            0.00000   1.00000   0.00000
           Z            0.00000   0.00000   1.00000
 This molecule is a prolate symmetric top.
 Rotational symmetry number  1.
 Rotational temperature (Kelvin)      3.82507
 Rotational constant (GHZ):          79.701543
    1 imaginary frequencies ignored.
 Zero-point vibrational energy      22994.8 (Joules/Mol)
                                    5.49589 (Kcal/Mol)
 Vibrational temperatures:   1368.20  1368.20  2794.88
          (Kelvin)

 Zero-point correction=                           0.008758 (Hartree/Particle)
 Thermal correction to Energy=                    0.011208
 Thermal correction to Enthalpy=                  0.012153
 Thermal correction to Gibbs Free Energy=        -0.010330
 Sum of electronic and zero-point Energies=           -100.951954
 Sum of electronic and thermal Energies=              -100.949504
 Sum of electronic and thermal Enthalpies=            -100.948559
 Sum of electronic and thermal Free Energies=         -100.971042

                     E (Thermal)             CV                S
                      KCal/Mol        Cal/Mol-Kelvin    Cal/Mol-Kelvin
 Total                    7.033              5.851             47.319
 Electronic               0.000              0.000              1.377
 Translational            0.889              2.981             35.068
 Rotational               0.592              1.987             10.644
 Vibrational              5.552              0.883              0.230

 Normal termination of Gaussian 16 at Fri Aug 22 16:02:29 2025.
