 Gaussian 16, Revision C.01,
 Gaussian 16:  ES64L-G16RevC.01  3-Jul-2019

 -----------------------------------------
 # sp b3lyp/6-311g** Force nosymm scf=(qc)
 -----------------------------------------

 -------------------
 Title Card Required
 -------------------
 Symbolic Z-matrix:
 Charge =  0 Multiplicity = 2

                          Input orientation:
 ---------------------------------------------------------------------
 Center     Atomic      Atomic             Coordinates (Angstroms)
 Number     Number       Type             X           Y           Z
 ---------------------------------------------------------------------
      1          1           0        0.000000    0.000000    0.000000
      2          1           0       -3.600000    0.000000    0.000000
      3          9           0        3.750000    0.000000    0.000000
 ---------------------------------------------------------------------

 SCF Done:  E(UB3LYP) =  -100.758718526     a.u. after   31 cycles

 Alpha  occ. eigenvalues --  -24.75707  -1.21646  -0.54831  -0.46037  -0.46037
 Alpha  occ. eigenvalues --   -0.32277
 Alpha virt. eigenvalues --   -0.06606   0.24277   0.37509   0.86953   0.91280
 Alpha virt. eigenvalues --    0.91280   1.01330   1.25224   1.25224   1.25329
 Alpha virt. eigenvalues --    1.45621   1.45808   1.45808   2.14940   2.41493

  Beta  occ. eigenvalues --  -24.72572  -1.12635  -0.42894  -0.42894  -0.32582
  Beta virt. eigenvalues --   -0.25646  -0.06296   0.24077   0.38060   0.92776
  Beta virt. eigenvalues --    0.92776   0.96232   1.05414   1.24885   1.24885
  Beta virt. eigenvalues --    1.24972   1.46102   1.46311   1.46311   2.14998

 Mulliken charges and spin densities:
               1          2
     1  H    0.005478  -0.992186
     2  H    0.000083   0.998331
     3  F   -0.005561   0.993855
 Sum of Mulliken charges =  -0.00000   1.00000

 Dipole moment (field-independent basis, Debye):
    X=             -0.1090    Y=              0.0000    Z=             -0.0000  Tot=              0.1090
 Quadrupole moment (field-independent basis, Debye-Ang):
   XX=             -7.0985   YY=             -7.6220   ZZ=             -7.6220
   XY=              0.0000   XZ=             -0.0000   YZ=             -0.0000

  Exact polarizability:      16.557      -0.000       2.030       0.000      -0.000       2.030
 Approx polarizability:      12.279       0.000       1.936      -0.000       0.000       1.936

 ******    2 imaginary frequencies (negative Signs) ******

                      1                      2                      3
                      A                      A                      A
 Frequencies --   -196.5041               -83.6506                64.2160
 Red. masses --      1.0200                 1.0942                 1.0175
 Frc consts  --      0.0232                 0.0045                 0.0025
 IR Inten    --      3.4726                 0.7741                 0.0295

                      4
                      A
 Frequencies --     64.2160
 Red. masses --      1.0175
 Frc consts  --      0.0025
 IR Inten    --      0.0295

 - Thermochemistry -
 -------------------
 Temperature   298.150 Kelvin.  Pressure   1.00000 Atm.
 Atom     1 has atomic number  1 and mass   1.00783

 Molecular mass:    21.01405 amu.
 Principal axes and moments of inertia in atomic units:
                           1         2         3
     Eigenvalues --     0.00000 223.77160 223.77160
           X            1.00000  -0.00000   0.00000
           Y            0.00000   1.00000   0.00000
           Z            0.00000   0.00000   1.00000
 This molecule is a prolate symmetric top.
 Rotational symmetry number  1.
 Rotational temperature (Kelvin)      0.38706
 Rotational constant (GHZ):           8.065104
    2 imaginary frequencies ignored.
 Zero-point vibrational energy        768.2 (Joules/Mol)
                                    0.18360 (Kcal/Mol)
 Warning -- explicit consideration of   2 degrees of freedom as
           vibrations may cause significant error
 Vibrational temperatures:     92.39    92.39
          (Kelvin)

 Zero-point correction=                           0.000293 (Hartree/Particle)
 Thermal correction to Energy=                    0.004264
 Thermal correction to Enthalpy=                  0.005208
 Thermal correction to Gibbs Free Energy=        -0.023436
 Sum of electronic and zero-point Energies=           -100.758426
 Sum of electronic and thermal Energies=              -100.754455
 Sum of electronic and thermal Enthalpies=            -100.753510
 Sum of electronic and thermal Free Energies=         -100.782155

                     E (Thermal)             CV                S
                      KCal/Mol        Cal/Mol-Kelvin    Cal/Mol-Kelvin
 Total                    2.676              8.911             60.288
 Electronic               0.000              0.000              1.377
 Translational            0.889              2.981             35.068
 Rotational               0.592              1.987             15.196
 Vibrational              1.194              3.943              8.646
 Vibration     1          0.597              1.971              4.323
 Vibration     2          0.597              1.971              4.323

 Normal termination of Gaussian 16 at Sat Aug 23 00:27:58 2025.
