 Gaussian 16, Revision C.01,
 Gaussian 16:  ES64L-G16RevC.01  3-Jul-2019

 -----------------------------------------
 # sp b3lyp/6-311g** Force nosymm scf=(qc)
 -----------------------------------------

 -------------------
 Title Card Required
 -------------------
 Symbolic Z-matrix:
 Charge =  0 Multiplicity = 2

                          Input orientation:
 ---------------------------------------------------------------------
 Center     Atomic      Atomic             Coordinates (Angstroms)
 Number     Number       Type             X           Y           Z
 ---------------------------------------------------------------------
      1          1           0        0.000000    0.000000    0.000000
      2          1           0       -3.400000    0.000000    0.000000
      3          9           0        1.450000    0.000000    0.000000
 ---------------------------------------------------------------------

 SCF Done:  E(UB3LYP) =  -100.865853321     a.u. after    8 cycles

 Alpha  occ. eigenvalues --  -24.64347  -1.09948  -0.43871  -0.36547  -0.36547
 Alpha  occ. eigenvalues --   -0.34077
 Alpha virt. eigenvalues --   -0.13192   0.20629   0.27858   0.93292   0.93292
 Alpha virt. eigenvalues --    1.03520   1.12262   1.23438   1.23438   1.23522
 Alpha virt. eigenvalues --    1.31937   1.31937   1.72502   2.13570   2.19839

  Beta  occ. eigenvalues --  -24.64325  -1.09890  -0.43814  -0.36526  -0.36526
  Beta virt. eigenvalues --   -0.13588  -0.06634   0.23715   0.38135   0.93284
  Beta virt. eigenvalues --    0.93284   1.03581   1.12307   1.31843   1.31843
  Beta virt. eigenvalues --    1.45657   1.46131   1.46131   1.72504   2.19432

 Mulliken charges and spin densities:
               1          2
     1  H    0.352472  -0.004710
     2  H    0.002258   0.997587
     3  F   -0.354731   0.007123
 Sum of Mulliken charges =   0.00000   1.00000

 Dipole moment (field-independent basis, Debye):
    X=             -2.5764    Y=              0.0000    Z=              0.0000  Tot=              2.5764
 Quadrupole moment (field-independent basis, Debye-Ang):
   XX=             -9.6829   YY=             -7.2940   ZZ=             -7.2940
   XY=              0.0000   XZ=              0.0000   YZ=              0.0000

  Exact polarizability:      14.702       0.000       2.211      -0.000      -0.000       2.211
 Approx polarizability:      25.874       0.000       2.140      -0.000      -0.000       2.140

 ******    2 imaginary frequencies (negative Signs) ******

                      1                      2                      3
                      A                      A                      A
 Frequencies --  -1103.8299               -85.9907              1052.5085
 Red. masses --      1.0572                 1.0543                 1.0306
 Frc consts  --      0.7590                 0.0046                 0.6727
 IR Inten    --     50.8437                 0.2433               120.8858

                      4
                      A
 Frequencies --   1052.5085
 Red. masses --      1.0306
 Frc consts  --      0.6727
 IR Inten    --    120.8858

 - Thermochemistry -
 -------------------
 Temperature   298.150 Kelvin.  Pressure   1.00000 Atm.
 Atom     1 has atomic number  1 and mass   1.00783

 Molecular mass:    21.01405 amu.
 Principal axes and moments of inertia in atomic units:
                           1         2         3
     Eigenvalues --     0.00000  85.37383  85.37383
           X            1.00000  -0.00000   0.00000
           Y            0.00000   1.00000   0.00000
           Z            0.00000   0.00000   1.00000
 This molecule is a prolate symmetric top.
 Rotational symmetry number  1.
 Rotational temperature (Kelvin)      1.01453
 Rotational constant (GHZ):          21.139280
    2 imaginary frequencies ignored.
 Zero-point vibrational energy      12590.8 (Joules/Mol)
                                    3.00927 (Kcal/Mol)
 Vibrational temperatures:   1514.32  1514.32
          (Kelvin)

 Zero-point correction=                           0.004796 (Hartree/Particle)
 Thermal correction to Energy=                    0.007216
 Thermal correction to Enthalpy=                  0.008160
 Thermal correction to Gibbs Free Energy=        -0.015538
 Sum of electronic and zero-point Energies=           -100.861058
 Sum of electronic and thermal Energies=              -100.858637
 Sum of electronic and thermal Enthalpies=            -100.857693
 Sum of electronic and thermal Free Energies=         -100.881391

                     E (Thermal)             CV                S
                      KCal/Mol        Cal/Mol-Kelvin    Cal/Mol-Kelvin
 Total                    4.528              5.614             49.878
 Electronic               0.000              0.000              1.377
 Translational            0.889              2.981             35.068
 Rotational               0.592              1.987             13.281
 Vibrational              3.047              0.646              0.151

 Normal termination of Gaussian 16 at Fri Aug 22 16:23:48 2025.
