 Gaussian 16, Revision C.01,
 Gaussian 16:  ES64L-G16RevC.01  3-Jul-2019

 -----------------------------------------
 # sp b3lyp/6-311g** Force nosymm scf=(qc)
 -----------------------------------------

 -------------------
 Title Card Required
 -------------------
 Symbolic Z-matrix:
 Charge =  0 Multiplicity = 2

                          Input orientation:
 ---------------------------------------------------------------------
 Center     Atomic      Atomic             Coordinates (Angstroms)
 Number     Number       Type             X           Y           Z
 ---------------------------------------------------------------------
      1          1           0        0.000000    0.000000    0.000000
      2          1           0       -3.050000    0.000000    0.000000
      3          9           0        1.700000    0.000000    0.000000
 ---------------------------------------------------------------------

 SCF Done:  E(UB3LYP) =  -100.817956878     a.u. after   15 cycles

 Alpha  occ. eigenvalues --  -24.65696  -1.11702  -0.44361  -0.37540  -0.37540
 Alpha  occ. eigenvalues --   -0.34408
 Alpha virt. eigenvalues --   -0.15100   0.21844   0.29134   0.94585   0.94585
 Alpha virt. eigenvalues --    0.96462   1.06380   1.23128   1.23128   1.23665
 Alpha virt. eigenvalues --    1.33090   1.33090   1.73231   2.13771   2.23887

  Beta  occ. eigenvalues --  -24.64194  -1.07609  -0.40173  -0.36084  -0.36084
  Beta virt. eigenvalues --   -0.18412  -0.08051   0.22638   0.36934   0.94340
  Beta virt. eigenvalues --    0.94340   0.97230   1.07799   1.25407   1.25407
  Beta virt. eigenvalues --    1.44101   1.44463   1.44463   1.69697   2.13148

 Mulliken charges and spin densities:
               1          2
     1  H    0.287500  -0.465743
     2  H    0.006242   0.992331
     3  F   -0.293742   0.473412
 Sum of Mulliken charges =   0.00000   1.00000

 Dipole moment (field-independent basis, Debye):
    X=             -2.5242    Y=             -0.0000    Z=              0.0000  Tot=              2.5242
 Quadrupole moment (field-independent basis, Debye-Ang):
   XX=             -9.9770   YY=             -7.4141   ZZ=             -7.4141
   XY=             -0.0000   XZ=             -0.0000   YZ=              0.0000

  Exact polarizability:      24.672       0.000       2.121      -0.000       0.000       2.121
 Approx polarizability:      37.657       0.000       2.021      -0.000       0.000       2.021

 ******    2 imaginary frequencies (negative Signs) ******

                      1                      2                      3
                      A                      A                      A
 Frequencies --  -1736.4476              -189.1622               767.1448
 Red. masses --      1.0564                 1.0552                 1.0263
 Frc consts  --      1.8767                 0.0222                 0.3559
 IR Inten    --    101.4513                 1.9369                74.6883

                      4
                      A
 Frequencies --    767.1448
 Red. masses --      1.0263
 Frc consts  --      0.3559
 IR Inten    --     74.6883

 - Thermochemistry -
 -------------------
 Temperature   298.150 Kelvin.  Pressure   1.00000 Atm.
 Atom     1 has atomic number  1 and mass   1.00783

 Molecular mass:    21.01405 amu.
 Principal axes and moments of inertia in atomic units:
                           1         2         3
     Eigenvalues --     0.00000  84.42289  84.42289
           X            1.00000  -0.00000   0.00000
           Y            0.00000   1.00000   0.00000
           Z            0.00000   0.00000   1.00000
 This molecule is a prolate symmetric top.
 Rotational symmetry number  1.
 Rotational temperature (Kelvin)      1.02595
 Rotational constant (GHZ):          21.377393
    2 imaginary frequencies ignored.
 Zero-point vibrational energy       9177.1 (Joules/Mol)
                                    2.19338 (Kcal/Mol)
 Vibrational temperatures:   1103.75  1103.75
          (Kelvin)

 Zero-point correction=                           0.003495 (Hartree/Particle)
 Thermal correction to Energy=                    0.006033
 Thermal correction to Enthalpy=                  0.006977
 Thermal correction to Gibbs Free Energy=        -0.016863
 Sum of electronic and zero-point Energies=           -100.814462
 Sum of electronic and thermal Energies=              -100.811924
 Sum of electronic and thermal Enthalpies=            -100.810980
 Sum of electronic and thermal Free Energies=         -100.834820

                     E (Thermal)             CV                S
                      KCal/Mol        Cal/Mol-Kelvin    Cal/Mol-Kelvin
 Total                    3.786              6.381             50.176
 Electronic               0.000              0.000              1.377
 Translational            0.889              2.981             35.068
 Rotational               0.592              1.987             13.259
 Vibrational              2.304              1.413              0.472

 Normal termination of Gaussian 16 at Fri Aug 22 16:38:25 2025.
