 Gaussian 16, Revision C.01,
 Gaussian 16:  ES64L-G16RevC.01  3-Jul-2019

 -----------------------------------------
 # sp b3lyp/6-311g** Force nosymm scf=(qc)
 -----------------------------------------

 -------------------
 Title Card Required
 -------------------
 Symbolic Z-matrix:
 Charge =  0 Multiplicity = 2

                          Input orientation:
 ---------------------------------------------------------------------
 Center     Atomic      Atomic             Coordinates (Angstroms)
 Number     Number       Type             X           Y           Z
 ---------------------------------------------------------------------
      1          1           0        0.000000    0.000000    0.000000
      2          1           0       -1.250000    0.000000    0.000000
      3          9           0        2.750000    0.000000    0.000000
 ---------------------------------------------------------------------

 SCF Done:  E(UB3LYP) =  -100.863420716     a.u. after   32 cycles

 Alpha  occ. eigenvalues --  -24.76926  -1.22721  -0.55899  -0.47216  -0.47046
 Alpha  occ. eigenvalues --   -0.35517
 Alpha virt. eigenvalues --   -0.04720   0.23556   0.34278   0.85590   0.90460
 Alpha virt. eigenvalues --    0.93173   1.05999   1.14332   1.14342   1.19307
 Alpha virt. eigenvalues --    1.52087   1.52097   2.04003   2.30973   2.55241

  Beta  occ. eigenvalues --  -24.73763  -1.13630  -0.44066  -0.43875  -0.35490
  Beta virt. eigenvalues --   -0.26514  -0.04692   0.23582   0.34374   0.91957
  Beta virt. eigenvalues --    0.94946   0.95042   1.09726   1.14332   1.14340
  Beta virt. eigenvalues --    1.19344   1.52084   1.52095   2.04008   2.30973

 Mulliken charges and spin densities:
               1          2
     1  H   -0.001354   0.000189
     2  H   -0.009819  -0.001779
     3  F    0.011173   1.001590
 Sum of Mulliken charges =   0.00000   1.00000

 Dipole moment (field-independent basis, Debye):
    X=              0.1557    Y=              0.0000    Z=              0.0000  Tot=              0.1557
 Quadrupole moment (field-independent basis, Debye-Ang):
   XX=             -6.1102   YY=             -7.5462   ZZ=             -6.7013
   XY=              0.0000   XZ=              0.0000   YZ=              0.0884

  Exact polarizability:      17.908       0.000       2.091       0.000       0.045       2.525
 Approx polarizability:      27.378       0.000       2.116       0.000       0.059       2.680

 ******    1 imaginary frequencies (negative Signs) ******

                      1                      2                      3
                      A                      A                      A
 Frequencies --   -789.9030                69.9349              1430.7138
 Red. masses --      1.0078                 1.1085                 1.0112
 Frc consts  --      0.3705                 0.0032                 1.2195
 IR Inten    --      3.0907                 1.3011                 0.0087

                      4
                      A
 Frequencies --   1452.0370
 Red. masses --      1.0112
 Frc consts  --      1.2561
 IR Inten    --      0.0064

 - Thermochemistry -
 -------------------
 Temperature   298.150 Kelvin.  Pressure   1.00000 Atm.
 Atom     1 has atomic number  1 and mass   1.00783

 Molecular mass:    21.01405 amu.
 Principal axes and moments of inertia in atomic units:
                           1         2         3
     Eigenvalues --     0.00000  76.93724  76.93724
           X            1.00000  -0.00000   0.00000
           Y            0.00000   1.00000   0.00000
           Z            0.00000   0.00000   1.00000
 This molecule is a prolate symmetric top.
 Rotational symmetry number  1.
 Rotational temperature (Kelvin)      1.12577
 Rotational constant (GHZ):          23.457318
    1 imaginary frequencies ignored.
 Zero-point vibrational energy      17661.0 (Joules/Mol)
                                    4.22108 (Kcal/Mol)
 Warning -- explicit consideration of   1 degrees of freedom as
           vibrations may cause significant error
 Vibrational temperatures:    100.62  2058.48  2089.16
          (Kelvin)

 Zero-point correction=                           0.006727 (Hartree/Particle)
 Thermal correction to Energy=                    0.009894
 Thermal correction to Enthalpy=                  0.010838
 Thermal correction to Gibbs Free Energy=        -0.014679
 Sum of electronic and zero-point Energies=           -100.856694
 Sum of electronic and thermal Energies=              -100.853527
 Sum of electronic and thermal Enthalpies=            -100.852583
 Sum of electronic and thermal Free Energies=         -100.878100

                     E (Thermal)             CV                S
                      KCal/Mol        Cal/Mol-Kelvin    Cal/Mol-Kelvin
 Total                    6.208              7.120             53.705
 Electronic               0.000              0.000              1.377
 Translational            0.889              2.981             35.068
 Rotational               0.592              1.987             13.074
 Vibrational              4.727              2.152              4.185
 Vibration     1          0.598              1.968              4.155

 Normal termination of Gaussian 16 at Fri Aug 22 18:31:02 2025.
