 Gaussian 16, Revision C.01,
 Gaussian 16:  ES64L-G16RevC.01  3-Jul-2019

 -----------------------------------------
 # sp b3lyp/6-311g** Force nosymm scf=(qc)
 -----------------------------------------

 -------------------
 Title Card Required
 -------------------
 Symbolic Z-matrix:
 Charge =  0 Multiplicity = 2

                          Input orientation:
 ---------------------------------------------------------------------
 Center     Atomic      Atomic             Coordinates (Angstroms)
 Number     Number       Type             X           Y           Z
 ---------------------------------------------------------------------
      1          1           0        0.000000    0.000000    0.000000
      2          1           0       -1.650000    0.000000    0.000000
      3          9           0        1.550000    0.000000    0.000000
 ---------------------------------------------------------------------

 SCF Done:  E(UB3LYP) =  -100.861804537     a.u. after   14 cycles

 Alpha  occ. eigenvalues --  -24.64726  -1.11179  -0.45888  -0.38317  -0.36923
 Alpha  occ. eigenvalues --   -0.36923
 Alpha virt. eigenvalues --   -0.09288   0.21654   0.28648   0.93961   0.94098
 Alpha virt. eigenvalues --    0.94098   1.03766   1.17356   1.17356   1.36874
 Alpha virt. eigenvalues --    1.36874   1.42012   1.79107   2.15042   2.36860

  Beta  occ. eigenvalues --  -24.63347  -1.07474  -0.40862  -0.35601  -0.35601
  Beta virt. eigenvalues --   -0.21084  -0.06040   0.24990   0.29990   0.94042
  Beta virt. eigenvalues --    0.94042   0.98316   1.06719   1.24948   1.24948
  Beta virt. eigenvalues --    1.38176   1.38176   1.48475   1.81850   2.18432

 Mulliken charges and spin densities:
               1          2
     1  H    0.247605  -0.253590
     2  H    0.068546   0.824022
     3  F   -0.316151   0.429568
 Sum of Mulliken charges =   0.00000   1.00000

 Dipole moment (field-independent basis, Debye):
    X=             -2.9499    Y=              0.0000    Z=             -0.0000  Tot=              2.9499
 Quadrupole moment (field-independent basis, Debye-Ang):
   XX=             -8.4008   YY=             -7.2955   ZZ=             -7.2955
   XY=              0.0000   XZ=             -0.0000   YZ=             -0.0000

  Exact polarizability:      36.832       0.000       2.247      -0.000      -0.000       2.247
 Approx polarizability:      51.797      -0.000       2.179       0.000      -0.000       2.179

 ******    2 imaginary frequencies (negative Signs) ******

                      1                      2                      3
                      A                      A                      A
 Frequencies --  -2430.0911              -511.1508               995.9038
 Red. masses --      1.0256                 1.0878                 1.0187
 Frc consts  --      3.5684                 0.1675                 0.5953
 IR Inten    --    171.8642                 0.6749                33.4865

                      4
                      A
 Frequencies --    995.9038
 Red. masses --      1.0187
 Frc consts  --      0.5953
 IR Inten    --     33.4865

 - Thermochemistry -
 -------------------
 Temperature   298.150 Kelvin.  Pressure   1.00000 Atm.
 Atom     1 has atomic number  1 and mass   1.00783

 Molecular mass:    21.01405 amu.
 Principal axes and moments of inertia in atomic units:
                           1         2         3
     Eigenvalues --     0.00000  41.60602  41.60602
           X            1.00000  -0.00000   0.00000
           Y            0.00000   1.00000   0.00000
           Z            0.00000   0.00000   1.00000
 This molecule is a prolate symmetric top.
 Rotational symmetry number  1.
 Rotational temperature (Kelvin)      2.08176
 Rotational constant (GHZ):          43.376923
    2 imaginary frequencies ignored.
 Zero-point vibrational energy      11913.7 (Joules/Mol)
                                    2.84743 (Kcal/Mol)
 Vibrational temperatures:   1432.88  1432.88
          (Kelvin)

 Zero-point correction=                           0.004538 (Hartree/Particle)
 Thermal correction to Energy=                    0.006973
 Thermal correction to Enthalpy=                  0.007917
 Thermal correction to Gibbs Free Energy=        -0.015121
 Sum of electronic and zero-point Energies=           -100.857267
 Sum of electronic and thermal Energies=              -100.854832
 Sum of electronic and thermal Enthalpies=            -100.853887
 Sum of electronic and thermal Free Energies=         -100.876926

                     E (Thermal)             CV                S
                      KCal/Mol        Cal/Mol-Kelvin    Cal/Mol-Kelvin
 Total                    4.376              5.731             48.488
 Electronic               0.000              0.000              1.377
 Translational            0.889              2.981             35.068
 Rotational               0.592              1.987             11.852
 Vibrational              2.894              0.763              0.190

 Normal termination of Gaussian 16 at Fri Aug 22 16:27:58 2025.
