 Gaussian 16, Revision C.01,
 Gaussian 16:  ES64L-G16RevC.01  3-Jul-2019

 -----------------------------------------
 # sp b3lyp/6-311g** Force nosymm scf=(qc)
 -----------------------------------------

 -------------------
 Title Card Required
 -------------------
 Symbolic Z-matrix:
 Charge =  0 Multiplicity = 2

                          Input orientation:
 ---------------------------------------------------------------------
 Center     Atomic      Atomic             Coordinates (Angstroms)
 Number     Number       Type             X           Y           Z
 ---------------------------------------------------------------------
      1          1           0        0.000000    0.000000    0.000000
      2          1           0       -3.050000    0.000000    0.000000
      3          9           0        2.800000    0.000000    0.000000
 ---------------------------------------------------------------------

 SCF Done:  E(UB3LYP) =  -100.763513716     a.u. after   20 cycles

 Alpha  occ. eigenvalues --  -24.73296  -1.19411  -0.52411  -0.44013  -0.44013
 Alpha  occ. eigenvalues --   -0.32854
 Alpha virt. eigenvalues --   -0.09568   0.24399   0.35002   0.89975   0.92745
 Alpha virt. eigenvalues --    0.92745   1.05140   1.24681   1.24681   1.25427
 Alpha virt. eigenvalues --    1.41916   1.41916   1.42818   2.15286   2.37872

  Beta  occ. eigenvalues --  -24.70326  -1.10918  -0.41044  -0.41044  -0.34302
  Beta virt. eigenvalues --   -0.24318  -0.07588   0.24639   0.36846   0.94185
  Beta virt. eigenvalues --    0.94185   0.98273   1.08652   1.23049   1.23049
  Beta virt. eigenvalues --    1.24924   1.44715   1.44797   1.44797   2.15261

 Mulliken charges and spin densities:
               1          2
     1  H    0.051963  -0.933849
     2  H    0.001911   0.993536
     3  F   -0.053874   0.940312
 Sum of Mulliken charges =  -0.00000   1.00000

 Dipole moment (field-independent basis, Debye):
    X=             -0.8011    Y=              0.0000    Z=             -0.0000  Tot=              0.8011
 Quadrupole moment (field-independent basis, Debye-Ang):
   XX=             -8.6100   YY=             -7.6089   ZZ=             -7.6089
   XY=              0.0000   XZ=             -0.0000   YZ=              0.0000

  Exact polarizability:      35.132       0.000       2.021      -0.000       0.000       2.021
 Approx polarizability:      37.857       0.000       1.922      -0.000      -0.000       1.922

 ******    2 imaginary frequencies (negative Signs) ******

                      1                      2                      3
                      A                      A                      A
 Frequencies --   -500.5338              -192.1509               187.2214
 Red. masses --      1.0365                 1.0757                 1.0190
 Frc consts  --      0.1530                 0.0234                 0.0210
 IR Inten    --     51.3374                 3.7471                 2.4518

                      4
                      A
 Frequencies --    187.2214
 Red. masses --      1.0190
 Frc consts  --      0.0210
 IR Inten    --      2.4518

 - Thermochemistry -
 -------------------
 Temperature   298.150 Kelvin.  Pressure   1.00000 Atm.
 Atom     1 has atomic number  1 and mass   1.00783

 Molecular mass:    21.01405 amu.
 Principal axes and moments of inertia in atomic units:
                           1         2         3
     Eigenvalues --     0.00000 138.46842 138.46842
           X            1.00000  -0.00000   0.00000
           Y            0.00000   1.00000   0.00000
           Z            0.00000   0.00000   1.00000
 This molecule is a prolate symmetric top.
 Rotational symmetry number  1.
 Rotational temperature (Kelvin)      0.62551
 Rotational constant (GHZ):          13.033595
    2 imaginary frequencies ignored.
 Zero-point vibrational energy       2239.7 (Joules/Mol)
                                    0.53529 (Kcal/Mol)
 Warning -- explicit consideration of   2 degrees of freedom as
           vibrations may cause significant error
 Vibrational temperatures:    269.37   269.37
          (Kelvin)

 Zero-point correction=                           0.000853 (Hartree/Particle)
 Thermal correction to Energy=                    0.004376
 Thermal correction to Enthalpy=                  0.005320
 Thermal correction to Gibbs Free Energy=        -0.020906
 Sum of electronic and zero-point Energies=           -100.762661
 Sum of electronic and thermal Energies=              -100.759138
 Sum of electronic and thermal Enthalpies=            -100.758194
 Sum of electronic and thermal Free Energies=         -100.784420

                     E (Thermal)             CV                S
                      KCal/Mol        Cal/Mol-Kelvin    Cal/Mol-Kelvin
 Total                    2.746              8.683             55.198
 Electronic               0.000              0.000              1.377
 Translational            0.889              2.981             35.068
 Rotational               0.592              1.987             14.242
 Vibrational              1.264              3.715              4.510
 Vibration     1          0.632              1.857              2.255
 Vibration     2          0.632              1.857              2.255

 Normal termination of Gaussian 16 at Fri Aug 22 18:44:09 2025.
