 Gaussian 16, Revision C.01,
 Gaussian 16:  ES64L-G16RevC.01  3-Jul-2019

 -----------------------------------------
 # sp b3lyp/6-311g** Force nosymm scf=(qc)
 -----------------------------------------

 -------------------
 Title Card Required
 -------------------
 Symbolic Z-matrix:
 Charge =  0 Multiplicity = 2

                          Input orientation:
 ---------------------------------------------------------------------
 Center     Atomic      Atomic             Coordinates (Angstroms)
 Number     Number       Type             X           Y           Z
 ---------------------------------------------------------------------
      1          1           0        0.000000    0.000000    0.000000
      2          1           0       -2.500000    0.000000    0.000000
      3          9           0        0.550000    0.000000    0.000000
 ---------------------------------------------------------------------

 SCF Done:  E(UB3LYP) =  -100.519306102     a.u. after    6 cycles

 Alpha  occ. eigenvalues --  -24.62668  -1.38399  -0.62254  -0.43601  -0.43601
 Alpha  occ. eigenvalues --   -0.34236
 Alpha virt. eigenvalues --    0.09219   0.25649   0.60015   0.91252   0.91252
 Alpha virt. eigenvalues --    0.91318   1.18338   1.23313   1.23313   1.47608
 Alpha virt. eigenvalues --    1.54157   1.54157   1.95984   2.15570   3.65676

  Beta  occ. eigenvalues --  -24.62661  -1.38378  -0.62238  -0.43598  -0.43598
  Beta virt. eigenvalues --   -0.07732   0.10525   0.38545   0.59505   0.91239
  Beta virt. eigenvalues --    0.91239   0.91425   1.31265   1.46253   1.46253
  Beta virt. eigenvalues --    1.54150   1.54150   1.58739   1.96564   2.44948

 Mulliken charges and spin densities:
               1          2
     1  H    0.193187   0.003512
     2  H    0.004506   0.994213
     3  F   -0.197692   0.002275
 Sum of Mulliken charges =   0.00000   1.00000

 Dipole moment (field-independent basis, Debye):
    X=             -1.4099    Y=              0.0000    Z=             -0.0000  Tot=              1.4099
 Quadrupole moment (field-independent basis, Debye-Ang):
   XX=             -6.6578   YY=             -6.4891   ZZ=             -6.4891
   XY=              0.0000   XZ=             -0.0000   YZ=             -0.0000

  Exact polarizability:       4.565      -0.000       2.449      -0.000       0.000       2.449
 Approx polarizability:       4.554      -0.000       2.433       0.000       0.000       2.433

 ******    2 imaginary frequencies (negative Signs) ******

                      1                      2                      3
                      A                      A                      A
 Frequencies --  -7459.2096             -7459.2096               134.5103
 Red. masses --      1.0407                 1.0407                 1.0533
 Frc consts  --     34.1165                34.1165                 0.0112
 IR Inten    --    242.2899               242.2899                 0.1303

                      4
                      A
 Frequencies --  15777.7850
 Red. masses --      1.0583
 Frc consts  --    155.2224
 IR Inten    --     97.5252

 - Thermochemistry -
 -------------------
 Temperature   298.150 Kelvin.  Pressure   1.00000 Atm.
 Atom     1 has atomic number  1 and mass   1.00783

 Molecular mass:    21.01405 amu.
 Principal axes and moments of inertia in atomic units:
                           1         2         3
     Eigenvalues --     0.00000  32.33149  32.33149
           X            1.00000  -0.00000   0.00000
           Y            0.00000   1.00000   0.00000
           Z            0.00000   0.00000   1.00000
 This molecule is a prolate symmetric top.
 Rotational symmetry number  1.
 Rotational temperature (Kelvin)      2.67893
 Rotational constant (GHZ):          55.819918
    2 imaginary frequencies ignored.
 Zero-point vibrational energy      95176.7 (Joules/Mol)
                                   22.74777 (Kcal/Mol)
 Warning -- explicit consideration of   1 degrees of freedom as
           vibrations may cause significant error
 Vibrational temperatures:    193.53 22700.71
          (Kelvin)

 Zero-point correction=                           0.036251 (Hartree/Particle)
 Thermal correction to Energy=                    0.039282
 Thermal correction to Enthalpy=                  0.040226
 Thermal correction to Gibbs Free Energy=         0.016148
 Sum of electronic and zero-point Energies=           -100.483055
 Sum of electronic and thermal Energies=              -100.480024
 Sum of electronic and thermal Enthalpies=            -100.479080
 Sum of electronic and thermal Free Energies=         -100.503158

                     E (Thermal)             CV                S
                      KCal/Mol        Cal/Mol-Kelvin    Cal/Mol-Kelvin
 Total                   24.650              6.887             50.677
 Electronic               0.000              0.000              1.377
 Translational            0.889              2.981             35.068
 Rotational               0.592              1.987             11.351
 Vibrational             23.169              1.919              2.881
 Vibration     1          0.613              1.919              2.881

 Normal termination of Gaussian 16 at Fri Aug 22 15:39:40 2025.
