 Gaussian 16, Revision C.01,
 Gaussian 16:  ES64L-G16RevC.01  3-Jul-2019

 -----------------------------------------
 # sp b3lyp/6-311g** Force nosymm scf=(qc)
 -----------------------------------------

 -------------------
 Title Card Required
 -------------------
 Symbolic Z-matrix:
 Charge =  0 Multiplicity = 2

                          Input orientation:
 ---------------------------------------------------------------------
 Center     Atomic      Atomic             Coordinates (Angstroms)
 Number     Number       Type             X           Y           Z
 ---------------------------------------------------------------------
      1          1           0        0.000000    0.000000    0.000000
      2          1           0       -2.500000    0.000000    0.000000
      3          9           0        3.800000    0.000000    0.000000
 ---------------------------------------------------------------------

 SCF Done:  E(UB3LYP) =  -100.762606915     a.u. after   35 cycles

 Alpha  occ. eigenvalues --  -24.75797  -1.21730  -0.54921  -0.46114  -0.46114
 Alpha  occ. eigenvalues --   -0.32563
 Alpha virt. eigenvalues --   -0.09265   0.25771   0.34682   0.86841   0.91219
 Alpha virt. eigenvalues --    0.91219   1.01233   1.25089   1.25089   1.26617
 Alpha virt. eigenvalues --    1.41696   1.41696   1.43302   2.15855   2.36784

  Beta  occ. eigenvalues --  -24.72658  -1.12706  -0.42968  -0.42968  -0.32736
  Beta virt. eigenvalues --   -0.25703  -0.08998   0.25595   0.35061   0.92716
  Beta virt. eigenvalues --    0.92716   0.96165   1.05341   1.24894   1.24894
  Beta virt. eigenvalues --    1.26394   1.42088   1.42088   1.43687   2.16051

 Mulliken charges and spin densities:
               1          2
     1  H    0.002967  -0.964858
     2  H    0.001256   0.969652
     3  F   -0.004223   0.995206
 Sum of Mulliken charges =   0.00000   1.00000

 Dipole moment (field-independent basis, Debye):
    X=             -0.0975    Y=              0.0000    Z=             -0.0000  Tot=              0.0975
 Quadrupole moment (field-independent basis, Debye-Ang):
   XX=             -6.7959   YY=             -7.6670   ZZ=             -7.6670
   XY=             -0.0000   XZ=              0.0000   YZ=              0.0000

  Exact polarizability:      23.879      -0.000       2.019       0.000       0.000       2.019
 Approx polarizability:      17.860      -0.000       1.931       0.000      -0.000       1.931

 ******    2 imaginary frequencies (negative Signs) ******

                      1                      2                      3
                      A                      A                      A
 Frequencies --   -662.4042               -95.3058               244.9888
 Red. masses --      1.0079                 1.1085                 1.0137
 Frc consts  --      0.2606                 0.0059                 0.0358
 IR Inten    --      1.5442                 1.7415                 0.0058

                      4
                      A
 Frequencies --    244.9888
 Red. masses --      1.0137
 Frc consts  --      0.0358
 IR Inten    --      0.0058

 - Thermochemistry -
 -------------------
 Temperature   298.150 Kelvin.  Pressure   1.00000 Atm.
 Atom     1 has atomic number  1 and mass   1.00783

 Molecular mass:    21.01405 amu.
 Principal axes and moments of inertia in atomic units:
                           1         2         3
     Eigenvalues --     0.00000 177.20670 177.20670
           X            1.00000  -0.00000   0.00000
           Y            0.00000   1.00000   0.00000
           Z            0.00000   0.00000   1.00000
 This molecule is a prolate symmetric top.
 Rotational symmetry number  1.
 Rotational temperature (Kelvin)      0.48877
 Rotational constant (GHZ):          10.184385
    2 imaginary frequencies ignored.
 Zero-point vibrational energy       2930.7 (Joules/Mol)
                                    0.70046 (Kcal/Mol)
 Warning -- explicit consideration of   2 degrees of freedom as
           vibrations may cause significant error
 Vibrational temperatures:    352.48   352.48
          (Kelvin)

 Zero-point correction=                           0.001116 (Hartree/Particle)
 Thermal correction to Energy=                    0.004464
 Thermal correction to Enthalpy=                  0.005408
 Thermal correction to Gibbs Free Energy=        -0.020587
 Sum of electronic and zero-point Energies=           -100.761491
 Sum of electronic and thermal Energies=              -100.758143
 Sum of electronic and thermal Enthalpies=            -100.757199
 Sum of electronic and thermal Free Energies=         -100.783193

                     E (Thermal)             CV                S
                      KCal/Mol        Cal/Mol-Kelvin    Cal/Mol-Kelvin
 Total                    2.801              8.510             54.710
 Electronic               0.000              0.000              1.377
 Translational            0.889              2.981             35.068
 Rotational               0.592              1.987             14.732
 Vibrational              1.320              3.542              3.533
 Vibration     1          0.660              1.771              1.766
 Vibration     2          0.660              1.771              1.766

 Normal termination of Gaussian 16 at Sat Aug 23 00:50:30 2025.
