 Gaussian 16, Revision C.01,
 Gaussian 16:  ES64L-G16RevC.01  3-Jul-2019

 -----------------------------------------
 # sp b3lyp/6-311g** Force nosymm scf=(qc)
 -----------------------------------------

 -------------------
 Title Card Required
 -------------------
 Symbolic Z-matrix:
 Charge =  0 Multiplicity = 2

                          Input orientation:
 ---------------------------------------------------------------------
 Center     Atomic      Atomic             Coordinates (Angstroms)
 Number     Number       Type             X           Y           Z
 ---------------------------------------------------------------------
      1          1           0        0.000000    0.000000    0.000000
      2          1           0       -3.600000    0.000000    0.000000
      3          9           0        2.250000    0.000000    0.000000
 ---------------------------------------------------------------------

 SCF Done:  E(UB3LYP) =  -100.774140251     a.u. after   16 cycles

 Alpha  occ. eigenvalues --  -24.67396  -1.08827  -0.38662  -0.38662  -0.36530
 Alpha  occ. eigenvalues --   -0.33011
 Alpha virt. eigenvalues --   -0.22184   0.20700   0.27884   0.92066   0.95557
 Alpha virt. eigenvalues --    0.95557   1.08239   1.21537   1.21537   1.24441
 Alpha virt. eigenvalues --    1.24441   1.24478   1.39559   2.10675   2.15715

  Beta  occ. eigenvalues --  -24.70063  -1.16363  -0.49130  -0.41309  -0.41309
  Beta virt. eigenvalues --   -0.12197  -0.04560   0.31395   0.40232   0.88596
  Beta virt. eigenvalues --    0.94403   0.94403   1.06136   1.38100   1.38100
  Beta virt. eigenvalues --    1.47992   1.47992   1.48049   1.50221   2.33028

 Mulliken charges and spin densities:
               1          2
     1  H    0.134186   0.841050
     2  H    0.000844   0.999174
     3  F   -0.135030  -0.840223
 Sum of Mulliken charges =  -0.00000   1.00000

 Dipole moment (field-independent basis, Debye):
    X=             -1.5411    Y=              0.0000    Z=              0.0000  Tot=              1.5411
 Quadrupole moment (field-independent basis, Debye-Ang):
   XX=             -9.7965   YY=             -7.5256   ZZ=             -7.5256
   XY=              0.0000   XZ=              0.0000   YZ=              0.0000

  Exact polarizability:      28.794       0.000       2.037       0.000      -0.000       2.037
 Approx polarizability:      39.581       0.000       1.927       0.000       0.000       1.927

 ******    1 imaginary frequencies (negative Signs) ******

                      1                      2                      3
                      A                      A                      A
 Frequencies --   -801.5768                66.9237               333.1685
 Red. masses --      1.0593                 1.0522                 1.0245
 Frc consts  --      0.4010                 0.0028                 0.0670
 IR Inten    --     96.2794                 0.1062                17.1954

                      4
                      A
 Frequencies --    333.1685
 Red. masses --      1.0245
 Frc consts  --      0.0670
 IR Inten    --     17.1954

 - Thermochemistry -
 -------------------
 Temperature   298.150 Kelvin.  Pressure   1.00000 Atm.
 Atom     1 has atomic number  1 and mass   1.00783

 Molecular mass:    21.01405 amu.
 Principal axes and moments of inertia in atomic units:
                           1         2         3
     Eigenvalues --     0.00000 130.06231 130.06231
           X            1.00000  -0.00000   0.00000
           Y            0.00000   1.00000   0.00000
           Z            0.00000   0.00000   1.00000
 This molecule is a prolate symmetric top.
 Rotational symmetry number  1.
 Rotational temperature (Kelvin)      0.66594
 Rotational constant (GHZ):          13.875974
    1 imaginary frequencies ignored.
 Zero-point vibrational energy       4385.9 (Joules/Mol)
                                    1.04825 (Kcal/Mol)
 Warning -- explicit consideration of   3 degrees of freedom as
           vibrations may cause significant error
 Vibrational temperatures:     96.29   479.36   479.36
          (Kelvin)

 Zero-point correction=                           0.001670 (Hartree/Particle)
 Thermal correction to Energy=                    0.005591
 Thermal correction to Enthalpy=                  0.006536
 Thermal correction to Gibbs Free Energy=        -0.020687
 Sum of electronic and zero-point Energies=           -100.772470
 Sum of electronic and thermal Energies=              -100.768549
 Sum of electronic and thermal Enthalpies=            -100.767605
 Sum of electronic and thermal Free Energies=         -100.794827

                     E (Thermal)             CV                S
                      KCal/Mol        Cal/Mol-Kelvin    Cal/Mol-Kelvin
 Total                    3.509             10.157             57.294
 Electronic               0.000              0.000              1.377
 Translational            0.889              2.981             35.068
 Rotational               0.592              1.987             14.117
 Vibrational              2.027              5.189              6.731
 Vibration     1          0.598              1.970              4.242
 Vibration     2          0.715              1.609              1.245
 Vibration     3          0.715              1.609              1.245

 Normal termination of Gaussian 16 at Fri Aug 22 17:17:54 2025.
