 Gaussian 16, Revision C.01,
 Gaussian 16:  ES64L-G16RevC.01  3-Jul-2019

 -----------------------------------------
 # sp b3lyp/6-311g** Force nosymm scf=(qc)
 -----------------------------------------

 -------------------
 Title Card Required
 -------------------
 Symbolic Z-matrix:
 Charge =  0 Multiplicity = 2

                          Input orientation:
 ---------------------------------------------------------------------
 Center     Atomic      Atomic             Coordinates (Angstroms)
 Number     Number       Type             X           Y           Z
 ---------------------------------------------------------------------
      1          1           0        0.000000    0.000000    0.000000
      2          1           0       -2.350000    0.000000    0.000000
      3          9           0        1.650000    0.000000    0.000000
 ---------------------------------------------------------------------

 SCF Done:  E(UB3LYP) =  -100.828985574     a.u. after   13 cycles

 Alpha  occ. eigenvalues --  -24.65019  -1.11005  -0.43924  -0.36962  -0.36962
 Alpha  occ. eigenvalues --   -0.36143
 Alpha virt. eigenvalues --   -0.14179   0.23463   0.27942   0.94652   0.94652
 Alpha virt. eigenvalues --    0.98706   1.06938   1.21459   1.21459   1.25719
 Alpha virt. eigenvalues --    1.33168   1.33168   1.74545   2.11956   2.23643

  Beta  occ. eigenvalues --  -24.63711  -1.07465  -0.40311  -0.35700  -0.35700
  Beta virt. eigenvalues --   -0.18423  -0.09595   0.24635   0.34127   0.94384
  Beta virt. eigenvalues --    0.94384   1.00177   1.08257   1.26886   1.26886
  Beta virt. eigenvalues --    1.40055   1.40055   1.42543   1.71936   2.13792

 Mulliken charges and spin densities:
               1          2
     1  H    0.282540  -0.373180
     2  H    0.028035   0.961378
     3  F   -0.310575   0.411802
 Sum of Mulliken charges =   0.00000   1.00000

 Dipole moment (field-independent basis, Debye):
    X=             -2.8141    Y=              0.0000    Z=             -0.0000  Tot=              2.8141
 Quadrupole moment (field-independent basis, Debye-Ang):
   XX=             -9.3441   YY=             -7.4058   ZZ=             -7.4058
   XY=             -0.0000   XZ=              0.0000   YZ=              0.0000

  Exact polarizability:      31.873      -0.000       2.147       0.000      -0.000       2.147
 Approx polarizability:      43.663       0.000       2.057      -0.000      -0.000       2.057

 ******    2 imaginary frequencies (negative Signs) ******

                      1                      2                      3
                      A                      A                      A
 Frequencies --  -1875.1410              -393.8624               827.1719
 Red. masses --      1.0482                 1.0635                 1.0227
 Frc consts  --      2.1715                 0.0972                 0.4123
 IR Inten    --     45.8003                10.8460                64.4338

                      4
                      A
 Frequencies --    827.1719
 Red. masses --      1.0227
 Frc consts  --      0.4123
 IR Inten    --     64.4338

 - Thermochemistry -
 -------------------
 Temperature   298.150 Kelvin.  Pressure   1.00000 Atm.
 Atom     1 has atomic number  1 and mass   1.00783

 Molecular mass:    21.01405 amu.
 Principal axes and moments of inertia in atomic units:
                           1         2         3
     Eigenvalues --     0.00000  61.87239  61.87239
           X            1.00000  -0.00000   0.00000
           Y            0.00000   1.00000   0.00000
           Z            0.00000   0.00000   1.00000
 This molecule is a prolate symmetric top.
 Rotational symmetry number  1.
 Rotational temperature (Kelvin)      1.39988
 Rotational constant (GHZ):          29.168764
    2 imaginary frequencies ignored.
 Zero-point vibrational energy       9895.2 (Joules/Mol)
                                    2.36500 (Kcal/Mol)
 Vibrational temperatures:   1190.12  1190.12
          (Kelvin)

 Zero-point correction=                           0.003769 (Hartree/Particle)
 Thermal correction to Energy=                    0.006271
 Thermal correction to Enthalpy=                  0.007215
 Thermal correction to Gibbs Free Energy=        -0.016284
 Sum of electronic and zero-point Energies=           -100.825217
 Sum of electronic and thermal Energies=              -100.822714
 Sum of electronic and thermal Enthalpies=            -100.821770
 Sum of electronic and thermal Free Energies=         -100.845270

                     E (Thermal)             CV                S
                      KCal/Mol        Cal/Mol-Kelvin    Cal/Mol-Kelvin
 Total                    3.935              6.182             49.459
 Electronic               0.000              0.000              1.377
 Translational            0.889              2.981             35.068
 Rotational               0.592              1.987             12.641
 Vibrational              2.454              1.214              0.373

 Normal termination of Gaussian 16 at Fri Aug 22 16:34:37 2025.
