 Gaussian 16, Revision C.01,
 Gaussian 16:  ES64L-G16RevC.01  3-Jul-2019

 -----------------------------------------
 # sp b3lyp/6-311g** Force nosymm scf=(qc)
 -----------------------------------------

 -------------------
 Title Card Required
 -------------------
 Symbolic Z-matrix:
 Charge =  0 Multiplicity = 2

                          Input orientation:
 ---------------------------------------------------------------------
 Center     Atomic      Atomic             Coordinates (Angstroms)
 Number     Number       Type             X           Y           Z
 ---------------------------------------------------------------------
      1          1           0        0.000000    0.000000    0.000000
      2          1           0       -2.650000    0.000000    0.000000
      3          9           0        3.950000    0.000000    0.000000
 ---------------------------------------------------------------------

 SCF Done:  E(UB3LYP) =  -100.761189021     a.u. after   39 cycles

 Alpha  occ. eigenvalues --  -24.75879  -1.21807  -0.55004  -0.46184  -0.46184
 Alpha  occ. eigenvalues --   -0.32458
 Alpha virt. eigenvalues --   -0.08689   0.25614   0.35324   0.86611   0.91168
 Alpha virt. eigenvalues --    0.91168   1.01099   1.25142   1.25142   1.26567
 Alpha virt. eigenvalues --    1.42738   1.42738   1.43546   2.16084   2.37832

  Beta  occ. eigenvalues --  -24.72735  -1.12765  -0.43031  -0.43031  -0.32612
  Beta virt. eigenvalues --   -0.25739  -0.08476   0.25457   0.35602   0.92666
  Beta virt. eigenvalues --    0.92666   0.95986   1.05226   1.24974   1.24974
  Beta virt. eigenvalues --    1.26379   1.43047   1.43047   1.43853   2.16156

 Mulliken charges and spin densities:
               1          2
     1  H    0.001974  -0.977218
     2  H    0.000656   0.980201
     3  F   -0.002630   0.997017
 Sum of Mulliken charges =   0.00000   1.00000

 Dipole moment (field-independent basis, Debye):
    X=             -0.0619    Y=             -0.0000    Z=              0.0000  Tot=              0.0619
 Quadrupole moment (field-independent basis, Debye-Ang):
   XX=             -6.7650   YY=             -7.6552   ZZ=             -7.6552
   XY=             -0.0000   XZ=              0.0000   YZ=             -0.0000

  Exact polarizability:      17.775      -0.000       2.024       0.000       0.000       2.024
 Approx polarizability:      13.451      -0.000       1.932       0.000       0.000       1.932

 ******    2 imaginary frequencies (negative Signs) ******

                      1                      2                      3
                      A                      A                      A
 Frequencies --   -533.7500               -77.1505               195.0554
 Red. masses --      1.0079                 1.1085                 1.0138
 Frc consts  --      0.1692                 0.0039                 0.0227
 IR Inten    --      0.6775                 0.7714                 0.0028

                      4
                      A
 Frequencies --    195.0554
 Red. masses --      1.0138
 Frc consts  --      0.0227
 IR Inten    --      0.0028

 - Thermochemistry -
 -------------------
 Temperature   298.150 Kelvin.  Pressure   1.00000 Atm.
 Atom     1 has atomic number  1 and mass   1.00783

 Molecular mass:    21.01405 amu.
 Principal axes and moments of inertia in atomic units:
                           1         2         3
     Eigenvalues --     0.00000 193.71476 193.71476
           X            1.00000  -0.00000   0.00000
           Y            0.00000   1.00000   0.00000
           Z            0.00000   0.00000   1.00000
 This molecule is a prolate symmetric top.
 Rotational symmetry number  1.
 Rotational temperature (Kelvin)      0.44712
 Rotational constant (GHZ):           9.316488
    2 imaginary frequencies ignored.
 Zero-point vibrational energy       2333.4 (Joules/Mol)
                                    0.55769 (Kcal/Mol)
 Warning -- explicit consideration of   2 degrees of freedom as
           vibrations may cause significant error
 Vibrational temperatures:    280.64   280.64
          (Kelvin)

 Zero-point correction=                           0.000889 (Hartree/Particle)
 Thermal correction to Energy=                    0.004386
 Thermal correction to Enthalpy=                  0.005330
 Thermal correction to Gibbs Free Energy=        -0.021141
 Sum of electronic and zero-point Energies=           -100.760300
 Sum of electronic and thermal Energies=              -100.756803
 Sum of electronic and thermal Enthalpies=            -100.755859
 Sum of electronic and thermal Free Energies=         -100.782330

                     E (Thermal)             CV                S
                      KCal/Mol        Cal/Mol-Kelvin    Cal/Mol-Kelvin
 Total                    2.752              8.662             55.713
 Electronic               0.000              0.000              1.377
 Translational            0.889              2.981             35.068
 Rotational               0.592              1.987             14.909
 Vibrational              1.271              3.694              4.358
 Vibration     1          0.636              1.847              2.179
 Vibration     2          0.636              1.847              2.179

 Normal termination of Gaussian 16 at Sat Aug 23 01:39:52 2025.
