 Gaussian 16, Revision C.01,
 Gaussian 16:  ES64L-G16RevC.01  3-Jul-2019

 -----------------------------------------
 # sp b3lyp/6-311g** Force nosymm scf=(qc)
 -----------------------------------------

 -------------------
 Title Card Required
 -------------------
 Symbolic Z-matrix:
 Charge =  0 Multiplicity = 2

                          Input orientation:
 ---------------------------------------------------------------------
 Center     Atomic      Atomic             Coordinates (Angstroms)
 Number     Number       Type             X           Y           Z
 ---------------------------------------------------------------------
      1          1           0        0.000000    0.000000    0.000000
      2          1           0       -3.800000    0.000000    0.000000
      3          9           0        1.100000    0.000000    0.000000
 ---------------------------------------------------------------------

 SCF Done:  E(UB3LYP) =  -100.948408214     a.u. after    6 cycles

 Alpha  occ. eigenvalues --  -24.64302  -1.13873  -0.49616  -0.38108  -0.38108
 Alpha  occ. eigenvalues --   -0.33545
 Alpha virt. eigenvalues --   -0.02509   0.22907   0.31203   0.93563   0.93563
 Alpha virt. eigenvalues --    0.99598   1.23906   1.23964   1.23964   1.28402
 Alpha virt. eigenvalues --    1.35207   1.35207   1.79404   2.13761   2.31715

  Beta  occ. eigenvalues --  -24.64301  -1.13869  -0.49613  -0.38106  -0.38106
  Beta virt. eigenvalues --   -0.05782  -0.01947   0.29372   0.39311   0.93563
  Beta virt. eigenvalues --    0.93563   0.99601   1.28384   1.35204   1.35204
  Beta virt. eigenvalues --    1.49725   1.49725   1.49738   1.79428   2.31185

 Mulliken charges and spin densities:
               1          2
     1  H    0.340602   0.000196
     2  H    0.000576   0.999367
     3  F   -0.341178   0.000436
 Sum of Mulliken charges =   0.00000   1.00000

 Dipole moment (field-independent basis, Debye):
    X=             -2.1628    Y=             -0.0000    Z=              0.0000  Tot=              2.1628
 Quadrupole moment (field-independent basis, Debye-Ang):
   XX=             -8.5799   YY=             -7.0486   ZZ=             -7.0486
   XY=             -0.0000   XZ=              0.0000   YZ=             -0.0000

  Exact polarizability:       7.732      -0.000       2.362       0.000       0.000       2.362
 Approx polarizability:      10.247      -0.000       2.326       0.000       0.000       2.326

 ******    1 imaginary frequencies (negative Signs) ******

                      1                      2                      3
                      A                      A                      A
 Frequencies --    -35.7331              1188.5077              1188.5077
 Red. masses --      1.0532                 1.0368                 1.0368
 Frc consts  --      0.0008                 0.8628                 0.8628
 IR Inten    --      0.0266               158.8748               158.8748

                      4
                      A
 Frequencies --   1941.1726
 Red. masses --      1.0584
 Frc consts  --      2.3497
 IR Inten    --     75.4356

 - Thermochemistry -
 -------------------
 Temperature   298.150 Kelvin.  Pressure   1.00000 Atm.
 Atom     1 has atomic number  1 and mass   1.00783

 Molecular mass:    21.01405 amu.
 Principal axes and moments of inertia in atomic units:
                           1         2         3
     Eigenvalues --     0.00000  84.55315  84.55315
           X            1.00000  -0.00000   0.00000
           Y            0.00000   1.00000   0.00000
           Z            0.00000   0.00000   1.00000
 This molecule is a prolate symmetric top.
 Rotational symmetry number  1.
 Rotational temperature (Kelvin)      1.02437
 Rotational constant (GHZ):          21.344459
    1 imaginary frequencies ignored.
 Zero-point vibrational energy      25828.5 (Joules/Mol)
                                    6.17316 (Kcal/Mol)
 Vibrational temperatures:   1710.00  1710.00  2792.91
          (Kelvin)

 Zero-point correction=                           0.009838 (Hartree/Particle)
 Thermal correction to Energy=                    0.012234
 Thermal correction to Enthalpy=                  0.013178
 Thermal correction to Gibbs Free Energy=        -0.010481
 Sum of electronic and zero-point Energies=           -100.938571
 Sum of electronic and thermal Energies=              -100.936174
 Sum of electronic and thermal Enthalpies=            -100.935230
 Sum of electronic and thermal Free Energies=         -100.958890

                     E (Thermal)             CV                S
                      KCal/Mol        Cal/Mol-Kelvin    Cal/Mol-Kelvin
 Total                    7.677              5.408             49.796
 Electronic               0.000              0.000              1.377
 Translational            0.889              2.981             35.068
 Rotational               0.592              1.987             13.262
 Vibrational              6.196              0.440              0.088

 Normal termination of Gaussian 16 at Fri Aug 22 16:06:30 2025.
