 Gaussian 16, Revision C.01,
 Gaussian 16:  ES64L-G16RevC.01  3-Jul-2019

 -----------------------------------------
 # sp b3lyp/6-311g** Force nosymm scf=(qc)
 -----------------------------------------

 -------------------
 Title Card Required
 -------------------
 Symbolic Z-matrix:
 Charge =  0 Multiplicity = 2

                          Input orientation:
 ---------------------------------------------------------------------
 Center     Atomic      Atomic             Coordinates (Angstroms)
 Number     Number       Type             X           Y           Z
 ---------------------------------------------------------------------
      1          1           0        0.000000    0.000000    0.000000
      2          1           0       -2.250000    0.000000    0.000000
      3          9           0        0.500000    0.000000    0.000000
 ---------------------------------------------------------------------

 SCF Done:  E(UB3LYP) =  -100.268807799     a.u. after    6 cycles

 Alpha  occ. eigenvalues --  -24.63002  -1.42322  -0.63521  -0.44298  -0.44298
 Alpha  occ. eigenvalues --   -0.34519
 Alpha virt. eigenvalues --    0.10483   0.25216   0.59509   0.89341   0.90192
 Alpha virt. eigenvalues --    0.90192   1.18948   1.23037   1.23037   1.53829
 Alpha virt. eigenvalues --    1.58533   1.58533   1.99625   2.19619   3.76670

  Beta  occ. eigenvalues --  -24.62990  -1.42284  -0.63492  -0.44293  -0.44293
  Beta virt. eigenvalues --   -0.08417   0.11856   0.37573   0.59581   0.89476
  Beta virt. eigenvalues --    0.90169   0.90169   1.31285   1.44719   1.44719
  Beta virt. eigenvalues --    1.58504   1.58504   1.63092   2.03541   2.46319

 Mulliken charges and spin densities:
               1          2
     1  H    0.110418   0.006543
     2  H    0.006743   0.991810
     3  F   -0.117160   0.001647
 Sum of Mulliken charges =   0.00000   1.00000

 Dipole moment (field-independent basis, Debye):
    X=             -1.3518    Y=             -0.0000    Z=             -0.0000  Tot=              1.3518
 Quadrupole moment (field-independent basis, Debye-Ang):
   XX=             -6.4678   YY=             -6.4243   ZZ=             -6.4243
   XY=             -0.0000   XZ=             -0.0000   YZ=              0.0000

  Exact polarizability:       4.792       0.000       2.440      -0.000      -0.000       2.440
 Approx polarizability:       4.667       0.000       2.427       0.000      -0.000       2.427

 ******    2 imaginary frequencies (negative Signs) ******

                      1                      2                      3
                      A                      A                      A
 Frequencies --  -9517.5765             -9517.5765               252.7600
 Red. masses --      1.0406                 1.0406                 1.0533
 Frc consts  --     55.5360                55.5360                 0.0396
 IR Inten    --    255.3629               255.3629                 0.0542

                      4
                      A
 Frequencies --  19158.6408
 Red. masses --      1.0583
 Frc consts  --    228.8701
 IR Inten    --     85.9736

 - Thermochemistry -
 -------------------
 Temperature   298.150 Kelvin.  Pressure   1.00000 Atm.
 Atom     1 has atomic number  1 and mass   1.00783

 Molecular mass:    21.01405 amu.
 Principal axes and moments of inertia in atomic units:
                           1         2         3
     Eigenvalues --     0.00000  26.29409  26.29409
           X            1.00000  -0.00000   0.00000
           Y            0.00000   1.00000   0.00000
           Z            0.00000   0.00000   1.00000
 This molecule is a prolate symmetric top.
 Rotational symmetry number  1.
 Rotational temperature (Kelvin)      3.29404
 Rotational constant (GHZ):          68.636753
    2 imaginary frequencies ignored.
 Zero-point vibrational energy     116106.0 (Joules/Mol)
                                   27.74999 (Kcal/Mol)
 Warning -- explicit consideration of   1 degrees of freedom as
           vibrations may cause significant error
 Vibrational temperatures:    363.67 27565.01
          (Kelvin)

 Zero-point correction=                           0.044222 (Hartree/Particle)
 Thermal correction to Energy=                    0.047065
 Thermal correction to Enthalpy=                  0.048010
 Thermal correction to Gibbs Free Energy=         0.024682
 Sum of electronic and zero-point Energies=           -100.224585
 Sum of electronic and thermal Energies=              -100.221742
 Sum of electronic and thermal Enthalpies=            -100.220798
 Sum of electronic and thermal Free Energies=         -100.244126

                     E (Thermal)             CV                S
                      KCal/Mol        Cal/Mol-Kelvin    Cal/Mol-Kelvin
 Total                   29.534              6.726             49.097
 Electronic               0.000              0.000              1.377
 Translational            0.889              2.981             35.068
 Rotational               0.592              1.987             10.941
 Vibrational             28.053              1.758              1.711
 Vibration     1          0.664              1.758              1.711

 Normal termination of Gaussian 16 at Fri Aug 22 15:37:05 2025.
