 Gaussian 16, Revision C.01,
 Gaussian 16:  ES64L-G16RevC.01  3-Jul-2019

 -----------------------------------------
 # sp b3lyp/6-311g** Force nosymm scf=(qc)
 -----------------------------------------

 -------------------
 Title Card Required
 -------------------
 Symbolic Z-matrix:
 Charge =  0 Multiplicity = 2

                          Input orientation:
 ---------------------------------------------------------------------
 Center     Atomic      Atomic             Coordinates (Angstroms)
 Number     Number       Type             X           Y           Z
 ---------------------------------------------------------------------
      1          1           0        0.000000    0.000000    0.000000
      2          1           0       -1.550000    0.000000    0.000000
      3          9           0        0.950000    0.000000    0.000000
 ---------------------------------------------------------------------

 SCF Done:  E(UB3LYP) =  -100.970884062     a.u. after    6 cycles

 Alpha  occ. eigenvalues --  -24.63542  -1.17168  -0.53623  -0.38797  -0.38797
 Alpha  occ. eigenvalues --   -0.36901
 Alpha virt. eigenvalues --    0.08797   0.21445   0.36297   0.94360   0.94360
 Alpha virt. eigenvalues --    0.98546   1.16780   1.16780   1.18479   1.40906
 Alpha virt. eigenvalues --    1.40906   1.52881   2.01177   2.28774   2.48338

  Beta  occ. eigenvalues --  -24.63324  -1.16618  -0.52187  -0.38607  -0.38607
  Beta virt. eigenvalues --   -0.14968   0.10996   0.27842   0.39714   0.94503
  Beta virt. eigenvalues --    0.94503   0.99022   1.27299   1.28226   1.28226
  Beta virt. eigenvalues --    1.46185   1.46185   1.56493   2.13940   2.30811

 Mulliken charges and spin densities:
               1          2
     1  H    0.283853   0.004021
     2  H    0.028426   0.940626
     3  F   -0.312279   0.055353
 Sum of Mulliken charges =   0.00000   1.00000

 Dipole moment (field-independent basis, Debye):
    X=             -2.1898    Y=              0.0000    Z=              0.0000  Tot=              2.1898
 Quadrupole moment (field-independent basis, Debye-Ang):
   XX=             -7.5596   YY=             -6.8047   ZZ=             -6.8047
   XY=              0.0000   XZ=              0.0000   YZ=             -0.0000

  Exact polarizability:      11.510      -0.000       2.521      -0.000       0.000       2.521
 Approx polarizability:      12.247       0.000       2.518       0.000       0.000       2.518

                      1                      2                      3
                      A                      A                      A
 Frequencies --    433.7442               515.8082               515.8082
 Red. masses --      1.0505                 1.0248                 1.0248
 Frc consts  --      0.1164                 0.1606                 0.1606
 IR Inten    --      0.0868               111.9400               111.9400

                      4
                      A
 Frequencies --   3533.8122
 Red. masses --      1.0611
 Frc consts  --      7.8069
 IR Inten    --    208.3541

 - Thermochemistry -
 -------------------
 Temperature   298.150 Kelvin.  Pressure   1.00000 Atm.
 Atom     1 has atomic number  1 and mass   1.00783

 Molecular mass:    21.01405 amu.
 Principal axes and moments of inertia in atomic units:
                           1         2         3
     Eigenvalues --     0.00000  23.68745  23.68745
           X            1.00000  -0.00000   0.00000
           Y            0.00000   1.00000   0.00000
           Z            0.00000   0.00000   1.00000
 This molecule is a prolate symmetric top.
 Rotational symmetry number  1.
 Rotational temperature (Kelvin)      3.65653
 Rotational constant (GHZ):          76.189748
 Zero-point vibrational energy      29901.7 (Joules/Mol)
                                    7.14668 (Kcal/Mol)
 Warning -- explicit consideration of   3 degrees of freedom as
           vibrations may cause significant error
 Vibrational temperatures:    624.06   742.13   742.13  5084.37
          (Kelvin)

 Zero-point correction=                           0.011389 (Hartree/Particle)
 Thermal correction to Energy=                    0.014453
 Thermal correction to Enthalpy=                  0.015397
 Thermal correction to Gibbs Free Energy=        -0.008010
 Sum of electronic and zero-point Energies=           -100.959495
 Sum of electronic and thermal Energies=              -100.956431
 Sum of electronic and thermal Enthalpies=            -100.955487
 Sum of electronic and thermal Free Energies=         -100.978894

                     E (Thermal)             CV                S
                      KCal/Mol        Cal/Mol-Kelvin    Cal/Mol-Kelvin
 Total                    9.069              8.795             49.265
 Electronic               0.000              0.000              1.377
 Translational            0.889              2.981             35.068
 Rotational               0.592              1.987             10.733
 Vibrational              7.588              3.827              2.086
 Vibration     1          0.794              1.397              0.847
 Vibration     2          0.871              1.215              0.620
 Vibration     3          0.871              1.215              0.620

 Normal termination of Gaussian 16 at Fri Aug 22 15:57:51 2025.
