 Gaussian 16, Revision C.01,
 Gaussian 16:  ES64L-G16RevC.01  3-Jul-2019

 -----------------------------------------
 # sp b3lyp/6-311g** Force nosymm scf=(qc)
 -----------------------------------------

 -------------------
 Title Card Required
 -------------------
 Symbolic Z-matrix:
 Charge =  0 Multiplicity = 2

                          Input orientation:
 ---------------------------------------------------------------------
 Center     Atomic      Atomic             Coordinates (Angstroms)
 Number     Number       Type             X           Y           Z
 ---------------------------------------------------------------------
      1          1           0        0.000000    0.000000    0.000000
      2          1           0       -1.900000    0.000000    0.000000
      3          9           0        0.950000    0.000000    0.000000
 ---------------------------------------------------------------------

 SCF Done:  E(UB3LYP) =  -100.971660902     a.u. after    6 cycles

 Alpha  occ. eigenvalues --  -24.63705  -1.17160  -0.52852  -0.38888  -0.38888
 Alpha  occ. eigenvalues --   -0.36231
 Alpha virt. eigenvalues --    0.05981   0.23670   0.35773   0.94498   0.94498
 Alpha virt. eigenvalues --    0.98212   1.14280   1.20814   1.20814   1.37226
 Alpha virt. eigenvalues --    1.37226   1.51484   1.91661   2.23090   2.35484

  Beta  occ. eigenvalues --  -24.63616  -1.16937  -0.52338  -0.38811  -0.38811
  Beta virt. eigenvalues --   -0.12745   0.08208   0.32931   0.36836   0.94517
  Beta virt. eigenvalues --    0.94517   0.98631   1.23775   1.35248   1.35248
  Beta virt. eigenvalues --    1.41884   1.41884   1.58624   1.97232   2.34657

 Mulliken charges and spin densities:
               1          2
     1  H    0.291619   0.006353
     2  H    0.018281   0.970376
     3  F   -0.309900   0.023271
 Sum of Mulliken charges =   0.00000   1.00000

 Dipole moment (field-independent basis, Debye):
    X=             -2.1457    Y=             -0.0000    Z=              0.0000  Tot=              2.1457
 Quadrupole moment (field-independent basis, Debye-Ang):
   XX=             -7.6228   YY=             -6.8645   ZZ=             -6.8645
   XY=             -0.0000   XZ=              0.0000   YZ=              0.0000

  Exact polarizability:      10.138      -0.000       2.482      -0.000      -0.000       2.482
 Approx polarizability:      10.835      -0.000       2.469       0.000      -0.000       2.469

                      1                      2                      3
                      A                      A                      A
 Frequencies --    216.0185               616.4390               616.4390
 Red. masses --      1.0523                 1.0281                 1.0281
 Frc consts  --      0.0289                 0.2302                 0.2302
 IR Inten    --      2.1164               135.4978               135.4978

                      4
                      A
 Frequencies --   3628.2400
 Red. masses --      1.0592
 Frc consts  --      8.2156
 IR Inten    --    193.7176

 - Thermochemistry -
 -------------------
 Temperature   298.150 Kelvin.  Pressure   1.00000 Atm.
 Atom     1 has atomic number  1 and mass   1.00783

 Molecular mass:    21.01405 amu.
 Principal axes and moments of inertia in atomic units:
                           1         2         3
     Eigenvalues --     0.00000  29.98861  29.98861
           X            1.00000  -0.00000   0.00000
           Y            0.00000   1.00000   0.00000
           Z            0.00000   0.00000   1.00000
 This molecule is a prolate symmetric top.
 Rotational symmetry number  1.
 Rotational temperature (Kelvin)      2.88823
 Rotational constant (GHZ):          60.180892
 Zero-point vibrational energy      30368.0 (Joules/Mol)
                                    7.25813 (Kcal/Mol)
 Warning -- explicit consideration of   3 degrees of freedom as
           vibrations may cause significant error
 Vibrational temperatures:    310.80   886.92   886.92  5220.23
          (Kelvin)

 Zero-point correction=                           0.011567 (Hartree/Particle)
 Thermal correction to Energy=                    0.014765
 Thermal correction to Enthalpy=                  0.015710
 Thermal correction to Gibbs Free Energy=        -0.008277
 Sum of electronic and zero-point Energies=           -100.960094
 Sum of electronic and thermal Energies=              -100.956896
 Sum of electronic and thermal Enthalpies=            -100.955951
 Sum of electronic and thermal Free Energies=         -100.979938

                     E (Thermal)             CV                S
                      KCal/Mol        Cal/Mol-Kelvin    Cal/Mol-Kelvin
 Total                    9.265              8.779             50.484
 Electronic               0.000              0.000              1.377
 Translational            0.889              2.981             35.068
 Rotational               0.592              1.987             11.202
 Vibrational              7.784              3.811              2.837
 Vibration     1          0.645              1.817              1.992
 Vibration     2          0.976              0.997              0.422
 Vibration     3          0.976              0.997              0.422

 Normal termination of Gaussian 16 at Fri Aug 22 15:58:05 2025.
