 Gaussian 16, Revision C.01,
 Gaussian 16:  ES64L-G16RevC.01  3-Jul-2019

 -----------------------------------------
 # sp b3lyp/6-311g** Force nosymm scf=(qc)
 -----------------------------------------

 -------------------
 Title Card Required
 -------------------
 Symbolic Z-matrix:
 Charge =  0 Multiplicity = 2

                          Input orientation:
 ---------------------------------------------------------------------
 Center     Atomic      Atomic             Coordinates (Angstroms)
 Number     Number       Type             X           Y           Z
 ---------------------------------------------------------------------
      1          1           0        0.000000    0.000000    0.000000
      2          1           0       -2.400000    0.000000    0.000000
      3          9           0        1.800000    0.000000    0.000000
 ---------------------------------------------------------------------

 SCF Done:  E(UB3LYP) =  -100.808722188     a.u. after   20 cycles

 Alpha  occ. eigenvalues --  -24.66362  -1.12578  -0.45260  -0.38135  -0.38135
 Alpha  occ. eigenvalues --   -0.35665
 Alpha virt. eigenvalues --   -0.14356   0.23673   0.29236   0.93527   0.94967
 Alpha virt. eigenvalues --    0.94967   1.06330   1.21998   1.21998   1.25677
 Alpha virt. eigenvalues --    1.33765   1.33765   1.69881   2.12674   2.26195

  Beta  occ. eigenvalues --  -24.64443  -1.07293  -0.39007  -0.36263  -0.36263
  Beta virt. eigenvalues --   -0.19526  -0.10103   0.24571   0.34194   0.94896
  Beta virt. eigenvalues --    0.95026   0.95026   1.08559   1.24303   1.24303
  Beta virt. eigenvalues --    1.40261   1.40261   1.42398   1.65539   2.13206

 Mulliken charges and spin densities:
               1          2
     1  H    0.231059  -0.565517
     2  H    0.024889   0.962214
     3  F   -0.255948   0.603303
 Sum of Mulliken charges =   0.00000   1.00000

 Dipole moment (field-independent basis, Debye):
    X=             -2.5380    Y=              0.0000    Z=             -0.0000  Tot=              2.5380
 Quadrupole moment (field-independent basis, Debye-Ang):
   XX=             -9.3898   YY=             -7.4675   ZZ=             -7.4675
   XY=             -0.0000   XZ=              0.0000   YZ=              0.0000

  Exact polarizability:      35.597      -0.000       2.101      -0.000       0.000       2.101
 Approx polarizability:      45.539       0.000       1.998       0.000       0.000       1.998

 ******    2 imaginary frequencies (negative Signs) ******

                      1                      2                      3
                      A                      A                      A
 Frequencies --  -1584.0021              -421.0810               669.9103
 Red. masses --      1.0466                 1.0651                 1.0218
 Frc consts  --      1.5471                 0.1113                 0.2702
 IR Inten    --     90.1847                14.4262                42.7735

                      4
                      A
 Frequencies --    669.9103
 Red. masses --      1.0218
 Frc consts  --      0.2702
 IR Inten    --     42.7735

 - Thermochemistry -
 -------------------
 Temperature   298.150 Kelvin.  Pressure   1.00000 Atm.
 Atom     1 has atomic number  1 and mass   1.00783

 Molecular mass:    21.01405 amu.
 Principal axes and moments of inertia in atomic units:
                           1         2         3
     Eigenvalues --     0.00000  68.93345  68.93345
           X            1.00000  -0.00000   0.00000
           Y            0.00000   1.00000   0.00000
           Z            0.00000   0.00000   1.00000
 This molecule is a prolate symmetric top.
 Rotational symmetry number  1.
 Rotational temperature (Kelvin)      1.25649
 Rotational constant (GHZ):          26.180921
    2 imaginary frequencies ignored.
 Zero-point vibrational energy       8013.9 (Joules/Mol)
                                    1.91537 (Kcal/Mol)
 Vibrational temperatures:    963.85   963.85
          (Kelvin)

 Zero-point correction=                           0.003052 (Hartree/Particle)
 Thermal correction to Energy=                    0.005664
 Thermal correction to Enthalpy=                  0.006608
 Thermal correction to Gibbs Free Energy=        -0.017144
 Sum of electronic and zero-point Energies=           -100.805670
 Sum of electronic and thermal Energies=              -100.803059
 Sum of electronic and thermal Enthalpies=            -100.802114
 Sum of electronic and thermal Free Energies=         -100.825866

                     E (Thermal)             CV                S
                      KCal/Mol        Cal/Mol-Kelvin    Cal/Mol-Kelvin
 Total                    3.554              6.744             49.989
 Electronic               0.000              0.000              1.377
 Translational            0.889              2.981             35.068
 Rotational               0.592              1.987             12.856
 Vibrational              2.073              1.776              0.688

 Normal termination of Gaussian 16 at Fri Aug 22 16:43:54 2025.
