 Gaussian 16, Revision C.01,
 Gaussian 16:  ES64L-G16RevC.01  3-Jul-2019

 -----------------------------------------
 # sp b3lyp/6-311g** Force nosymm scf=(qc)
 -----------------------------------------

 -------------------
 Title Card Required
 -------------------
 Symbolic Z-matrix:
 Charge =  0 Multiplicity = 2

                          Input orientation:
 ---------------------------------------------------------------------
 Center     Atomic      Atomic             Coordinates (Angstroms)
 Number     Number       Type             X           Y           Z
 ---------------------------------------------------------------------
      1          1           0        0.000000    0.000000    0.000000
      2          1           0       -3.650000    0.000000    0.000000
      3          9           0        3.150000    0.000000    0.000000
 ---------------------------------------------------------------------

 SCF Done:  E(UB3LYP) =  -100.760111546     a.u. after   23 cycles

 Alpha  occ. eigenvalues --  -24.74571  -1.20596  -0.53692  -0.45082  -0.45082
 Alpha  occ. eigenvalues --   -0.32439
 Alpha virt. eigenvalues --   -0.07521   0.24027   0.36445   0.88837   0.91982
 Alpha virt. eigenvalues --    0.91982   1.03100   1.25062   1.25062   1.25150
 Alpha virt. eigenvalues --    1.44722   1.44722   1.44990   2.14704   2.40972

  Beta  occ. eigenvalues --  -24.71511  -1.11815  -0.42017  -0.42017  -0.33389
  Beta virt. eigenvalues --   -0.25047  -0.06302   0.23852   0.38037   0.93454
  Beta virt. eigenvalues --    0.93454   0.97698   1.06934   1.23968   1.23968
  Beta virt. eigenvalues --    1.24140   1.46134   1.46354   1.46354   2.14964

 Mulliken charges and spin densities:
               1          2
     1  H    0.027021  -0.968706
     2  H    0.000238   0.998565
     3  F   -0.027259   0.970142
 Sum of Mulliken charges =  -0.00000   1.00000

 Dipole moment (field-independent basis, Debye):
    X=             -0.4453    Y=              0.0000    Z=              0.0000  Tot=              0.4453
 Quadrupole moment (field-independent basis, Debye-Ang):
   XX=             -8.0220   YY=             -7.6130   ZZ=             -7.6130
   XY=             -0.0000   XZ=              0.0000   YZ=              0.0000

  Exact polarizability:      30.125      -0.000       2.029       0.000       0.000       2.029
 Approx polarizability:      28.430      -0.000       1.929       0.000      -0.000       1.929

 ******    2 imaginary frequencies (negative Signs) ******

                      1                      2                      3
                      A                      A                      A
 Frequencies --   -318.3183               -99.4884               108.2388
 Red. masses --      1.0463                 1.0654                 1.0198
 Frc consts  --      0.0625                 0.0062                 0.0070
 IR Inten    --     29.3030                 0.4626                 0.6825

                      4
                      A
 Frequencies --    108.2388
 Red. masses --      1.0198
 Frc consts  --      0.0070
 IR Inten    --      0.6825

 - Thermochemistry -
 -------------------
 Temperature   298.150 Kelvin.  Pressure   1.00000 Atm.
 Atom     1 has atomic number  1 and mass   1.00783

 Molecular mass:    21.01405 amu.
 Principal axes and moments of inertia in atomic units:
                           1         2         3
     Eigenvalues --     0.00000 185.04080 185.04080
           X            1.00000  -0.00000   0.00000
           Y            0.00000   1.00000   0.00000
           Z            0.00000   0.00000   1.00000
 This molecule is a prolate symmetric top.
 Rotational symmetry number  1.
 Rotational temperature (Kelvin)      0.46808
 Rotational constant (GHZ):           9.753207
    2 imaginary frequencies ignored.
 Zero-point vibrational energy       1294.8 (Joules/Mol)
                                    0.30947 (Kcal/Mol)
 Warning -- explicit consideration of   2 degrees of freedom as
           vibrations may cause significant error
 Vibrational temperatures:    155.73   155.73
          (Kelvin)

 Zero-point correction=                           0.000493 (Hartree/Particle)
 Thermal correction to Energy=                    0.004292
 Thermal correction to Enthalpy=                  0.005236
 Thermal correction to Gibbs Free Energy=        -0.022257
 Sum of electronic and zero-point Energies=           -100.759618
 Sum of electronic and thermal Energies=              -100.755820
 Sum of electronic and thermal Enthalpies=            -100.754876
 Sum of electronic and thermal Free Energies=         -100.782369

                     E (Thermal)             CV                S
                      KCal/Mol        Cal/Mol-Kelvin    Cal/Mol-Kelvin
 Total                    2.693              8.853             57.864
 Electronic               0.000              0.000              1.377
 Translational            0.889              2.981             35.068
 Rotational               0.592              1.987             14.818
 Vibrational              1.212              3.885              6.601
 Vibration     1          0.606              1.943              3.300
 Vibration     2          0.606              1.943              3.300

 Normal termination of Gaussian 16 at Fri Aug 22 20:11:57 2025.
