 Gaussian 16, Revision C.01,
 Gaussian 16:  ES64L-G16RevC.01  3-Jul-2019

 -----------------------------------------
 # sp b3lyp/6-311g** Force nosymm scf=(qc)
 -----------------------------------------

 -------------------
 Title Card Required
 -------------------
 Symbolic Z-matrix:
 Charge =  0 Multiplicity = 2

                          Input orientation:
 ---------------------------------------------------------------------
 Center     Atomic      Atomic             Coordinates (Angstroms)
 Number     Number       Type             X           Y           Z
 ---------------------------------------------------------------------
      1          1           0        0.000000    0.000000    0.000000
      2          1           0       -3.400000    0.000000    0.000000
      3          9           0        3.400000    0.000000    0.000000
 ---------------------------------------------------------------------

 SCF Done:  E(UB3LYP) =  -100.759454042     a.u. after   26 cycles

 Alpha  occ. eigenvalues --  -24.75202  -1.21179  -0.54324  -0.45611  -0.45611
 Alpha  occ. eigenvalues --   -0.32387
 Alpha virt. eigenvalues --   -0.07333   0.24348   0.36675   0.87933   0.91595
 Alpha virt. eigenvalues --    0.91595   1.02104   1.25121   1.25121   1.25339
 Alpha virt. eigenvalues --    1.44825   1.44846   1.44846   2.15129   2.40865

  Beta  occ. eigenvalues --  -24.72100  -1.12269  -0.42503  -0.42503  -0.32966
  Beta virt. eigenvalues --   -0.25388  -0.06663   0.24121   0.37763   0.93081
  Beta virt. eigenvalues --    0.93081   0.97001   1.06074   1.24453   1.24453
  Beta virt. eigenvalues --    1.24652   1.45666   1.45909   1.45909   2.15408

 Mulliken charges and spin densities:
               1          2
     1  H    0.014729  -0.980802
     2  H    0.000287   0.997303
     3  F   -0.015016   0.983500
 Sum of Mulliken charges =  -0.00000   1.00000

 Dipole moment (field-independent basis, Debye):
    X=             -0.2672    Y=             -0.0000    Z=              0.0000  Tot=              0.2672
 Quadrupole moment (field-independent basis, Debye-Ang):
   XX=             -7.5404   YY=             -7.6222   ZZ=             -7.6222
   XY=             -0.0000   XZ=              0.0000   YZ=              0.0000

  Exact polarizability:      26.458      -0.000       2.032       0.000       0.000       2.032
 Approx polarizability:      21.800      -0.000       1.932       0.000       0.000       1.932

 ******    2 imaginary frequencies (negative Signs) ******

                      1                      2                      3
                      A                      A                      A
 Frequencies --   -276.1177              -116.0979                90.2120
 Red. masses --      1.0272                 1.0860                 1.0179
 Frc consts  --      0.0461                 0.0086                 0.0049
 IR Inten    --     14.1335                 1.7941                 0.1936

                      4
                      A
 Frequencies --     90.2121
 Red. masses --      1.0179
 Frc consts  --      0.0049
 IR Inten    --      0.1936

 - Thermochemistry -
 -------------------
 Temperature   298.150 Kelvin.  Pressure   1.00000 Atm.
 Atom     1 has atomic number  1 and mass   1.00783

 Molecular mass:    21.01405 amu.
 Principal axes and moments of inertia in atomic units:
                           1         2         3
     Eigenvalues --     0.00000 190.06467 190.06467
           X            1.00000  -0.00000   0.00000
           Y            0.00000   1.00000   0.00000
           Z            0.00000   0.00000   1.00000
 This molecule is a prolate symmetric top.
 Rotational symmetry number  1.
 Rotational temperature (Kelvin)      0.45571
 Rotational constant (GHZ):           9.495406
    2 imaginary frequencies ignored.
 Zero-point vibrational energy       1079.2 (Joules/Mol)
                                    0.25793 (Kcal/Mol)
 Warning -- explicit consideration of   2 degrees of freedom as
           vibrations may cause significant error
 Vibrational temperatures:    129.79   129.80
          (Kelvin)

 Zero-point correction=                           0.000411 (Hartree/Particle)
 Thermal correction to Energy=                    0.004279
 Thermal correction to Enthalpy=                  0.005223
 Thermal correction to Gibbs Free Energy=        -0.022633
 Sum of electronic and zero-point Energies=           -100.759043
 Sum of electronic and thermal Energies=              -100.755175
 Sum of electronic and thermal Enthalpies=            -100.754231
 Sum of electronic and thermal Free Energies=         -100.782087

                     E (Thermal)             CV                S
                      KCal/Mol        Cal/Mol-Kelvin    Cal/Mol-Kelvin
 Total                    2.685              8.880             58.628
 Electronic               0.000              0.000              1.377
 Translational            0.889              2.981             35.068
 Rotational               0.592              1.987             14.871
 Vibrational              1.204              3.912              7.311
 Vibration     1          0.602              1.956              3.655
 Vibration     2          0.602              1.956              3.655

 Normal termination of Gaussian 16 at Fri Aug 22 21:18:33 2025.
