 Gaussian 16, Revision C.01,
 Gaussian 16:  ES64L-G16RevC.01  3-Jul-2019

 -----------------------------------------
 # sp b3lyp/6-311g** Force nosymm scf=(qc)
 -----------------------------------------

 -------------------
 Title Card Required
 -------------------
 Symbolic Z-matrix:
 Charge =  0 Multiplicity = 2

                          Input orientation:
 ---------------------------------------------------------------------
 Center     Atomic      Atomic             Coordinates (Angstroms)
 Number     Number       Type             X           Y           Z
 ---------------------------------------------------------------------
      1          1           0        0.000000    0.000000    0.000000
      2          1           0       -3.650000    0.000000    0.000000
      3          9           0        2.750000    0.000000    0.000000
 ---------------------------------------------------------------------

 SCF Done:  E(UB3LYP) =  -100.763283265     a.u. after   23 cycles

 Alpha  occ. eigenvalues --  -24.73048  -1.19182  -0.52163  -0.43806  -0.43806
 Alpha  occ. eigenvalues --   -0.32656
 Alpha virt. eigenvalues --   -0.08953   0.23720   0.35867   0.89914   0.92887
 Alpha virt. eigenvalues --    0.92887   1.05317   1.24848   1.24848   1.24939
 Alpha virt. eigenvalues --    1.42664   1.42664   1.43939   2.14486   2.39002

  Beta  occ. eigenvalues --  -24.70096  -1.10746  -0.40857  -0.40857  -0.34441
  Beta virt. eigenvalues --   -0.24164  -0.06408   0.23884   0.38017   0.94320
  Beta virt. eigenvalues --    0.94320   0.97946   1.08552   1.22876   1.22876
  Beta virt. eigenvalues --    1.25004   1.46058   1.46300   1.46300   2.13899

 Mulliken charges and spin densities:
               1          2
     1  H    0.058997  -0.932885
     2  H    0.000438   0.998583
     3  F   -0.059435   0.934301
 Sum of Mulliken charges =  -0.00000   1.00000

 Dipole moment (field-independent basis, Debye):
    X=             -0.8447    Y=             -0.0000    Z=             -0.0000  Tot=              0.8447
 Quadrupole moment (field-independent basis, Debye-Ang):
   XX=             -8.8360   YY=             -7.5928   ZZ=             -7.5928
   XY=             -0.0000   XZ=             -0.0000   YZ=             -0.0000

  Exact polarizability:      31.760       0.000       2.024       0.000      -0.000       2.024
 Approx polarizability:      36.592       0.000       1.923       0.000       0.000       1.923

 ******    2 imaginary frequencies (negative Signs) ******

                      1                      2                      3
                      A                      A                      A
 Frequencies --   -477.7918              -102.0985               175.9341
 Red. masses --      1.0533                 1.0583                 1.0217
 Frc consts  --      0.1417                 0.0065                 0.0186
 IR Inten    --     58.8779                 0.2134                 3.3361

                      4
                      A
 Frequencies --    175.9342
 Red. masses --      1.0217
 Frc consts  --      0.0186
 IR Inten    --      3.3361

 - Thermochemistry -
 -------------------
 Temperature   298.150 Kelvin.  Pressure   1.00000 Atm.
 Atom     1 has atomic number  1 and mass   1.00783

 Molecular mass:    21.01405 amu.
 Principal axes and moments of inertia in atomic units:
                           1         2         3
     Eigenvalues --     0.00000 160.18181 160.18181
           X            1.00000  -0.00000   0.00000
           Y            0.00000   1.00000   0.00000
           Z            0.00000   0.00000   1.00000
 This molecule is a prolate symmetric top.
 Rotational symmetry number  1.
 Rotational temperature (Kelvin)      0.54072
 Rotational constant (GHZ):          11.266830
    2 imaginary frequencies ignored.
 Zero-point vibrational energy       2104.6 (Joules/Mol)
                                    0.50302 (Kcal/Mol)
 Warning -- explicit consideration of   2 degrees of freedom as
           vibrations may cause significant error
 Vibrational temperatures:    253.13   253.13
          (Kelvin)

 Zero-point correction=                           0.000802 (Hartree/Particle)
 Thermal correction to Energy=                    0.004361
 Thermal correction to Enthalpy=                  0.005305
 Thermal correction to Gibbs Free Energy=        -0.021169
 Sum of electronic and zero-point Energies=           -100.762482
 Sum of electronic and thermal Energies=              -100.758922
 Sum of electronic and thermal Enthalpies=            -100.757978
 Sum of electronic and thermal Free Energies=         -100.784452

                     E (Thermal)             CV                S
                      KCal/Mol        Cal/Mol-Kelvin    Cal/Mol-Kelvin
 Total                    2.737              8.712             55.719
 Electronic               0.000              0.000              1.377
 Translational            0.889              2.981             35.068
 Rotational               0.592              1.987             14.531
 Vibrational              1.255              3.744              4.742
 Vibration     1          0.628              1.872              2.371
 Vibration     2          0.628              1.872              2.371

 Normal termination of Gaussian 16 at Fri Aug 22 18:35:19 2025.
