 Gaussian 16, Revision C.01,
 Gaussian 16:  ES64L-G16RevC.01  3-Jul-2019

 -----------------------------------------
 # sp b3lyp/6-311g** Force nosymm scf=(qc)
 -----------------------------------------

 -------------------
 Title Card Required
 -------------------
 Symbolic Z-matrix:
 Charge =  0 Multiplicity = 2

                          Input orientation:
 ---------------------------------------------------------------------
 Center     Atomic      Atomic             Coordinates (Angstroms)
 Number     Number       Type             X           Y           Z
 ---------------------------------------------------------------------
      1          1           0        0.000000    0.000000    0.000000
      2          1           0       -1.500000    0.000000    0.000000
      3          9           0        2.000000    0.000000    0.000000
 ---------------------------------------------------------------------

 SCF Done:  E(UB3LYP) =  -100.835408298     a.u. after   12 cycles

 Alpha  occ. eigenvalues --  -24.69796  -1.16153  -0.49286  -0.41125  -0.41125
 Alpha  occ. eigenvalues --   -0.37935
 Alpha virt. eigenvalues --   -0.10411   0.22423   0.31114   0.85445   0.93823
 Alpha virt. eigenvalues --    0.93823   1.03013   1.16429   1.16429   1.29499
 Alpha virt. eigenvalues --    1.38966   1.38966   1.82976   2.19842   2.44241

  Beta  occ. eigenvalues --  -24.67222  -1.08912  -0.38578  -0.38578  -0.37508
  Beta virt. eigenvalues --   -0.23512  -0.08744   0.24470   0.30992   0.89572
  Beta virt. eigenvalues --    0.94824   0.94824   1.07087   1.18449   1.18449
  Beta virt. eigenvalues --    1.33942   1.39808   1.39808   1.84612   2.20781

 Mulliken charges and spin densities:
               1          2
     1  H    0.085824  -0.354183
     2  H    0.062508   0.545792
     3  F   -0.148332   0.808391
 Sum of Mulliken charges =  -0.00000   1.00000

 Dipole moment (field-independent basis, Debye):
    X=             -1.9193    Y=             -0.0000    Z=              0.0000  Tot=              1.9193
 Quadrupole moment (field-independent basis, Debye-Ang):
   XX=             -7.6879   YY=             -7.5242   ZZ=             -7.5242
   XY=             -0.0000   XZ=              0.0000   YZ=              0.0000

  Exact polarizability:      52.033      -0.000       2.117       0.000      -0.000       2.117
 Approx polarizability:      78.956       0.000       2.070      -0.000      -0.000       2.070

 ******    2 imaginary frequencies (negative Signs) ******

                      1                      2                      3
                      A                      A                      A
 Frequencies --  -2165.6010              -477.2532              1080.2528
 Red. masses --      1.0120                 1.1035                 1.0148
 Frc consts  --      2.7962                 0.1481                 0.6977
 IR Inten    --    774.3769                16.4518                 1.9263

                      4
                      A
 Frequencies --   1080.2528
 Red. masses --      1.0148
 Frc consts  --      0.6977
 IR Inten    --      1.9263

 - Thermochemistry -
 -------------------
 Temperature   298.150 Kelvin.  Pressure   1.00000 Atm.
 Atom     1 has atomic number  1 and mass   1.00783

 Molecular mass:    21.01405 amu.
 Principal axes and moments of inertia in atomic units:
                           1         2         3
     Eigenvalues --     0.00000  53.26253  53.26253
           X            1.00000  -0.00000   0.00000
           Y            0.00000   1.00000   0.00000
           Z            0.00000   0.00000   1.00000
 This molecule is a prolate symmetric top.
 Rotational symmetry number  1.
 Rotational temperature (Kelvin)      1.62617
 Rotational constant (GHZ):          33.883881
    2 imaginary frequencies ignored.
 Zero-point vibrational energy      12922.7 (Joules/Mol)
                                    3.08860 (Kcal/Mol)
 Vibrational temperatures:   1554.24  1554.24
          (Kelvin)

 Zero-point correction=                           0.004922 (Hartree/Particle)
 Thermal correction to Energy=                    0.007336
 Thermal correction to Enthalpy=                  0.008281
 Thermal correction to Gibbs Free Energy=        -0.014965
 Sum of electronic and zero-point Energies=           -100.830486
 Sum of electronic and thermal Energies=              -100.828072
 Sum of electronic and thermal Enthalpies=            -100.827128
 Sum of electronic and thermal Free Energies=         -100.850373

                     E (Thermal)             CV                S
                      KCal/Mol        Cal/Mol-Kelvin    Cal/Mol-Kelvin
 Total                    4.604              5.563             48.924
 Electronic               0.000              0.000              1.377
 Translational            0.889              2.981             35.068
 Rotational               0.592              1.987             12.343
 Vibrational              3.122              0.595              0.135

 Normal termination of Gaussian 16 at Fri Aug 22 16:56:02 2025.
