 Gaussian 16, Revision C.01,
 Gaussian 16:  ES64L-G16RevC.01  3-Jul-2019

 -----------------------------------------
 # sp b3lyp/6-311g** Force nosymm scf=(qc)
 -----------------------------------------

 -------------------
 Title Card Required
 -------------------
 Symbolic Z-matrix:
 Charge =  0 Multiplicity = 2

                          Input orientation:
 ---------------------------------------------------------------------
 Center     Atomic      Atomic             Coordinates (Angstroms)
 Number     Number       Type             X           Y           Z
 ---------------------------------------------------------------------
      1          1           0        0.000000    0.000000    0.000000
      2          1           0       -1.750000    0.000000    0.000000
      3          9           0        1.500000    0.000000    0.000000
 ---------------------------------------------------------------------

 SCF Done:  E(UB3LYP) =  -100.866164500     a.u. after   13 cycles

 Alpha  occ. eigenvalues --  -24.64068  -1.10440  -0.45331  -0.37924  -0.36375
 Alpha  occ. eigenvalues --   -0.36375
 Alpha virt. eigenvalues --   -0.09526   0.22076   0.28131   0.94163   0.94163
 Alpha virt. eigenvalues --    0.96697   1.04097   1.18284   1.18284   1.35604
 Alpha virt. eigenvalues --    1.35604   1.41151   1.75280   2.12924   2.33388

  Beta  occ. eigenvalues --  -24.63038  -1.07700  -0.41500  -0.35394  -0.35394
  Beta virt. eigenvalues --   -0.20020  -0.05920   0.25550   0.30499   0.94032
  Beta virt. eigenvalues --    0.94032   1.01304   1.06475   1.27674   1.27674
  Beta virt. eigenvalues --    1.37526   1.37526   1.48976   1.77406   2.17784

 Mulliken charges and spin densities:
               1          2
     1  H    0.277794  -0.197564
     2  H    0.062154   0.876616
     3  F   -0.339948   0.320948
 Sum of Mulliken charges =   0.00000   1.00000

 Dipole moment (field-independent basis, Debye):
    X=             -3.0375    Y=              0.0000    Z=             -0.0000  Tot=              3.0375
 Quadrupole moment (field-independent basis, Debye-Ang):
   XX=             -8.5290   YY=             -7.2721   ZZ=             -7.2721
   XY=              0.0000   XZ=             -0.0000   YZ=             -0.0000

  Exact polarizability:      32.539       0.000       2.255      -0.000      -0.000       2.255
 Approx polarizability:      45.078       0.000       2.190      -0.000       0.000       2.190

 ******    2 imaginary frequencies (negative Signs) ******

                      1                      2                      3
                      A                      A                      A
 Frequencies --  -2242.8057              -458.3132               998.5951
 Red. masses --      1.0288                 1.0842                 1.0199
 Frc consts  --      3.0490                 0.1342                 0.5992
 IR Inten    --     14.2318                 0.6148                48.2649

                      4
                      A
 Frequencies --    998.5951
 Red. masses --      1.0199
 Frc consts  --      0.5992
 IR Inten    --     48.2649

 - Thermochemistry -
 -------------------
 Temperature   298.150 Kelvin.  Pressure   1.00000 Atm.
 Atom     1 has atomic number  1 and mass   1.00783

 Molecular mass:    21.01405 amu.
 Principal axes and moments of inertia in atomic units:
                           1         2         3
     Eigenvalues --     0.00000  42.21785  42.21785
           X            1.00000  -0.00000   0.00000
           Y            0.00000   1.00000   0.00000
           Z            0.00000   0.00000   1.00000
 This molecule is a prolate symmetric top.
 Rotational symmetry number  1.
 Rotational temperature (Kelvin)      2.05159
 Rotational constant (GHZ):          42.748294
    2 imaginary frequencies ignored.
 Zero-point vibrational energy      11945.9 (Joules/Mol)
                                    2.85513 (Kcal/Mol)
 Vibrational temperatures:   1436.76  1436.76
          (Kelvin)

 Zero-point correction=                           0.004550 (Hartree/Particle)
 Thermal correction to Energy=                    0.006984
 Thermal correction to Enthalpy=                  0.007929
 Thermal correction to Gibbs Free Energy=        -0.015122
 Sum of electronic and zero-point Energies=           -100.861615
 Sum of electronic and thermal Energies=              -100.859180
 Sum of electronic and thermal Enthalpies=            -100.858236
 Sum of electronic and thermal Free Energies=         -100.881287

                     E (Thermal)             CV                S
                      KCal/Mol        Cal/Mol-Kelvin    Cal/Mol-Kelvin
 Total                    4.383              5.726             48.515
 Electronic               0.000              0.000              1.377
 Translational            0.889              2.981             35.068
 Rotational               0.592              1.987             11.881
 Vibrational              2.902              0.758              0.188

 Normal termination of Gaussian 16 at Fri Aug 22 16:25:17 2025.
