 Gaussian 16, Revision C.01,
 Gaussian 16:  ES64L-G16RevC.01  3-Jul-2019

 -----------------------------------------
 # sp b3lyp/6-311g** Force nosymm scf=(qc)
 -----------------------------------------

 -------------------
 Title Card Required
 -------------------
 Symbolic Z-matrix:
 Charge =  0 Multiplicity = 2

                          Input orientation:
 ---------------------------------------------------------------------
 Center     Atomic      Atomic             Coordinates (Angstroms)
 Number     Number       Type             X           Y           Z
 ---------------------------------------------------------------------
      1          1           0        0.000000    0.000000    0.000000
      2          1           0       -2.800000    0.000000    0.000000
      3          9           0        2.000000    0.000000    0.000000
 ---------------------------------------------------------------------

 SCF Done:  E(UB3LYP) =  -100.768736268     a.u. after   12 cycles

 Alpha  occ. eigenvalues --  -24.63536  -1.07824  -0.38479  -0.35422  -0.35223
 Alpha  occ. eigenvalues --   -0.35022
 Alpha virt. eigenvalues --   -0.22708   0.20933   0.26875   0.90532   0.97478
 Alpha virt. eigenvalues --    0.97480   1.09430   1.21978   1.21978   1.23104
 Alpha virt. eigenvalues --    1.23513   1.23514   1.54282   2.12839   2.14590

  Beta  occ. eigenvalues --  -24.63554  -1.07877  -0.38157  -0.35242  -0.35181
  Beta virt. eigenvalues --   -0.22824  -0.09307   0.24327   0.35554   0.90820
  Beta virt. eigenvalues --    0.97497   0.97499   1.09576   1.24040   1.24040
  Beta virt. eigenvalues --    1.42509   1.42628   1.42628   1.54975   2.15297

 Mulliken charges and spin densities:
               1          2
     1  H    0.274368   0.030244
     2  H    0.023077   0.975874
     3  F   -0.297444  -0.006118
 Sum of Mulliken charges =   0.00000   1.00000

 Dipole moment (field-independent basis, Debye):
    X=             -3.3140    Y=              0.0001    Z=              0.0002  Tot=              3.3140
 Quadrupole moment (field-independent basis, Debye-Ang):
   XX=            -11.1729   YY=             -7.5347   ZZ=             -7.5325
   XY=             -0.0000   XZ=             -0.0000   YZ=              0.0016

  Exact polarizability:      48.887       0.018       2.171       0.038      -0.085       2.055
 Approx polarizability:     107.792      -0.003       1.917      -0.007       0.001       1.918

 ******    2 imaginary frequencies (negative Signs) ******

                      1                      2                      3
                      A                      A                      A
 Frequencies --  -1329.9564              -246.7467               648.6047
 Red. masses --      1.0531                 1.0584                 1.0225
 Frc consts  --      1.0975                 0.0380                 0.2534
 IR Inten    --      3.0293                19.9393                74.8395

                      4
                      A
 Frequencies --    667.5689
 Red. masses --      1.0225
 Frc consts  --      0.2685
 IR Inten    --     67.4782

 - Thermochemistry -
 -------------------
 Temperature   298.150 Kelvin.  Pressure   1.00000 Atm.
 Atom     1 has atomic number  1 and mass   1.00783

 Molecular mass:    21.01405 amu.
 Principal axes and moments of inertia in atomic units:
                           1         2         3
     Eigenvalues --     0.00000  89.33585  89.33585
           X            1.00000  -0.00000   0.00000
           Y            0.00000   1.00000   0.00000
           Z            0.00000   0.00000   1.00000
 This molecule is a prolate symmetric top.
 Rotational symmetry number  1.
 Rotational temperature (Kelvin)      0.96953
 Rotational constant (GHZ):          20.201758
    2 imaginary frequencies ignored.
 Zero-point vibrational energy       7872.5 (Joules/Mol)
                                    1.88156 (Kcal/Mol)
 Vibrational temperatures:    933.20   960.48
          (Kelvin)

 Zero-point correction=                           0.002998 (Hartree/Particle)
 Thermal correction to Energy=                    0.005620
 Thermal correction to Enthalpy=                  0.006565
 Thermal correction to Gibbs Free Energy=        -0.017447
 Sum of electronic and zero-point Energies=           -100.765738
 Sum of electronic and thermal Energies=              -100.763116
 Sum of electronic and thermal Enthalpies=            -100.762172
 Sum of electronic and thermal Free Energies=         -100.786183

                     E (Thermal)             CV                S
                      KCal/Mol        Cal/Mol-Kelvin    Cal/Mol-Kelvin
 Total                    3.527              6.791             50.537
 Electronic               0.000              0.000              1.377
 Translational            0.889              2.981             35.068
 Rotational               0.592              1.987             13.371
 Vibrational              2.046              1.823              0.720

 Normal termination of Gaussian 16 at Fri Aug 22 16:57:10 2025.
