 Gaussian 16, Revision C.01,
 Gaussian 16:  ES64L-G16RevC.01  3-Jul-2019

 -----------------------------------------
 # sp b3lyp/6-311g** Force nosymm scf=(qc)
 -----------------------------------------

 -------------------
 Title Card Required
 -------------------
 Symbolic Z-matrix:
 Charge =  0 Multiplicity = 2

                          Input orientation:
 ---------------------------------------------------------------------
 Center     Atomic      Atomic             Coordinates (Angstroms)
 Number     Number       Type             X           Y           Z
 ---------------------------------------------------------------------
      1          1           0        0.000000    0.000000    0.000000
      2          1           0       -3.050000    0.000000    0.000000
      3          9           0        1.850000    0.000000    0.000000
 ---------------------------------------------------------------------

 SCF Done:  E(UB3LYP) =  -100.798966878     a.u. after   22 cycles

 Alpha  occ. eigenvalues --  -24.64751  -1.07418  -0.39017  -0.36525  -0.36525
 Alpha  occ. eigenvalues --   -0.33938
 Alpha virt. eigenvalues --   -0.19521   0.20336   0.27305   0.92551   0.95136
 Alpha virt. eigenvalues --    0.95136   1.08222   1.23181   1.23181   1.23440
 Alpha virt. eigenvalues --    1.23440   1.23903   1.62351   2.12665   2.14116

  Beta  occ. eigenvalues --  -24.66775  -1.13014  -0.45600  -0.38505  -0.38505
  Beta virt. eigenvalues --   -0.15266  -0.05664   0.28042   0.38638   0.91893
  Beta virt. eigenvalues --    0.94984   0.94984   1.06165   1.34050   1.34050
  Beta virt. eigenvalues --    1.46347   1.46347   1.46603   1.67885   2.27133

 Mulliken charges and spin densities:
               1          2
     1  H    0.239417   0.641208
     2  H    0.004943   0.995234
     3  F   -0.244360  -0.636442
 Sum of Mulliken charges =   0.00000   1.00000

 Dipole moment (field-independent basis, Debye):
    X=             -2.2864    Y=             -0.0000    Z=             -0.0000  Tot=              2.2864
 Quadrupole moment (field-independent basis, Debye-Ang):
   XX=            -10.1245   YY=             -7.4423   ZZ=             -7.4423
   XY=             -0.0000   XZ=             -0.0000   YZ=              0.0000

  Exact polarizability:      27.479      -0.000       2.087      -0.000      -0.000       2.087
 Approx polarizability:      40.691      -0.000       1.978      -0.000      -0.000       1.978

 ******    1 imaginary frequencies (negative Signs) ******

                      1                      2                      3
                      A                      A                      A
 Frequencies --  -1397.8920                77.3312               599.8619
 Red. masses --      1.0596                 1.0520                 1.0250
 Frc consts  --      1.2199                 0.0037                 0.2173
 IR Inten    --    108.2295                 2.4521                51.6974

                      4
                      A
 Frequencies --    599.8619
 Red. masses --      1.0250
 Frc consts  --      0.2173
 IR Inten    --     51.6974

 - Thermochemistry -
 -------------------
 Temperature   298.150 Kelvin.  Pressure   1.00000 Atm.
 Atom     1 has atomic number  1 and mass   1.00783

 Molecular mass:    21.01405 amu.
 Principal axes and moments of inertia in atomic units:
                           1         2         3
     Eigenvalues --     0.00000  90.86540  90.86540
           X            1.00000  -0.00000   0.00000
           Y            0.00000   1.00000   0.00000
           Z            0.00000   0.00000   1.00000
 This molecule is a prolate symmetric top.
 Rotational symmetry number  1.
 Rotational temperature (Kelvin)      0.95321
 Rotational constant (GHZ):          19.861699
    1 imaginary frequencies ignored.
 Zero-point vibrational energy       7638.5 (Joules/Mol)
                                    1.82564 (Kcal/Mol)
 Warning -- explicit consideration of   3 degrees of freedom as
           vibrations may cause significant error
 Vibrational temperatures:    111.26   863.07   863.07
          (Kelvin)

 Zero-point correction=                           0.002909 (Hartree/Particle)
 Thermal correction to Energy=                    0.006369
 Thermal correction to Enthalpy=                  0.007313
 Thermal correction to Gibbs Free Energy=        -0.018680
 Sum of electronic and zero-point Energies=           -100.796058
 Sum of electronic and thermal Energies=              -100.792598
 Sum of electronic and thermal Enthalpies=            -100.791654
 Sum of electronic and thermal Free Energies=         -100.817647

                     E (Thermal)             CV                S
                      KCal/Mol        Cal/Mol-Kelvin    Cal/Mol-Kelvin
 Total                    3.996              8.996             54.707
 Electronic               0.000              0.000              1.377
 Translational            0.889              2.981             35.068
 Rotational               0.592              1.987             13.405
 Vibrational              2.515              4.028              4.857
 Vibration     1          0.599              1.964              3.957
 Vibration     2          0.958              1.032              0.450
 Vibration     3          0.958              1.032              0.450

 Normal termination of Gaussian 16 at Fri Aug 22 16:47:46 2025.
