 Gaussian 16, Revision C.01,
 Gaussian 16:  ES64L-G16RevC.01  3-Jul-2019

 -----------------------------------------
 # sp b3lyp/6-311g** Force nosymm scf=(qc)
 -----------------------------------------

 -------------------
 Title Card Required
 -------------------
 Symbolic Z-matrix:
 Charge =  0 Multiplicity = 2

                          Input orientation:
 ---------------------------------------------------------------------
 Center     Atomic      Atomic             Coordinates (Angstroms)
 Number     Number       Type             X           Y           Z
 ---------------------------------------------------------------------
      1          1           0        0.000000    0.000000    0.000000
      2          1           0       -0.650000    0.000000    0.000000
      3          9           0        3.750000    0.000000    0.000000
 ---------------------------------------------------------------------

 SCF Done:  E(UB3LYP) =  -100.926532168     a.u. after   33 cycles

 Alpha  occ. eigenvalues --  -24.76239  -1.22117  -0.55319  -0.46509  -0.46474
 Alpha  occ. eigenvalues --   -0.45364
 Alpha virt. eigenvalues --    0.07586   0.19183   0.49982   0.86069   0.90945
 Alpha virt. eigenvalues --    0.92292   1.01439   1.09487   1.09490   1.59268
 Alpha virt. eigenvalues --    1.84309   1.89286   1.89289   2.37429   3.64903

  Beta  occ. eigenvalues --  -24.73083  -1.13040  -0.45383  -0.43325  -0.43310
  Beta virt. eigenvalues --   -0.25964   0.07597   0.19189   0.50026   0.92445
  Beta virt. eigenvalues --    0.93788   0.95533   1.05534   1.09487   1.09490
  Beta virt. eigenvalues --    1.59272   1.84325   1.89286   1.89289   2.37429

 Mulliken charges and spin densities:
               1          2
     1  H   -0.000843  -0.000315
     2  H   -0.001669   0.000038
     3  F    0.002512   1.000277
 Sum of Mulliken charges =   0.00000   1.00000

 Dipole moment (field-independent basis, Debye):
    X=              0.0322    Y=             -0.0000    Z=             -0.0000  Tot=              0.0322
 Quadrupole moment (field-independent basis, Debye-Ang):
   XX=             -6.2215   YY=             -6.3782   ZZ=             -6.3782
   XY=              0.0000   XZ=              0.0000   YZ=              0.4322

  Exact polarizability:       6.897       0.000       2.132       0.000       0.233       2.132
 Approx polarizability:       7.661       0.000       2.271       0.000       0.291       2.271

 ******    3 imaginary frequencies (negative Signs) ******

                      1                      2                      3
                      A                      A                      A
 Frequencies --  -1956.4965             -1956.3928               -54.2939
 Red. masses --      1.0085                 1.0085                 1.1085
 Frc consts  --      2.2744                 2.2742                 0.0019
 IR Inten    --      0.0004                 0.0004                 0.0845

                      4
                      A
 Frequencies --   5975.9948
 Red. masses --      1.0078
 Frc consts  --     21.2059
 IR Inten    --      0.0288

 - Thermochemistry -
 -------------------
 Temperature   298.150 Kelvin.  Pressure   1.00000 Atm.
 Atom     1 has atomic number  1 and mass   1.00783

 Molecular mass:    21.01405 amu.
 Principal axes and moments of inertia in atomic units:
                           1         2         3
     Eigenvalues --     0.00000 108.82288 108.82288
           X            1.00000  -0.00000   0.00000
           Y            0.00000   1.00000   0.00000
           Z            0.00000   0.00000   1.00000
 This molecule is a prolate symmetric top.
 Rotational symmetry number  1.
 Rotational temperature (Kelvin)      0.79592
 Rotational constant (GHZ):          16.584207
    3 imaginary frequencies ignored.
 Zero-point vibrational energy      35744.4 (Joules/Mol)
                                    8.54311 (Kcal/Mol)
 Vibrational temperatures:   8598.12
          (Kelvin)

 Zero-point correction=                           0.013614 (Hartree/Particle)
 Thermal correction to Energy=                    0.015975
 Thermal correction to Enthalpy=                  0.016919
 Thermal correction to Gibbs Free Energy=        -0.006937
 Sum of electronic and zero-point Energies=           -100.912918
 Sum of electronic and thermal Energies=              -100.910557
 Sum of electronic and thermal Enthalpies=            -100.909613
 Sum of electronic and thermal Free Energies=         -100.933469

                     E (Thermal)             CV                S
                      KCal/Mol        Cal/Mol-Kelvin    Cal/Mol-Kelvin
 Total                   10.024              4.968             50.209
 Electronic               0.000              0.000              1.377
 Translational            0.889              2.981             35.068
 Rotational               0.592              1.987             13.763
 Vibrational              8.543              0.000              0.000

 Normal termination of Gaussian 16 at Sat Aug 23 00:07:28 2025.
