 Gaussian 16, Revision C.01,
 Gaussian 16:  ES64L-G16RevC.01  3-Jul-2019

 -----------------------------------------
 # sp b3lyp/6-311g** Force nosymm scf=(qc)
 -----------------------------------------

 -------------------
 Title Card Required
 -------------------
 Symbolic Z-matrix:
 Charge =  0 Multiplicity = 2

                          Input orientation:
 ---------------------------------------------------------------------
 Center     Atomic      Atomic             Coordinates (Angstroms)
 Number     Number       Type             X           Y           Z
 ---------------------------------------------------------------------
      1          1           0        0.000000    0.000000    0.000000
      2          1           0       -1.150000    0.000000    0.000000
      3          9           0        2.200000    0.000000    0.000000
 ---------------------------------------------------------------------

 SCF Done:  E(UB3LYP) =  -100.883768369     a.u. after   12 cycles

 Alpha  occ. eigenvalues --  -24.73929  -1.20039  -0.53348  -0.44594  -0.44594
 Alpha  occ. eigenvalues --   -0.38924
 Alpha virt. eigenvalues --   -0.03444   0.21967   0.35543   0.88603   0.91853
 Alpha virt. eigenvalues --    0.91853   1.08351   1.09812   1.09812   1.33393
 Alpha virt. eigenvalues --    1.55118   1.55118   2.10720   2.30979   2.54580

  Beta  occ. eigenvalues --  -24.70970  -1.11601  -0.41642  -0.41642  -0.38619
  Beta virt. eigenvalues --   -0.25422  -0.02397   0.22563   0.36009   0.93229
  Beta virt. eigenvalues --    0.93229   0.96145   1.10531   1.10531   1.11339
  Beta virt. eigenvalues --    1.35750   1.55665   1.55665   2.11632   2.31815

 Mulliken charges and spin densities:
               1          2
     1  H    0.013517  -0.066442
     2  H    0.038446   0.134567
     3  F   -0.051963   0.931875
 Sum of Mulliken charges =  -0.00000   1.00000

 Dipole moment (field-independent basis, Debye):
    X=             -0.7746    Y=              0.0000    Z=             -0.0000  Tot=              0.7746
 Quadrupole moment (field-independent basis, Debye-Ang):
   XX=             -6.4494   YY=             -7.3808   ZZ=             -7.3808
   XY=              0.0000   XZ=             -0.0000   YZ=              0.0000

  Exact polarizability:      37.464       0.000       2.140      -0.000      -0.000       2.140
 Approx polarizability:      49.334      -0.000       2.149       0.000       0.000       2.149

 ******    1 imaginary frequencies (negative Signs) ******

                      1                      2                      3
                      A                      A                      A
 Frequencies --   -803.5525               287.6673              1438.2433
 Red. masses --      1.0344                 1.0780                 1.0120
 Frc consts  --      0.3935                 0.0526                 1.2334
 IR Inten    --    563.2838                38.1023                 0.0169

                      4
                      A
 Frequencies --   1438.2433
 Red. masses --      1.0120
 Frc consts  --      1.2334
 IR Inten    --      0.0169

 - Thermochemistry -
 -------------------
 Temperature   298.150 Kelvin.  Pressure   1.00000 Atm.
 Atom     1 has atomic number  1 and mass   1.00783

 Molecular mass:    21.01405 amu.
 Principal axes and moments of inertia in atomic units:
                           1         2         3
     Eigenvalues --     0.00000  52.49235  52.49235
           X            1.00000  -0.00000   0.00000
           Y            0.00000   1.00000   0.00000
           Z            0.00000   0.00000   1.00000
 This molecule is a prolate symmetric top.
 Rotational symmetry number  1.
 Rotational temperature (Kelvin)      1.65003
 Rotational constant (GHZ):          34.381033
    1 imaginary frequencies ignored.
 Zero-point vibrational energy      18925.8 (Joules/Mol)
                                    4.52339 (Kcal/Mol)
 Warning -- explicit consideration of   1 degrees of freedom as
           vibrations may cause significant error
 Vibrational temperatures:    413.89  2069.31  2069.31
          (Kelvin)

 Zero-point correction=                           0.007208 (Hartree/Particle)
 Thermal correction to Energy=                    0.010017
 Thermal correction to Enthalpy=                  0.010962
 Thermal correction to Gibbs Free Energy=        -0.012927
 Sum of electronic and zero-point Energies=           -100.876560
 Sum of electronic and thermal Energies=              -100.873751
 Sum of electronic and thermal Enthalpies=            -100.872807
 Sum of electronic and thermal Free Energies=         -100.896695

                     E (Thermal)             CV                S
                      KCal/Mol        Cal/Mol-Kelvin    Cal/Mol-Kelvin
 Total                    6.286              6.850             50.278
 Electronic               0.000              0.000              1.377
 Translational            0.889              2.981             35.068
 Rotational               0.592              1.987             12.314
 Vibrational              4.805              1.882              1.518
 Vibration     1          0.685              1.697              1.488

 Normal termination of Gaussian 16 at Fri Aug 22 17:10:50 2025.
