 Gaussian 16, Revision C.01,
 Gaussian 16:  ES64L-G16RevC.01  3-Jul-2019

 -----------------------------------------
 # sp b3lyp/6-311g** Force nosymm scf=(qc)
 -----------------------------------------

 -------------------
 Title Card Required
 -------------------
 Symbolic Z-matrix:
 Charge =  0 Multiplicity = 2

                          Input orientation:
 ---------------------------------------------------------------------
 Center     Atomic      Atomic             Coordinates (Angstroms)
 Number     Number       Type             X           Y           Z
 ---------------------------------------------------------------------
      1          1           0        0.000000    0.000000    0.000000
      2          1           0       -1.050000    0.000000    0.000000
      3          9           0        2.150000    0.000000    0.000000
 ---------------------------------------------------------------------

 SCF Done:  E(UB3LYP) =  -100.901131442     a.u. after   12 cycles

 Alpha  occ. eigenvalues --  -24.74204  -1.20302  -0.53701  -0.44828  -0.44828
 Alpha  occ. eigenvalues --   -0.40046
 Alpha virt. eigenvalues --   -0.00801   0.21499   0.37480   0.89162   0.91553
 Alpha virt. eigenvalues --    0.91553   1.08141   1.08141   1.09825   1.40977
 Alpha virt. eigenvalues --    1.61007   1.61007   2.18900   2.33526   2.56188

  Beta  occ. eigenvalues --  -24.71227  -1.11813  -0.41858  -0.41858  -0.39850
  Beta virt. eigenvalues --   -0.25524   0.00209   0.22061   0.37930   0.92926
  Beta virt. eigenvalues --    0.92926   0.96929   1.08843   1.08843   1.12955
  Beta virt. eigenvalues --    1.42971   1.61510   1.61510   2.19858   2.34264

 Mulliken charges and spin densities:
               1          2
     1  H    0.010572  -0.048980
     2  H    0.036461   0.112223
     3  F   -0.047032   0.936757
 Sum of Mulliken charges =   0.00000   1.00000

 Dipole moment (field-independent basis, Debye):
    X=             -0.6772    Y=             -0.0000    Z=             -0.0000  Tot=              0.6772
 Quadrupole moment (field-independent basis, Debye-Ang):
   XX=             -6.3355   YY=             -7.2772   ZZ=             -7.2772
   XY=              0.0000   XZ=             -0.0000   YZ=             -0.0000

  Exact polarizability:      31.684       0.000       2.143      -0.000       0.000       2.143
 Approx polarizability:      39.861      -0.000       2.165       0.000      -0.000       2.165

 ******    1 imaginary frequencies (negative Signs) ******

                      1                      2                      3
                      A                      A                      A
 Frequencies --   -416.7604              1158.1989              1470.5751
 Red. masses --      1.1037                 1.0118                 1.0116
 Frc consts  --      0.1130                 0.7997                 1.2889
 IR Inten    --    124.1875               385.2777                 0.0423

                      4
                      A
 Frequencies --   1470.5751
 Red. masses --      1.0116
 Frc consts  --      1.2889
 IR Inten    --      0.0423

 - Thermochemistry -
 -------------------
 Temperature   298.150 Kelvin.  Pressure   1.00000 Atm.
 Atom     1 has atomic number  1 and mass   1.00783

 Molecular mass:    21.01405 amu.
 Principal axes and moments of inertia in atomic units:
                           1         2         3
     Eigenvalues --     0.00000  48.54982  48.54982
           X            1.00000  -0.00000   0.00000
           Y            0.00000   1.00000   0.00000
           Z            0.00000   0.00000   1.00000
 This molecule is a prolate symmetric top.
 Rotational symmetry number  1.
 Rotational temperature (Kelvin)      1.78402
 Rotational constant (GHZ):          37.172972
    1 imaginary frequencies ignored.
 Zero-point vibrational energy      24519.6 (Joules/Mol)
                                    5.86031 (Kcal/Mol)
 Vibrational temperatures:   1666.39  2115.83  2115.83
          (Kelvin)

 Zero-point correction=                           0.009339 (Hartree/Particle)
 Thermal correction to Energy=                    0.011730
 Thermal correction to Enthalpy=                  0.012675
 Thermal correction to Gibbs Free Energy=        -0.010455
 Sum of electronic and zero-point Energies=           -100.891792
 Sum of electronic and thermal Energies=              -100.889401
 Sum of electronic and thermal Enthalpies=            -100.888457
 Sum of electronic and thermal Free Energies=         -100.911587

                     E (Thermal)             CV                S
                      KCal/Mol        Cal/Mol-Kelvin    Cal/Mol-Kelvin
 Total                    7.361              5.368             48.680
 Electronic               0.000              0.000              1.377
 Translational            0.889              2.981             35.068
 Rotational               0.592              1.987             12.159
 Vibrational              5.880              0.400              0.076

 Normal termination of Gaussian 16 at Fri Aug 22 17:06:45 2025.
