 Gaussian 16, Revision C.01,
 Gaussian 16:  ES64L-G16RevC.01  3-Jul-2019

 -----------------------------------------
 # sp b3lyp/6-311g** Force nosymm scf=(qc)
 -----------------------------------------

 -------------------
 Title Card Required
 -------------------
 Symbolic Z-matrix:
 Charge =  0 Multiplicity = 2

                          Input orientation:
 ---------------------------------------------------------------------
 Center     Atomic      Atomic             Coordinates (Angstroms)
 Number     Number       Type             X           Y           Z
 ---------------------------------------------------------------------
      1          1           0        0.000000    0.000000    0.000000
      2          1           0       -1.000000    0.000000    0.000000
      3          9           0        2.500000    0.000000    0.000000
 ---------------------------------------------------------------------

 SCF Done:  E(UB3LYP) =  -100.907433451     a.u. after    8 cycles

 Alpha  occ. eigenvalues --  -24.75654  -1.21598  -0.54871  -0.46007  -0.46007
 Alpha  occ. eigenvalues --   -0.39806
 Alpha virt. eigenvalues --    0.00231   0.21348   0.39305   0.89627   0.91180
 Alpha virt. eigenvalues --    0.91180   1.08263   1.08263   1.10143   1.37445
 Alpha virt. eigenvalues --    1.64923   1.64923   2.22137   2.36146   2.58462

  Beta  occ. eigenvalues --  -24.72558  -1.12714  -0.42907  -0.42907  -0.39690
  Beta virt. eigenvalues --   -0.26055   0.00722   0.21641   0.39720   0.92644
  Beta virt. eigenvalues --    0.92644   0.97996   1.08494   1.08494   1.14324
  Beta virt. eigenvalues --    1.37912   1.65095   1.65095   2.22478   2.36362

 Mulliken charges and spin densities:
               1          2
     1  H   -0.008993  -0.017962
     2  H    0.021069   0.039209
     3  F   -0.012076   0.978753
 Sum of Mulliken charges =   0.00000   1.00000

 Dipole moment (field-independent basis, Debye):
    X=             -0.2562    Y=             -0.0000    Z=              0.0000  Tot=              0.2562
 Quadrupole moment (field-independent basis, Debye-Ang):
   XX=             -5.8105   YY=             -7.2585   ZZ=             -7.2585
   XY=             -0.0000   XZ=              0.0000   YZ=             -0.0000

  Exact polarizability:      22.715       0.000       2.076       0.000      -0.000       2.076
 Approx polarizability:      26.237       0.000       2.130       0.000       0.000       2.130

 ******    1 imaginary frequencies (negative Signs) ******

                      1                      2                      3
                      A                      A                      A
 Frequencies --   -195.5796              1519.1740              1519.1740
 Red. masses --      1.1084                 1.0106                 1.0106
 Frc consts  --      0.0250                 1.3741                 1.3741
 IR Inten    --     12.9119                 0.2598                 0.2598

                      4
                      A
 Frequencies --   1725.5838
 Red. masses --      1.0079
 Frc consts  --      1.7683
 IR Inten    --    108.9694

 - Thermochemistry -
 -------------------
 Temperature   298.150 Kelvin.  Pressure   1.00000 Atm.
 Atom     1 has atomic number  1 and mass   1.00783

 Molecular mass:    21.01405 amu.
 Principal axes and moments of inertia in atomic units:
                           1         2         3
     Eigenvalues --     0.00000  60.36781  60.36781
           X            1.00000  -0.00000   0.00000
           Y            0.00000   1.00000   0.00000
           Z            0.00000   0.00000   1.00000
 This molecule is a prolate symmetric top.
 Rotational symmetry number  1.
 Rotational temperature (Kelvin)      1.43477
 Rotational constant (GHZ):          29.895755
    1 imaginary frequencies ignored.
 Zero-point vibrational energy      28494.6 (Joules/Mol)
                                    6.81038 (Kcal/Mol)
 Vibrational temperatures:   2185.75  2185.75  2482.73
          (Kelvin)

 Zero-point correction=                           0.010853 (Hartree/Particle)
 Thermal correction to Energy=                    0.013224
 Thermal correction to Enthalpy=                  0.014169
 Thermal correction to Gibbs Free Energy=        -0.009143
 Sum of electronic and zero-point Energies=           -100.896580
 Sum of electronic and thermal Energies=              -100.894209
 Sum of electronic and thermal Enthalpies=            -100.893265
 Sum of electronic and thermal Free Energies=         -100.916577

                     E (Thermal)             CV                S
                      KCal/Mol        Cal/Mol-Kelvin    Cal/Mol-Kelvin
 Total                    8.298              5.141             49.064
 Electronic               0.000              0.000              1.377
 Translational            0.889              2.981             35.068
 Rotational               0.592              1.987             12.592
 Vibrational              6.817              0.173              0.026

 Normal termination of Gaussian 16 at Fri Aug 22 17:43:00 2025.
