 Gaussian 16, Revision C.01,
 Gaussian 16:  ES64L-G16RevC.01  3-Jul-2019

 -----------------------------------------
 # sp b3lyp/6-311g** Force nosymm scf=(qc)
 -----------------------------------------

 -------------------
 Title Card Required
 -------------------
 Symbolic Z-matrix:
 Charge =  0 Multiplicity = 2

                          Input orientation:
 ---------------------------------------------------------------------
 Center     Atomic      Atomic             Coordinates (Angstroms)
 Number     Number       Type             X           Y           Z
 ---------------------------------------------------------------------
      1          1           0        0.000000    0.000000    0.000000
      2          1           0       -3.900000    0.000000    0.000000
      3          9           0        0.550000    0.000000    0.000000
 ---------------------------------------------------------------------

 SCF Done:  E(UB3LYP) =  -100.519198338     a.u. after    6 cycles

 Alpha  occ. eigenvalues --  -24.62696  -1.38440  -0.62260  -0.43639  -0.43639
 Alpha  occ. eigenvalues --   -0.33079
 Alpha virt. eigenvalues --    0.07752   0.24573   0.60292   0.91190   0.91207
 Alpha virt. eigenvalues --    0.91207   1.24341   1.24424   1.24424   1.34548
 Alpha virt. eigenvalues --    1.54127   1.54127   1.96711   2.14370   3.65579

  Beta  occ. eigenvalues --  -24.62696  -1.38439  -0.62260  -0.43639  -0.43639
  Beta virt. eigenvalues --   -0.04988   0.07902   0.38664   0.60271   0.91187
  Beta virt. eigenvalues --    0.91207   0.91207   1.34331   1.48420   1.48992
  Beta virt. eigenvalues --    1.48992   1.54127   1.54127   1.96684   2.46113

 Mulliken charges and spin densities:
               1          2
     1  H    0.200672   0.000262
     2  H    0.000334   0.999632
     3  F   -0.201006   0.000106
 Sum of Mulliken charges =   0.00000   1.00000

 Dipole moment (field-independent basis, Debye):
    X=             -1.3618    Y=             -0.0000    Z=              0.0000  Tot=              1.3618
 Quadrupole moment (field-independent basis, Debye-Ang):
   XX=             -6.8403   YY=             -6.4955   ZZ=             -6.4955
   XY=             -0.0000   XZ=              0.0000   YZ=              0.0000

  Exact polarizability:       2.988      -0.000       2.425       0.000      -0.000       2.425
 Approx polarizability:       3.204       0.000       2.401      -0.000      -0.000       2.401

 ******    3 imaginary frequencies (negative Signs) ******

                      1                      2                      3
                      A                      A                      A
 Frequencies --  -7521.1470             -7521.1470               -30.0956
 Red. masses --      1.0460                 1.0460                 1.0532
 Frc consts  --     34.8633                34.8633                 0.0006
 IR Inten    --    261.2262               261.2262                 0.0080

                      4
                      A
 Frequencies --  15777.8396
 Red. masses --      1.0583
 Frc consts  --    155.2238
 IR Inten    --     87.4556

 - Thermochemistry -
 -------------------
 Temperature   298.150 Kelvin.  Pressure   1.00000 Atm.
 Atom     1 has atomic number  1 and mass   1.00783

 Molecular mass:    21.01405 amu.
 Principal axes and moments of inertia in atomic units:
                           1         2         3
     Eigenvalues --     0.00000  68.04289  68.04289
           X            1.00000  -0.00000   0.00000
           Y            0.00000   1.00000   0.00000
           Z            0.00000   0.00000   1.00000
 This molecule is a prolate symmetric top.
 Rotational symmetry number  1.
 Rotational temperature (Kelvin)      1.27293
 Rotational constant (GHZ):          26.523581
    3 imaginary frequencies ignored.
 Zero-point vibrational energy      94372.4 (Joules/Mol)
                                   22.55555 (Kcal/Mol)
 Vibrational temperatures:  22700.79
          (Kelvin)

 Zero-point correction=                           0.035945 (Hartree/Particle)
 Thermal correction to Energy=                    0.038305
 Thermal correction to Enthalpy=                  0.039249
 Thermal correction to Gibbs Free Energy=         0.015837
 Sum of electronic and zero-point Energies=           -100.483254
 Sum of electronic and thermal Energies=              -100.480893
 Sum of electronic and thermal Enthalpies=            -100.479949
 Sum of electronic and thermal Free Energies=         -100.503361

                     E (Thermal)             CV                S
                      KCal/Mol        Cal/Mol-Kelvin    Cal/Mol-Kelvin
 Total                   24.037              4.968             49.275
 Electronic               0.000              0.000              1.377
 Translational            0.889              2.981             35.068
 Rotational               0.592              1.987             12.830
 Vibrational             22.556              0.000              0.000

 Normal termination of Gaussian 16 at Fri Aug 22 15:40:33 2025.
