 Gaussian 16, Revision C.01,
 Gaussian 16:  ES64L-G16RevC.01  3-Jul-2019

 -----------------------------------------
 # sp b3lyp/6-311g** Force nosymm scf=(qc)
 -----------------------------------------

 -------------------
 Title Card Required
 -------------------
 Symbolic Z-matrix:
 Charge =  0 Multiplicity = 2

                          Input orientation:
 ---------------------------------------------------------------------
 Center     Atomic      Atomic             Coordinates (Angstroms)
 Number     Number       Type             X           Y           Z
 ---------------------------------------------------------------------
      1          1           0        0.000000    0.000000    0.000000
      2          1           0       -3.250000    0.000000    0.000000
      3          9           0        3.000000    0.000000    0.000000
 ---------------------------------------------------------------------

 SCF Done:  E(UB3LYP) =  -100.761378015     a.u. after   22 cycles

 Alpha  occ. eigenvalues --  -24.74092  -1.20151  -0.53211  -0.44680  -0.44680
 Alpha  occ. eigenvalues --   -0.32616
 Alpha virt. eigenvalues --   -0.08534   0.24291   0.35719   0.89415   0.92272
 Alpha virt. eigenvalues --    0.92272   1.03921   1.24903   1.24903   1.25284
 Alpha virt. eigenvalues --    1.43334   1.43334   1.43661   2.15166   2.39538

  Beta  occ. eigenvalues --  -24.71064  -1.11475  -0.41650  -0.41650  -0.33745
  Beta virt. eigenvalues --   -0.24780  -0.07047   0.24269   0.37416   0.93733
  Beta virt. eigenvalues --    0.93733   0.98114   1.07675   1.23602   1.23602
  Beta virt. eigenvalues --    1.24238   1.45256   1.45488   1.45488   2.15446

 Mulliken charges and spin densities:
               1          2
     1  H    0.036138  -0.955452
     2  H    0.000854   0.996132
     3  F   -0.036992   0.959321
 Sum of Mulliken charges =  -0.00000   1.00000

 Dipole moment (field-independent basis, Debye):
    X=             -0.5832    Y=              0.0000    Z=             -0.0000  Tot=              0.5832
 Quadrupole moment (field-independent basis, Debye-Ang):
   XX=             -8.2621   YY=             -7.6143   ZZ=             -7.6143
   XY=             -0.0000   XZ=             -0.0000   YZ=             -0.0000

  Exact polarizability:      33.052      -0.000       2.024      -0.000      -0.000       2.024
 Approx polarizability:      33.102      -0.000       1.925      -0.000       0.000       1.925

 ******    2 imaginary frequencies (negative Signs) ******

                      1                      2                      3
                      A                      A                      A
 Frequencies --   -400.0275              -151.1406               144.0021
 Red. masses --      1.0378                 1.0744                 1.0189
 Frc consts  --      0.0978                 0.0145                 0.0124
 IR Inten    --     37.9478                 2.0495                 1.1964

                      4
                      A
 Frequencies --    144.0021
 Red. masses --      1.0189
 Frc consts  --      0.0124
 IR Inten    --      1.1964

 - Thermochemistry -
 -------------------
 Temperature   298.150 Kelvin.  Pressure   1.00000 Atm.
 Atom     1 has atomic number  1 and mass   1.00783

 Molecular mass:    21.01405 amu.
 Principal axes and moments of inertia in atomic units:
                           1         2         3
     Eigenvalues --     0.00000 158.20867 158.20867
           X            1.00000  -0.00000   0.00000
           Y            0.00000   1.00000   0.00000
           Z            0.00000   0.00000   1.00000
 This molecule is a prolate symmetric top.
 Rotational symmetry number  1.
 Rotational temperature (Kelvin)      0.54747
 Rotational constant (GHZ):          11.407347
    2 imaginary frequencies ignored.
 Zero-point vibrational energy       1722.6 (Joules/Mol)
                                    0.41172 (Kcal/Mol)
 Warning -- explicit consideration of   2 degrees of freedom as
           vibrations may cause significant error
 Vibrational temperatures:    207.19   207.19
          (Kelvin)

 Zero-point correction=                           0.000656 (Hartree/Particle)
 Thermal correction to Energy=                    0.004324
 Thermal correction to Enthalpy=                  0.005268
 Thermal correction to Gibbs Free Energy=        -0.021554
 Sum of electronic and zero-point Energies=           -100.760722
 Sum of electronic and thermal Energies=              -100.757054
 Sum of electronic and thermal Enthalpies=            -100.756110
 Sum of electronic and thermal Free Energies=         -100.782932

                     E (Thermal)             CV                S
                      KCal/Mol        Cal/Mol-Kelvin    Cal/Mol-Kelvin
 Total                    2.713              8.786             56.452
 Electronic               0.000              0.000              1.377
 Translational            0.889              2.981             35.068
 Rotational               0.592              1.987             14.507
 Vibrational              1.232              3.818              5.500
 Vibration     1          0.616              1.909              2.750
 Vibration     2          0.616              1.909              2.750

 Normal termination of Gaussian 16 at Fri Aug 22 19:32:53 2025.
