 Gaussian 16, Revision C.01,
 Gaussian 16:  ES64L-G16RevC.01  3-Jul-2019

 -----------------------------------------
 # sp b3lyp/6-311g** Force nosymm scf=(qc)
 -----------------------------------------

 -------------------
 Title Card Required
 -------------------
 Symbolic Z-matrix:
 Charge =  0 Multiplicity = 2

                          Input orientation:
 ---------------------------------------------------------------------
 Center     Atomic      Atomic             Coordinates (Angstroms)
 Number     Number       Type             X           Y           Z
 ---------------------------------------------------------------------
      1          1           0        0.000000    0.000000    0.000000
      2          1           0       -3.150000    0.000000    0.000000
      3          9           0        3.400000    0.000000    0.000000
 ---------------------------------------------------------------------

 SCF Done:  E(UB3LYP) =  -100.759839643     a.u. after   27 cycles

 Alpha  occ. eigenvalues --  -24.75212  -1.21187  -0.54333  -0.45619  -0.45619
 Alpha  occ. eigenvalues --   -0.32441
 Alpha virt. eigenvalues --   -0.07836   0.24675   0.36160   0.87943   0.91589
 Alpha virt. eigenvalues --    0.91589   1.02104   1.25081   1.25081   1.25563
 Alpha virt. eigenvalues --    1.44102   1.44169   1.44169   2.15489   2.40037

  Beta  occ. eigenvalues --  -24.72109  -1.12276  -0.42510  -0.42510  -0.32986
  Beta virt. eigenvalues --   -0.25394  -0.07167   0.24458   0.37204   0.93074
  Beta virt. eigenvalues --    0.93074   0.97018   1.06081   1.24449   1.24449
  Beta virt. eigenvalues --    1.24896   1.45069   1.45242   1.45242   2.15836

 Mulliken charges and spin densities:
               1          2
     1  H    0.014320  -0.978536
     2  H    0.000548   0.994918
     3  F   -0.014868   0.983619
 Sum of Mulliken charges =   0.00000   1.00000

 Dipole moment (field-independent basis, Debye):
    X=             -0.2682    Y=              0.0000    Z=             -0.0000  Tot=              0.2682
 Quadrupole moment (field-independent basis, Debye-Ang):
   XX=             -7.4989   YY=             -7.6280   ZZ=             -7.6280
   XY=              0.0000   XZ=             -0.0000   YZ=             -0.0000

  Exact polarizability:      27.705       0.000       2.030      -0.000      -0.000       2.030
 Approx polarizability:      22.574       0.000       1.931      -0.000       0.000       1.931

 ******    2 imaginary frequencies (negative Signs) ******

                      1                      2                      3
                      A                      A                      A
 Frequencies --   -323.6547              -134.4348               110.8197
 Red. masses --      1.0167                 1.0980                 1.0170
 Frc consts  --      0.0627                 0.0117                 0.0074
 IR Inten    --     12.2657                 3.7390                 0.1779

                      4
                      A
 Frequencies --    110.8197
 Red. masses --      1.0170
 Frc consts  --      0.0074
 IR Inten    --      0.1779

 - Thermochemistry -
 -------------------
 Temperature   298.150 Kelvin.  Pressure   1.00000 Atm.
 Atom     1 has atomic number  1 and mass   1.00783

 Molecular mass:    21.01405 amu.
 Principal axes and moments of inertia in atomic units:
                           1         2         3
     Eigenvalues --     0.00000 178.92249 178.92249
           X            1.00000  -0.00000   0.00000
           Y            0.00000   1.00000   0.00000
           Z            0.00000   0.00000   1.00000
 This molecule is a prolate symmetric top.
 Rotational symmetry number  1.
 Rotational temperature (Kelvin)      0.48409
 Rotational constant (GHZ):          10.086721
    2 imaginary frequencies ignored.
 Zero-point vibrational energy       1325.7 (Joules/Mol)
                                    0.31685 (Kcal/Mol)
 Warning -- explicit consideration of   2 degrees of freedom as
           vibrations may cause significant error
 Vibrational temperatures:    159.44   159.44
          (Kelvin)

 Zero-point correction=                           0.000505 (Hartree/Particle)
 Thermal correction to Energy=                    0.004294
 Thermal correction to Enthalpy=                  0.005238
 Thermal correction to Gibbs Free Energy=        -0.022180
 Sum of electronic and zero-point Energies=           -100.759335
 Sum of electronic and thermal Energies=              -100.755546
 Sum of electronic and thermal Enthalpies=            -100.754602
 Sum of electronic and thermal Free Energies=         -100.782020

                     E (Thermal)             CV                S
                      KCal/Mol        Cal/Mol-Kelvin    Cal/Mol-Kelvin
 Total                    2.694              8.849             57.706
 Electronic               0.000              0.000              1.377
 Translational            0.889              2.981             35.068
 Rotational               0.592              1.987             14.751
 Vibrational              1.213              3.881              6.509
 Vibration     1          0.607              1.941              3.255
 Vibration     2          0.607              1.941              3.255

 Normal termination of Gaussian 16 at Fri Aug 22 21:18:13 2025.
