 Gaussian 16, Revision C.01,
 Gaussian 16:  ES64L-G16RevC.01  3-Jul-2019

 -----------------------------------------
 # sp b3lyp/6-311g** Force nosymm scf=(qc)
 -----------------------------------------

 -------------------
 Title Card Required
 -------------------
 Symbolic Z-matrix:
 Charge =  0 Multiplicity = 2

                          Input orientation:
 ---------------------------------------------------------------------
 Center     Atomic      Atomic             Coordinates (Angstroms)
 Number     Number       Type             X           Y           Z
 ---------------------------------------------------------------------
      1          1           0        0.000000    0.000000    0.000000
      2          1           0       -1.300000    0.000000    0.000000
      3          9           0        2.200000    0.000000    0.000000
 ---------------------------------------------------------------------

 SCF Done:  E(UB3LYP) =  -100.858471734     a.u. after   15 cycles

 Alpha  occ. eigenvalues --  -24.72951  -1.19129  -0.52342  -0.43775  -0.43775
 Alpha  occ. eigenvalues --   -0.37840
 Alpha virt. eigenvalues --   -0.07094   0.22509   0.33121   0.87615   0.92464
 Alpha virt. eigenvalues --    0.92464   1.05564   1.12864   1.12864   1.26734
 Alpha virt. eigenvalues --    1.47105   1.47105   1.96962   2.26199   2.51866

  Beta  occ. eigenvalues --  -24.70066  -1.10921  -0.40901  -0.40901  -0.37369
  Beta virt. eigenvalues --   -0.25005  -0.05859   0.23371   0.33523   0.93800
  Beta virt. eigenvalues --    0.93800   0.94225   1.08568   1.13791   1.13791
  Beta virt. eigenvalues --    1.29941   1.47800   1.47800   1.98027   2.27264

 Mulliken charges and spin densities:
               1          2
     1  H    0.027046  -0.136789
     2  H    0.045458   0.228248
     3  F   -0.072504   0.908541
 Sum of Mulliken charges =  -0.00000   1.00000

 Dipole moment (field-independent basis, Debye):
    X=             -1.0737    Y=             -0.0000    Z=             -0.0000  Tot=              1.0737
 Quadrupole moment (field-independent basis, Debye-Ang):
   XX=             -6.7916   YY=             -7.5007   ZZ=             -7.5007
   XY=             -0.0000   XZ=             -0.0000   YZ=             -0.0000

  Exact polarizability:      47.202      -0.000       2.124      -0.000       0.000       2.124
 Approx polarizability:      67.726       0.000       2.114       0.000       0.000       2.114

 ******    2 imaginary frequencies (negative Signs) ******

                      1                      2                      3
                      A                      A                      A
 Frequencies --  -1561.9007              -283.4492              1325.3449
 Red. masses --      1.0117                 1.1038                 1.0128
 Frc consts  --      1.4542                 0.0523                 1.0482
 IR Inten    --    892.5475                 7.7237                 0.0099

                      4
                      A
 Frequencies --   1325.3449
 Red. masses --      1.0128
 Frc consts  --      1.0482
 IR Inten    --      0.0099

 - Thermochemistry -
 -------------------
 Temperature   298.150 Kelvin.  Pressure   1.00000 Atm.
 Atom     1 has atomic number  1 and mass   1.00783

 Molecular mass:    21.01405 amu.
 Principal axes and moments of inertia in atomic units:
                           1         2         3
     Eigenvalues --     0.00000  55.89906  55.89906
           X            1.00000  -0.00000   0.00000
           Y            0.00000   1.00000   0.00000
           Z            0.00000   0.00000   1.00000
 This molecule is a prolate symmetric top.
 Rotational symmetry number  1.
 Rotational temperature (Kelvin)      1.54947
 Rotational constant (GHZ):          32.285718
    2 imaginary frequencies ignored.
 Zero-point vibrational energy      15854.6 (Joules/Mol)
                                    3.78935 (Kcal/Mol)
 Vibrational temperatures:   1906.88  1906.88
          (Kelvin)

 Zero-point correction=                           0.006039 (Hartree/Particle)
 Thermal correction to Energy=                    0.008419
 Thermal correction to Enthalpy=                  0.009364
 Thermal correction to Gibbs Free Energy=        -0.013886
 Sum of electronic and zero-point Energies=           -100.852433
 Sum of electronic and thermal Energies=              -100.850052
 Sum of electronic and thermal Enthalpies=            -100.849108
 Sum of electronic and thermal Free Energies=         -100.872358

                     E (Thermal)             CV                S
                      KCal/Mol        Cal/Mol-Kelvin    Cal/Mol-Kelvin
 Total                    5.283              5.240             48.934
 Electronic               0.000              0.000              1.377
 Translational            0.889              2.981             35.068
 Rotational               0.592              1.987             12.439
 Vibrational              3.802              0.272              0.049

 Normal termination of Gaussian 16 at Fri Aug 22 17:10:59 2025.
