 Gaussian 16, Revision C.01,
 Gaussian 16:  ES64L-G16RevC.01  3-Jul-2019

 -----------------------------------------
 # sp b3lyp/6-311g** Force nosymm scf=(qc)
 -----------------------------------------

 -------------------
 Title Card Required
 -------------------
 Symbolic Z-matrix:
 Charge =  0 Multiplicity = 2

                          Input orientation:
 ---------------------------------------------------------------------
 Center     Atomic      Atomic             Coordinates (Angstroms)
 Number     Number       Type             X           Y           Z
 ---------------------------------------------------------------------
      1          1           0        0.000000    0.000000    0.000000
      2          1           0       -3.300000    0.000000    0.000000
      3          9           0        1.350000    0.000000    0.000000
 ---------------------------------------------------------------------

 SCF Done:  E(UB3LYP) =  -100.889238071     a.u. after    7 cycles

 Alpha  occ. eigenvalues --  -24.64350  -1.10647  -0.45278  -0.36859  -0.36859
 Alpha  occ. eigenvalues --   -0.34139
 Alpha virt. eigenvalues --   -0.10383   0.21343   0.28189   0.93042   0.93042
 Alpha virt. eigenvalues --    1.02658   1.18628   1.23379   1.23379   1.23538
 Alpha virt. eigenvalues --    1.33281   1.33281   1.71028   2.13801   2.22948

  Beta  occ. eigenvalues --  -24.64337  -1.10612  -0.45239  -0.36846  -0.36846
  Beta virt. eigenvalues --   -0.11202  -0.06243   0.24733   0.38113   0.93039
  Beta virt. eigenvalues --    0.93039   1.02696   1.18722   1.33237   1.33237
  Beta virt. eigenvalues --    1.45676   1.46166   1.46166   1.71071   2.22769

 Mulliken charges and spin densities:
               1          2
     1  H    0.356930  -0.001623
     2  H    0.002459   0.997311
     3  F   -0.359389   0.004312
 Sum of Mulliken charges =  -0.00000   1.00000

 Dipole moment (field-independent basis, Debye):
    X=             -2.4810    Y=              0.0000    Z=              0.0000  Tot=              2.4810
 Quadrupole moment (field-independent basis, Debye-Ang):
   XX=             -9.3151   YY=             -7.2331   ZZ=             -7.2331
   XY=              0.0000   XZ=              0.0000   YZ=              0.0000

  Exact polarizability:      12.817       0.000       2.258      -0.000      -0.000       2.258
 Approx polarizability:      20.312      -0.000       2.198       0.000      -0.000       2.198

 ******    2 imaginary frequencies (negative Signs) ******

                      1                      2                      3
                      A                      A                      A
 Frequencies --   -881.1521               -86.2688              1124.2877
 Red. masses --      1.0566                 1.0550                 1.0313
 Frc consts  --      0.4833                 0.0046                 0.7681
 IR Inten    --     60.6426                 0.1915               129.3280

                      4
                      A
 Frequencies --   1124.2877
 Red. masses --      1.0313
 Frc consts  --      0.7681
 IR Inten    --    129.3280

 - Thermochemistry -
 -------------------
 Temperature   298.150 Kelvin.  Pressure   1.00000 Atm.
 Atom     1 has atomic number  1 and mass   1.00783

 Molecular mass:    21.01405 amu.
 Principal axes and moments of inertia in atomic units:
                           1         2         3
     Eigenvalues --     0.00000  78.16491  78.16491
           X            1.00000  -0.00000   0.00000
           Y            0.00000   1.00000   0.00000
           Z            0.00000   0.00000   1.00000
 This molecule is a prolate symmetric top.
 Rotational symmetry number  1.
 Rotational temperature (Kelvin)      1.10809
 Rotational constant (GHZ):          23.088894
    2 imaginary frequencies ignored.
 Zero-point vibrational energy      13449.5 (Joules/Mol)
                                    3.21450 (Kcal/Mol)
 Vibrational temperatures:   1617.60  1617.60
          (Kelvin)

 Zero-point correction=                           0.005123 (Hartree/Particle)
 Thermal correction to Energy=                    0.007528
 Thermal correction to Enthalpy=                  0.008473
 Thermal correction to Gibbs Free Energy=        -0.015124
 Sum of electronic and zero-point Energies=           -100.884115
 Sum of electronic and thermal Energies=              -100.881710
 Sum of electronic and thermal Enthalpies=            -100.880765
 Sum of electronic and thermal Free Energies=         -100.904362

                     E (Thermal)             CV                S
                      KCal/Mol        Cal/Mol-Kelvin    Cal/Mol-Kelvin
 Total                    4.724              5.488             49.664
 Electronic               0.000              0.000              1.377
 Translational            0.889              2.981             35.068
 Rotational               0.592              1.987             13.106
 Vibrational              3.243              0.520              0.113

 Normal termination of Gaussian 16 at Fri Aug 22 16:18:29 2025.
