 Gaussian 16, Revision C.01,
 Gaussian 16:  ES64L-G16RevC.01  3-Jul-2019

 -----------------------------------------
 # sp b3lyp/6-311g** Force nosymm scf=(qc)
 -----------------------------------------

 -------------------
 Title Card Required
 -------------------
 Symbolic Z-matrix:
 Charge =  0 Multiplicity = 2

                          Input orientation:
 ---------------------------------------------------------------------
 Center     Atomic      Atomic             Coordinates (Angstroms)
 Number     Number       Type             X           Y           Z
 ---------------------------------------------------------------------
      1          1           0        0.000000    0.000000    0.000000
      2          1           0       -3.250000    0.000000    0.000000
      3          9           0        3.900000    0.000000    0.000000
 ---------------------------------------------------------------------

 SCF Done:  E(UB3LYP) =  -100.758997266     a.u. after   30 cycles

 Alpha  occ. eigenvalues --  -24.75830  -1.21761  -0.54955  -0.46141  -0.46141
 Alpha  occ. eigenvalues --   -0.32301
 Alpha virt. eigenvalues --   -0.07142   0.24669   0.37171   0.86691   0.91202
 Alpha virt. eigenvalues --    0.91202   1.01157   1.25214   1.25214   1.25558
 Alpha virt. eigenvalues --    1.44981   1.45193   1.45193   2.15455   2.40434

  Beta  occ. eigenvalues --  -24.72688  -1.12726  -0.42991  -0.42991  -0.32517
  Beta virt. eigenvalues --   -0.25708  -0.06899   0.24503   0.37511   0.92700
  Beta virt. eigenvalues --    0.92700   0.96042   1.05272   1.24978   1.24978
  Beta virt. eigenvalues --    1.25306   1.45355   1.45561   1.45561   2.15478

 Mulliken charges and spin densities:
               1          2
     1  H    0.003196  -0.992248
     2  H    0.000156   0.995982
     3  F   -0.003352   0.996265
 Sum of Mulliken charges =   0.00000   1.00000

 Dipole moment (field-independent basis, Debye):
    X=             -0.0701    Y=             -0.0000    Z=              0.0000  Tot=              0.0701
 Quadrupole moment (field-independent basis, Debye-Ang):
   XX=             -6.9359   YY=             -7.6286   ZZ=             -7.6286
   XY=             -0.0000   XZ=              0.0000   YZ=             -0.0000

  Exact polarizability:      13.850      -0.000       2.031       0.000      -0.000       2.031
 Approx polarizability:      10.296      -0.000       1.935       0.000       0.000       1.935

 ******    2 imaginary frequencies (negative Signs) ******

                      1                      2                      3
                      A                      A                      A
 Frequencies --   -251.7401               -77.7880                87.0543
 Red. masses --      1.0091                 1.1070                 1.0159
 Frc consts  --      0.0377                 0.0039                 0.0045
 IR Inten    --      1.1621                 0.8243                 0.0094

                      4
                      A
 Frequencies --     87.0544
 Red. masses --      1.0159
 Frc consts  --      0.0045
 IR Inten    --      0.0094

 - Thermochemistry -
 -------------------
 Temperature   298.150 Kelvin.  Pressure   1.00000 Atm.
 Atom     1 has atomic number  1 and mass   1.00783

 Molecular mass:    21.01405 amu.
 Principal axes and moments of inertia in atomic units:
                           1         2         3
     Eigenvalues --     0.00000 217.65550 217.65550
           X            1.00000  -0.00000   0.00000
           Y            0.00000   1.00000   0.00000
           Z            0.00000   0.00000   1.00000
 This molecule is a prolate symmetric top.
 Rotational symmetry number  1.
 Rotational temperature (Kelvin)      0.39794
 Rotational constant (GHZ):           8.291733
    2 imaginary frequencies ignored.
 Zero-point vibrational energy       1041.4 (Joules/Mol)
                                    0.24890 (Kcal/Mol)
 Warning -- explicit consideration of   2 degrees of freedom as
           vibrations may cause significant error
 Vibrational temperatures:    125.25   125.25
          (Kelvin)

 Zero-point correction=                           0.000397 (Hartree/Particle)
 Thermal correction to Energy=                    0.004277
 Thermal correction to Enthalpy=                  0.005221
 Thermal correction to Gibbs Free Energy=        -0.022829
 Sum of electronic and zero-point Energies=           -100.758601
 Sum of electronic and thermal Energies=              -100.754721
 Sum of electronic and thermal Enthalpies=            -100.753777
 Sum of electronic and thermal Free Energies=         -100.781827

                     E (Thermal)             CV                S
                      KCal/Mol        Cal/Mol-Kelvin    Cal/Mol-Kelvin
 Total                    2.684              8.884             59.036
 Electronic               0.000              0.000              1.377
 Translational            0.889              2.981             35.068
 Rotational               0.592              1.987             15.141
 Vibrational              1.202              3.916              7.450
 Vibration     1          0.601              1.958              3.725
 Vibration     2          0.601              1.958              3.725

 Normal termination of Gaussian 16 at Sat Aug 23 01:26:42 2025.
