 Gaussian 16, Revision C.01,
 Gaussian 16:  ES64L-G16RevC.01  3-Jul-2019

 -----------------------------------------
 # sp b3lyp/6-311g** Force nosymm scf=(qc)
 -----------------------------------------

 -------------------
 Title Card Required
 -------------------
 Symbolic Z-matrix:
 Charge =  0 Multiplicity = 2

                          Input orientation:
 ---------------------------------------------------------------------
 Center     Atomic      Atomic             Coordinates (Angstroms)
 Number     Number       Type             X           Y           Z
 ---------------------------------------------------------------------
      1          1           0        0.000000    0.000000    0.000000
      2          1           0       -2.600000    0.000000    0.000000
      3          9           0        3.700000    0.000000    0.000000
 ---------------------------------------------------------------------

 SCF Done:  E(UB3LYP) =  -100.761752669     a.u. after   32 cycles

 Alpha  occ. eigenvalues --  -24.75699  -1.21639  -0.54822  -0.46031  -0.46031
 Alpha  occ. eigenvalues --   -0.32538
 Alpha virt. eigenvalues --   -0.09008   0.25630   0.34905   0.87054   0.91282
 Alpha virt. eigenvalues --    0.91282   1.01376   1.25077   1.25077   1.26596
 Alpha virt. eigenvalues --    1.42215   1.42215   1.43243   2.16001   2.37498

  Beta  occ. eigenvalues --  -24.72566  -1.12633  -0.42890  -0.42890  -0.32768
  Beta virt. eigenvalues --   -0.25652  -0.08668   0.25436   0.35401   0.92777
  Beta virt. eigenvalues --    0.92777   0.96331   1.05464   1.24813   1.24813
  Beta virt. eigenvalues --    1.26290   1.42729   1.42729   1.43756   2.16257

 Mulliken charges and spin densities:
               1          2
     1  H    0.004747  -0.970628
     2  H    0.001209   0.977330
     3  F   -0.005956   0.993298
 Sum of Mulliken charges =   0.00000   1.00000

 Dipole moment (field-independent basis, Debye):
    X=             -0.1283    Y=             -0.0000    Z=              0.0000  Tot=              0.1283
 Quadrupole moment (field-independent basis, Debye-Ang):
   XX=             -6.9331   YY=             -7.6583   ZZ=             -7.6583
   XY=             -0.0000   XZ=              0.0000   YZ=              0.0000

  Exact polarizability:      25.131       0.000       2.020      -0.000      -0.000       2.020
 Approx polarizability:      18.553      -0.000       1.931       0.000      -0.000       1.931

 ******    2 imaginary frequencies (negative Signs) ******

                      1                      2                      3
                      A                      A                      A
 Frequencies --   -577.9533              -108.8479               211.0628
 Red. masses --      1.0080                 1.1083                 1.0142
 Frc consts  --      0.1984                 0.0077                 0.0266
 IR Inten    --      2.5694                 2.6774                 0.0174

                      4
                      A
 Frequencies --    211.0628
 Red. masses --      1.0142
 Frc consts  --      0.0266
 IR Inten    --      0.0174

 - Thermochemistry -
 -------------------
 Temperature   298.150 Kelvin.  Pressure   1.00000 Atm.
 Atom     1 has atomic number  1 and mass   1.00783

 Molecular mass:    21.01405 amu.
 Principal axes and moments of inertia in atomic units:
                           1         2         3
     Eigenvalues --     0.00000 174.85438 174.85438
           X            1.00000  -0.00000   0.00000
           Y            0.00000   1.00000   0.00000
           Z            0.00000   0.00000   1.00000
 This molecule is a prolate symmetric top.
 Rotational symmetry number  1.
 Rotational temperature (Kelvin)      0.49535
 Rotational constant (GHZ):          10.321395
    2 imaginary frequencies ignored.
 Zero-point vibrational energy       2524.9 (Joules/Mol)
                                    0.60346 (Kcal/Mol)
 Warning -- explicit consideration of   2 degrees of freedom as
           vibrations may cause significant error
 Vibrational temperatures:    303.67   303.67
          (Kelvin)

 Zero-point correction=                           0.000962 (Hartree/Particle)
 Thermal correction to Energy=                    0.004409
 Thermal correction to Enthalpy=                  0.005354
 Thermal correction to Gibbs Free Energy=        -0.020883
 Sum of electronic and zero-point Energies=           -100.760791
 Sum of electronic and thermal Energies=              -100.757343
 Sum of electronic and thermal Enthalpies=            -100.756399
 Sum of electronic and thermal Free Energies=         -100.782636

                     E (Thermal)             CV                S
                      KCal/Mol        Cal/Mol-Kelvin    Cal/Mol-Kelvin
 Total                    2.767              8.616             55.220
 Electronic               0.000              0.000              1.377
 Translational            0.889              2.981             35.068
 Rotational               0.592              1.987             14.705
 Vibrational              1.286              3.648              4.069
 Vibration     1          0.643              1.824              2.034
 Vibration     2          0.643              1.824              2.034

 Normal termination of Gaussian 16 at Sat Aug 23 00:03:30 2025.
