 Gaussian 16, Revision C.01,
 Gaussian 16:  ES64L-G16RevC.01  3-Jul-2019

 -----------------------------------------
 # sp b3lyp/6-311g** Force nosymm scf=(qc)
 -----------------------------------------

 -------------------
 Title Card Required
 -------------------
 Symbolic Z-matrix:
 Charge =  0 Multiplicity = 2

                          Input orientation:
 ---------------------------------------------------------------------
 Center     Atomic      Atomic             Coordinates (Angstroms)
 Number     Number       Type             X           Y           Z
 ---------------------------------------------------------------------
      1          1           0        0.000000    0.000000    0.000000
      2          1           0       -1.300000    0.000000    0.000000
      3          9           0        3.750000    0.000000    0.000000
 ---------------------------------------------------------------------

 SCF Done:  E(UB3LYP) =  -100.853743499     a.u. after  126 cycles

 Alpha  occ. eigenvalues --  -24.76278  -1.22170  -0.55371  -0.46553  -0.46527
 Alpha  occ. eigenvalues --   -0.35287
 Alpha virt. eigenvalues --   -0.06172   0.23552   0.32653   0.86007   0.90884
 Alpha virt. eigenvalues --    0.91588   1.00997   1.15368   1.15370   1.15709
 Alpha virt. eigenvalues --    1.49467   1.49469   1.98430   2.28681   2.52659

  Beta  occ. eigenvalues --  -24.73122  -1.13095  -0.43389  -0.43363  -0.35286
  Beta virt. eigenvalues --   -0.26019  -0.06170   0.23557   0.32670   0.92384
  Beta virt. eigenvalues --    0.93082   0.95472   1.05134   1.15368   1.15370
  Beta virt. eigenvalues --    1.15715   1.49467   1.49469   1.98433   2.28682

 Mulliken charges and spin densities:
               1          2
     1  H    0.000805  -0.000039
     2  H   -0.002347  -0.000136
     3  F    0.001543   1.000175
 Sum of Mulliken charges =   0.00000   1.00000

 Dipole moment (field-independent basis, Debye):
    X=              0.0310    Y=              0.0000    Z=              0.0000  Tot=              0.0310
 Quadrupole moment (field-independent basis, Debye-Ang):
   XX=             -6.3036   YY=             -6.7279   ZZ=             -7.5924
   XY=             -0.0000   XZ=              0.0000   YZ=             -0.0062

  Exact polarizability:      18.011      -0.000       2.539       0.000      -0.003       2.072
 Approx polarizability:      29.383      -0.000       2.669       0.000      -0.004       2.087

 ******    2 imaginary frequencies (negative Signs) ******

                      1                      2                      3
                      A                      A                      A
 Frequencies --   -971.1931               -62.5626              1395.1193
 Red. masses --      1.0078                 1.1085                 1.0100
 Frc consts  --      0.5601                 0.0026                 1.1582
 IR Inten    --      0.1013                 0.0780                 0.0022

                      4
                      A
 Frequencies --   1396.3001
 Red. masses --      1.0100
 Frc consts  --      1.1602
 IR Inten    --      0.0014

 - Thermochemistry -
 -------------------
 Temperature   298.150 Kelvin.  Pressure   1.00000 Atm.
 Atom     1 has atomic number  1 and mass   1.00783

 Molecular mass:    21.01405 amu.
 Principal axes and moments of inertia in atomic units:
                           1         2         3
     Eigenvalues --     0.00000 129.02809 129.02809
           X            1.00000  -0.00000   0.00000
           Y            0.00000   1.00000   0.00000
           Z            0.00000   0.00000   1.00000
 This molecule is a prolate symmetric top.
 Rotational symmetry number  1.
 Rotational temperature (Kelvin)      0.67128
 Rotational constant (GHZ):          13.987196
    2 imaginary frequencies ignored.
 Zero-point vibrational energy      16696.4 (Joules/Mol)
                                    3.99053 (Kcal/Mol)
 Vibrational temperatures:   2007.27  2008.96
          (Kelvin)

 Zero-point correction=                           0.006359 (Hartree/Particle)
 Thermal correction to Energy=                    0.008735
 Thermal correction to Enthalpy=                  0.009679
 Thermal correction to Gibbs Free Energy=        -0.014355
 Sum of electronic and zero-point Energies=           -100.847384
 Sum of electronic and thermal Energies=              -100.845009
 Sum of electronic and thermal Enthalpies=            -100.844064
 Sum of electronic and thermal Free Energies=         -100.868098

                     E (Thermal)             CV                S
                      KCal/Mol        Cal/Mol-Kelvin    Cal/Mol-Kelvin
 Total                    5.481              5.183             50.584
 Electronic               0.000              0.000              1.377
 Translational            0.889              2.981             35.068
 Rotational               0.592              1.987             14.102
 Vibrational              4.000              0.215              0.037

 Normal termination of Gaussian 16 at Sat Aug 23 00:16:29 2025.
