 Gaussian 16, Revision C.01,
 Gaussian 16:  ES64L-G16RevC.01  3-Jul-2019

 -----------------------------------------
 # sp b3lyp/6-311g** Force nosymm scf=(qc)
 -----------------------------------------

 -------------------
 Title Card Required
 -------------------
 Symbolic Z-matrix:
 Charge =  0 Multiplicity = 2

                          Input orientation:
 ---------------------------------------------------------------------
 Center     Atomic      Atomic             Coordinates (Angstroms)
 Number     Number       Type             X           Y           Z
 ---------------------------------------------------------------------
      1          1           0        0.000000    0.000000    0.000000
      2          1           0       -1.300000    0.000000    0.000000
      3          9           0        3.650000    0.000000    0.000000
 ---------------------------------------------------------------------

 SCF Done:  E(UB3LYP) =  -100.853808658     a.u. after  436 cycles

 Alpha  occ. eigenvalues --  -24.76316  -1.22201  -0.55402  -0.46588  -0.46557
 Alpha  occ. eigenvalues --   -0.35277
 Alpha virt. eigenvalues --   -0.06159   0.23555   0.32640   0.85983   0.90860
 Alpha virt. eigenvalues --    0.91775   1.01102   1.15378   1.15380   1.15728
 Alpha virt. eigenvalues --    1.49476   1.49479   1.98526   2.28740   2.52751

  Beta  occ. eigenvalues --  -24.73160  -1.13126  -0.43425  -0.43393  -0.35276
  Beta virt. eigenvalues --   -0.26047  -0.06156   0.23561   0.32662   0.92360
  Beta virt. eigenvalues --    0.93270   0.95449   1.05229   1.15377   1.15380
  Beta virt. eigenvalues --    1.15735   1.49476   1.49479   1.98530   2.28741

 Mulliken charges and spin densities:
               1          2
     1  H    0.000641  -0.000059
     2  H   -0.002653  -0.000172
     3  F    0.002012   1.000231
 Sum of Mulliken charges =  -0.00000   1.00000

 Dipole moment (field-independent basis, Debye):
    X=              0.0373    Y=             -0.0000    Z=              0.0000  Tot=              0.0373
 Quadrupole moment (field-independent basis, Debye-Ang):
   XX=             -6.2854   YY=             -6.7287   ZZ=             -7.5931
   XY=             -0.0000   XZ=              0.0000   YZ=              0.0045

  Exact polarizability:      18.097      -0.000       2.538       0.000       0.002       2.072
 Approx polarizability:      29.436      -0.000       2.669      -0.000       0.003       2.087

 ******    2 imaginary frequencies (negative Signs) ******

                      1                      2                      3
                      A                      A                      A
 Frequencies --   -971.1670               -56.9860              1394.9168
 Red. masses --      1.0078                 1.1085                 1.0101
 Frc consts  --      0.5600                 0.0021                 1.1580
 IR Inten    --      0.1199                 0.1069                 0.0019

                      4
                      A
 Frequencies --   1395.7861
 Red. masses --      1.0101
 Frc consts  --      1.1594
 IR Inten    --      0.0014

 - Thermochemistry -
 -------------------
 Temperature   298.150 Kelvin.  Pressure   1.00000 Atm.
 Atom     1 has atomic number  1 and mass   1.00783

 Molecular mass:    21.01405 amu.
 Principal axes and moments of inertia in atomic units:
                           1         2         3
     Eigenvalues --     0.00000 123.36649 123.36649
           X            1.00000  -0.00000   0.00000
           Y            0.00000   1.00000   0.00000
           Z            0.00000   0.00000   1.00000
 This molecule is a prolate symmetric top.
 Rotational symmetry number  1.
 Rotational temperature (Kelvin)      0.70209
 Rotational constant (GHZ):          14.629104
    2 imaginary frequencies ignored.
 Zero-point vibrational energy      16692.1 (Joules/Mol)
                                    3.98951 (Kcal/Mol)
 Vibrational temperatures:   2006.97  2008.22
          (Kelvin)

 Zero-point correction=                           0.006358 (Hartree/Particle)
 Thermal correction to Energy=                    0.008733
 Thermal correction to Enthalpy=                  0.009677
 Thermal correction to Gibbs Free Energy=        -0.014314
 Sum of electronic and zero-point Energies=           -100.847451
 Sum of electronic and thermal Energies=              -100.845075
 Sum of electronic and thermal Enthalpies=            -100.844131
 Sum of electronic and thermal Free Energies=         -100.868123

                     E (Thermal)             CV                S
                      KCal/Mol        Cal/Mol-Kelvin    Cal/Mol-Kelvin
 Total                    5.480              5.183             50.494
 Electronic               0.000              0.000              1.377
 Translational            0.889              2.981             35.068
 Rotational               0.592              1.987             14.012
 Vibrational              3.999              0.215              0.037

 Normal termination of Gaussian 16 at Fri Aug 22 23:25:27 2025.
