 Gaussian 16, Revision C.01,
 Gaussian 16:  ES64L-G16RevC.01  3-Jul-2019

 -----------------------------------------
 # sp b3lyp/6-311g** Force nosymm scf=(qc)
 -----------------------------------------

 -------------------
 Title Card Required
 -------------------
 Symbolic Z-matrix:
 Charge =  0 Multiplicity = 2

                          Input orientation:
 ---------------------------------------------------------------------
 Center     Atomic      Atomic             Coordinates (Angstroms)
 Number     Number       Type             X           Y           Z
 ---------------------------------------------------------------------
      1          1           0        0.000000    0.000000    0.000000
      2          1           0       -3.950000    0.000000    0.000000
      3          9           0        1.450000    0.000000    0.000000
 ---------------------------------------------------------------------

 SCF Done:  E(UB3LYP) =  -100.865749636     a.u. after    8 cycles

 Alpha  occ. eigenvalues --  -24.64378  -1.09962  -0.43880  -0.36573  -0.36573
 Alpha  occ. eigenvalues --   -0.33601
 Alpha virt. eigenvalues --   -0.13275   0.20697   0.27090   0.93259   0.93259
 Alpha virt. eigenvalues --    1.03519   1.12052   1.23868   1.23906   1.23906
 Alpha virt. eigenvalues --    1.31871   1.31871   1.72169   2.12858   2.19981

  Beta  occ. eigenvalues --  -24.64372  -1.09945  -0.43864  -0.36567  -0.36567
  Beta virt. eigenvalues --   -0.13393  -0.06001   0.23403   0.38347   0.93256
  Beta virt. eigenvalues --    0.93256   1.03535   1.12058   1.31842   1.31842
  Beta virt. eigenvalues --    1.46664   1.46957   1.46957   1.72179   2.18899

 Mulliken charges and spin densities:
               1          2
     1  H    0.353837  -0.001547
     2  H    0.000574   0.999395
     3  F   -0.354411   0.002151
 Sum of Mulliken charges =   0.00000   1.00000

 Dipole moment (field-independent basis, Debye):
    X=             -2.5476    Y=              0.0000    Z=             -0.0000  Tot=              2.5476
 Quadrupole moment (field-independent basis, Debye-Ang):
   XX=             -9.7882   YY=             -7.2930   ZZ=             -7.2930
   XY=              0.0000   XZ=             -0.0000   YZ=              0.0000

  Exact polarizability:      13.624      -0.000       2.209      -0.000      -0.000       2.209
 Approx polarizability:      24.926       0.000       2.137      -0.000      -0.000       2.137

 ******    2 imaginary frequencies (negative Signs) ******

                      1                      2                      3
                      A                      A                      A
 Frequencies --  -1095.7698               -40.8323              1061.1103
 Red. masses --      1.0581                 1.0535                 1.0331
 Frc consts  --      0.7485                 0.0010                 0.6853
 IR Inten    --     41.5709                 0.0312               124.4409

                      4
                      A
 Frequencies --   1061.1103
 Red. masses --      1.0331
 Frc consts  --      0.6853
 IR Inten    --    124.4409

 - Thermochemistry -
 -------------------
 Temperature   298.150 Kelvin.  Pressure   1.00000 Atm.
 Atom     1 has atomic number  1 and mass   1.00783

 Molecular mass:    21.01405 amu.
 Principal axes and moments of inertia in atomic units:
                           1         2         3
     Eigenvalues --     0.00000 104.41486 104.41486
           X            1.00000  -0.00000   0.00000
           Y            0.00000   1.00000   0.00000
           Z            0.00000   0.00000   1.00000
 This molecule is a prolate symmetric top.
 Rotational symmetry number  1.
 Rotational temperature (Kelvin)      0.82952
 Rotational constant (GHZ):          17.284334
    2 imaginary frequencies ignored.
 Zero-point vibrational energy      12693.7 (Joules/Mol)
                                    3.03387 (Kcal/Mol)
 Vibrational temperatures:   1526.70  1526.70
          (Kelvin)

 Zero-point correction=                           0.004835 (Hartree/Particle)
 Thermal correction to Energy=                    0.007253
 Thermal correction to Enthalpy=                  0.008198
 Thermal correction to Gibbs Free Energy=        -0.015689
 Sum of electronic and zero-point Energies=           -100.860915
 Sum of electronic and thermal Energies=              -100.858496
 Sum of electronic and thermal Enthalpies=            -100.857552
 Sum of electronic and thermal Free Energies=         -100.881438

                     E (Thermal)             CV                S
                      KCal/Mol        Cal/Mol-Kelvin    Cal/Mol-Kelvin
 Total                    4.552              5.598             50.272
 Electronic               0.000              0.000              1.377
 Translational            0.889              2.981             35.068
 Rotational               0.592              1.987             13.681
 Vibrational              3.070              0.630              0.146

 Normal termination of Gaussian 16 at Fri Aug 22 16:24:10 2025.
