 Gaussian 16, Revision C.01,
 Gaussian 16:  ES64L-G16RevC.01  3-Jul-2019

 -----------------------------------------
 # sp b3lyp/6-311g** Force nosymm scf=(qc)
 -----------------------------------------

 -------------------
 Title Card Required
 -------------------
 Symbolic Z-matrix:
 Charge =  0 Multiplicity = 2

                          Input orientation:
 ---------------------------------------------------------------------
 Center     Atomic      Atomic             Coordinates (Angstroms)
 Number     Number       Type             X           Y           Z
 ---------------------------------------------------------------------
      1          1           0        0.000000    0.000000    0.000000
      2          1           0       -2.800000    0.000000    0.000000
      3          9           0        3.650000    0.000000    0.000000
 ---------------------------------------------------------------------

 SCF Done:  E(UB3LYP) =  -100.760531738     a.u. after   28 cycles

 Alpha  occ. eigenvalues --  -24.75628  -1.21573  -0.54751  -0.45970  -0.45970
 Alpha  occ. eigenvalues --   -0.32465
 Alpha virt. eigenvalues --   -0.08435   0.25329   0.35511   0.87181   0.91328
 Alpha virt. eigenvalues --    0.91328   1.01473   1.25100   1.25100   1.26232
 Alpha virt. eigenvalues --    1.43234   1.43234   1.43566   2.15974   2.38682

  Beta  occ. eigenvalues --  -24.72499  -1.12580  -0.42834  -0.42834  -0.32757
  Beta virt. eigenvalues --   -0.25612  -0.08040   0.25121   0.36101   0.92822
  Beta virt. eigenvalues --    0.92822   0.96428   1.05545   1.24765   1.24765
  Beta virt. eigenvalues --    1.25856   1.43846   1.43846   1.44176   2.16218

 Mulliken charges and spin densities:
               1          2
     1  H    0.006351  -0.979045
     2  H    0.000816   0.987042
     3  F   -0.007167   0.992003
 Sum of Mulliken charges =   0.00000   1.00000

 Dipole moment (field-independent basis, Debye):
    X=             -0.1455    Y=              0.0000    Z=              0.0000  Tot=              0.1455
 Quadrupole moment (field-independent basis, Debye-Ang):
   XX=             -7.0645   YY=             -7.6449   ZZ=             -7.6449
   XY=              0.0000   XZ=              0.0000   YZ=              0.0000

  Exact polarizability:      23.890      -0.000       2.016      -0.000       0.000       2.016
 Approx polarizability:      17.741       0.000       1.932       0.000      -0.000       1.932

 ******    2 imaginary frequencies (negative Signs) ******

                      1                      2                      3
                      A                      A                      A
 Frequencies --   -444.5382              -114.8495               160.5382
 Red. masses --      1.0084                 1.1079                 1.0150
 Frc consts  --      0.1174                 0.0086                 0.0154
 IR Inten    --      3.5235                 3.0382                 0.0385

                      4
                      A
 Frequencies --    160.5382
 Red. masses --      1.0150
 Frc consts  --      0.0154
 IR Inten    --      0.0385

 - Thermochemistry -
 -------------------
 Temperature   298.150 Kelvin.  Pressure   1.00000 Atm.
 Atom     1 has atomic number  1 and mass   1.00783

 Molecular mass:    21.01405 amu.
 Principal axes and moments of inertia in atomic units:
                           1         2         3
     Eigenvalues --     0.00000 180.06791 180.06791
           X            1.00000  -0.00000   0.00000
           Y            0.00000   1.00000   0.00000
           Z            0.00000   0.00000   1.00000
 This molecule is a prolate symmetric top.
 Rotational symmetry number  1.
 Rotational temperature (Kelvin)      0.48101
 Rotational constant (GHZ):          10.022559
    2 imaginary frequencies ignored.
 Zero-point vibrational energy       1920.5 (Joules/Mol)
                                    0.45900 (Kcal/Mol)
 Warning -- explicit consideration of   2 degrees of freedom as
           vibrations may cause significant error
 Vibrational temperatures:    230.98   230.98
          (Kelvin)

 Zero-point correction=                           0.000731 (Hartree/Particle)
 Thermal correction to Energy=                    0.004342
 Thermal correction to Enthalpy=                  0.005287
 Thermal correction to Gibbs Free Energy=        -0.021462
 Sum of electronic and zero-point Energies=           -100.759800
 Sum of electronic and thermal Energies=              -100.756189
 Sum of electronic and thermal Enthalpies=            -100.755245
 Sum of electronic and thermal Free Energies=         -100.781993

                     E (Thermal)             CV                S
                      KCal/Mol        Cal/Mol-Kelvin    Cal/Mol-Kelvin
 Total                    2.725              8.749             56.296
 Electronic               0.000              0.000              1.377
 Translational            0.889              2.981             35.068
 Rotational               0.592              1.987             14.764
 Vibrational              1.244              3.781              5.087
 Vibration     1          0.622              1.891              2.543
 Vibration     2          0.622              1.891              2.543

 Normal termination of Gaussian 16 at Fri Aug 22 23:37:00 2025.
