 Gaussian 16, Revision C.01,
 Gaussian 16:  ES64L-G16RevC.01  3-Jul-2019

 -----------------------------------------
 # sp b3lyp/6-311g** Force nosymm scf=(qc)
 -----------------------------------------

 -------------------
 Title Card Required
 -------------------
 Symbolic Z-matrix:
 Charge =  0 Multiplicity = 2

                          Input orientation:
 ---------------------------------------------------------------------
 Center     Atomic      Atomic             Coordinates (Angstroms)
 Number     Number       Type             X           Y           Z
 ---------------------------------------------------------------------
      1          1           0        0.000000    0.000000    0.000000
      2          1           0       -1.800000    0.000000    0.000000
      3          9           0        3.500000    0.000000    0.000000
 ---------------------------------------------------------------------

 SCF Done:  E(UB3LYP) =  -100.786255016     a.u. after   73 cycles

 Alpha  occ. eigenvalues --  -24.75742  -1.21681  -0.54865  -0.46077  -0.46075
 Alpha  occ. eigenvalues --   -0.33308
 Alpha virt. eigenvalues --   -0.11117   0.25701   0.31036   0.87451   0.91232
 Alpha virt. eigenvalues --    0.91324   1.01645   1.09707   1.24309   1.24309
 Alpha virt. eigenvalues --    1.37342   1.37343   1.61105   2.14664   2.39427

  Beta  occ. eigenvalues --  -24.72615  -1.12690  -0.42943  -0.42940  -0.33305
  Beta virt. eigenvalues --   -0.25748  -0.10981   0.25638   0.31365   0.92725
  Beta virt. eigenvalues --    0.92777   0.96689   1.05704   1.09752   1.24312
  Beta virt. eigenvalues --    1.24313   1.37495   1.37495   1.61256   2.15129

 Mulliken charges and spin densities:
               1          2
     1  H    0.000068  -0.717245
     2  H    0.006671   0.725553
     3  F   -0.006739   0.991692
 Sum of Mulliken charges =   0.00000   1.00000

 Dipole moment (field-independent basis, Debye):
    X=             -0.1780    Y=             -0.0005    Z=             -0.0003  Tot=              0.1780
 Quadrupole moment (field-independent basis, Debye-Ang):
   XX=             -6.2961   YY=             -7.7085   ZZ=             -7.7428
   XY=             -0.1915   XZ=             -0.0955   YZ=              0.0228

  Exact polarizability:      57.806      -0.266       2.038      -0.393       0.015       2.027
 Approx polarizability:      45.122      -0.110       1.990      -0.055       0.015       1.966

 ******    2 imaginary frequencies (negative Signs) ******

                      1                      2                      3
                      A                      A                      A
 Frequencies --  -1744.3091              -136.4578               768.2190
 Red. masses --      1.0078                 1.1085                 1.0119
 Frc consts  --      1.8067                 0.0122                 0.3518
 IR Inten    --     77.0197                13.7319                 0.4848

                      4
                      A
 Frequencies --    768.6597
 Red. masses --      1.0119
 Frc consts  --      0.3523
 IR Inten    --      0.0793

 - Thermochemistry -
 -------------------
 Temperature   298.150 Kelvin.  Pressure   1.00000 Atm.
 Atom     1 has atomic number  1 and mass   1.00783

 Molecular mass:    21.01405 amu.
 Principal axes and moments of inertia in atomic units:
                           1         2         3
     Eigenvalues --     0.00000 131.81733 131.81733
           X            1.00000  -0.00000   0.00000
           Y            0.00000   1.00000   0.00000
           Z            0.00000   0.00000   1.00000
 This molecule is a prolate symmetric top.
 Rotational symmetry number  1.
 Rotational temperature (Kelvin)      0.65708
 Rotational constant (GHZ):          13.691229
    2 imaginary frequencies ignored.
 Zero-point vibrational energy       9192.6 (Joules/Mol)
                                    2.19708 (Kcal/Mol)
 Vibrational temperatures:   1105.30  1105.93
          (Kelvin)

 Zero-point correction=                           0.003501 (Hartree/Particle)
 Thermal correction to Energy=                    0.006038
 Thermal correction to Enthalpy=                  0.006982
 Thermal correction to Gibbs Free Energy=        -0.017278
 Sum of electronic and zero-point Energies=           -100.782754
 Sum of electronic and thermal Energies=              -100.780217
 Sum of electronic and thermal Enthalpies=            -100.779273
 Sum of electronic and thermal Free Energies=         -100.803533

                     E (Thermal)             CV                S
                      KCal/Mol        Cal/Mol-Kelvin    Cal/Mol-Kelvin
 Total                    3.789              6.376             51.059
 Electronic               0.000              0.000              1.377
 Translational            0.889              2.981             35.068
 Rotational               0.592              1.987             14.144
 Vibrational              2.308              1.408              0.469

 Normal termination of Gaussian 16 at Fri Aug 22 22:08:38 2025.
