 Gaussian 16, Revision C.01,
 Gaussian 16:  ES64L-G16RevC.01  3-Jul-2019

 -----------------------------------------
 # sp b3lyp/6-311g** Force nosymm scf=(qc)
 -----------------------------------------

 -------------------
 Title Card Required
 -------------------
 Symbolic Z-matrix:
 Charge =  0 Multiplicity = 2

                          Input orientation:
 ---------------------------------------------------------------------
 Center     Atomic      Atomic             Coordinates (Angstroms)
 Number     Number       Type             X           Y           Z
 ---------------------------------------------------------------------
      1          1           0        0.000000    0.000000    0.000000
      2          1           0       -1.150000    0.000000    0.000000
      3          9           0        2.950000    0.000000    0.000000
 ---------------------------------------------------------------------

 SCF Done:  E(UB3LYP) =  -100.881329698     a.u. after   75 cycles

 Alpha  occ. eigenvalues --  -24.76721  -1.22535  -0.55722  -0.46984  -0.46872
 Alpha  occ. eigenvalues --   -0.36727
 Alpha virt. eigenvalues --   -0.02715   0.22691   0.35640   0.85742   0.90615
 Alpha virt. eigenvalues --    0.93463   1.04560   1.11937   1.11945   1.25994
 Alpha virt. eigenvalues --    1.57238   1.57246   2.13261   2.33738   2.55846

  Beta  occ. eigenvalues --  -24.73559  -1.13448  -0.43829  -0.43702  -0.36709
  Beta virt. eigenvalues --   -0.26345  -0.02693   0.22715   0.35724   0.92113
  Beta virt. eigenvalues --    0.95195   0.95199   1.08370   1.11937   1.11943
  Beta virt. eigenvalues --    1.25998   1.57237   1.57245   2.13271   2.33742

 Mulliken charges and spin densities:
               1          2
     1  H   -0.001910  -0.000418
     2  H   -0.006752  -0.000743
     3  F    0.008662   1.001161
 Sum of Mulliken charges =   0.00000   1.00000

 Dipole moment (field-independent basis, Debye):
    X=              0.1118    Y=              0.0000    Z=              0.0000  Tot=              0.1118
 Quadrupole moment (field-independent basis, Debye-Ang):
   XX=             -6.1369   YY=             -7.2578   ZZ=             -6.7796
   XY=             -0.0000   XZ=             -0.0000   YZ=              0.3595

  Exact polarizability:      15.539       0.000       2.185      -0.000       0.191       2.439
 Approx polarizability:      22.229      -0.000       2.246      -0.000       0.241       2.566

                      1                      2                      3
                      A                      A                      A
 Frequencies --     42.6455               583.7441              1500.2762
 Red. masses --      1.1085                 1.0078                 1.0104
 Frc consts  --      0.0012                 0.2023                 1.3400
 IR Inten    --      0.5748                 1.1562                 0.0016

                      4
                      A
 Frequencies --   1501.9962
 Red. masses --      1.0104
 Frc consts  --      1.3431
 IR Inten    --      0.0016

 - Thermochemistry -
 -------------------
 Temperature   298.150 Kelvin.  Pressure   1.00000 Atm.
 Atom     1 has atomic number  1 and mass   1.00783

 Molecular mass:    21.01405 amu.
 Principal axes and moments of inertia in atomic units:
                           1         2         3
     Eigenvalues --     0.00000  83.24071  83.24071
           X            1.00000  -0.00000   0.00000
           Y            0.00000   1.00000   0.00000
           Z            0.00000   0.00000   1.00000
 This molecule is a prolate symmetric top.
 Rotational symmetry number  1.
 Rotational temperature (Kelvin)      1.04052
 Rotational constant (GHZ):          21.680992
 Zero-point vibrational energy      21704.2 (Joules/Mol)
                                    5.18743 (Kcal/Mol)
 Warning -- explicit consideration of   2 degrees of freedom as
           vibrations may cause significant error
 Vibrational temperatures:     61.36   839.88  2158.56  2161.04
          (Kelvin)

 Zero-point correction=                           0.008267 (Hartree/Particle)
 Thermal correction to Energy=                    0.011656
 Thermal correction to Enthalpy=                  0.012601
 Thermal correction to Gibbs Free Energy=        -0.013679
 Sum of electronic and zero-point Energies=           -100.873063
 Sum of electronic and thermal Energies=              -100.869673
 Sum of electronic and thermal Enthalpies=            -100.868729
 Sum of electronic and thermal Free Energies=         -100.895009

                     E (Thermal)             CV                S
                      KCal/Mol        Cal/Mol-Kelvin    Cal/Mol-Kelvin
 Total                    7.315              8.164             55.310
 Electronic               0.000              0.000              1.377
 Translational            0.889              2.981             35.068
 Rotational               0.592              1.987             13.231
 Vibrational              5.833              3.196              5.634
 Vibration     1          0.595              1.980              5.132
 Vibration     2          0.941              1.067              0.478

 Normal termination of Gaussian 16 at Fri Aug 22 19:12:43 2025.
