 Gaussian 16, Revision C.01,
 Gaussian 16:  ES64L-G16RevC.01  3-Jul-2019

 -----------------------------------------
 # sp b3lyp/6-311g** Force nosymm scf=(qc)
 -----------------------------------------

 -------------------
 Title Card Required
 -------------------
 Symbolic Z-matrix:
 Charge =  0 Multiplicity = 2

                          Input orientation:
 ---------------------------------------------------------------------
 Center     Atomic      Atomic             Coordinates (Angstroms)
 Number     Number       Type             X           Y           Z
 ---------------------------------------------------------------------
      1          1           0        0.000000    0.000000    0.000000
      2          1           0       -3.900000    0.000000    0.000000
      3          9           0        3.550000    0.000000    0.000000
 ---------------------------------------------------------------------

 SCF Done:  E(UB3LYP) =  -100.758811639     a.u. after   28 cycles

 Alpha  occ. eigenvalues --  -24.75458  -1.21416  -0.54581  -0.45827  -0.45827
 Alpha  occ. eigenvalues --   -0.32286
 Alpha virt. eigenvalues --   -0.06236   0.24138   0.37371   0.87438   0.91437
 Alpha virt. eigenvalues --    0.91437   1.01692   1.25209   1.25209   1.25240
 Alpha virt. eigenvalues --    1.46349   1.46349   1.46998   2.14599   2.42437

  Beta  occ. eigenvalues --  -24.72339  -1.12454  -0.42701  -0.42701  -0.32752
  Beta virt. eigenvalues --   -0.25519  -0.05917   0.23870   0.38187   0.92927
  Beta virt. eigenvalues --    0.92927   0.96606   1.05717   1.24680   1.24680
  Beta virt. eigenvalues --    1.24694   1.46589   1.46711   1.46711   2.14729

 Mulliken charges and spin densities:
               1          2
     1  H    0.010091  -0.988060
     2  H    0.000056   0.999206
     3  F   -0.010147   0.988854
 Sum of Mulliken charges =  -0.00000   1.00000

 Dipole moment (field-independent basis, Debye):
    X=             -0.1864    Y=             -0.0000    Z=              0.0000  Tot=              0.1864
 Quadrupole moment (field-independent basis, Debye-Ang):
   XX=             -7.3552   YY=             -7.6179   ZZ=             -7.6179
   XY=              0.0000   XZ=             -0.0000   YZ=             -0.0000

  Exact polarizability:      21.553       0.000       2.038      -0.000       0.000       2.038
 Approx polarizability:      16.801       0.000       1.935      -0.000       0.000       1.935

 ******    2 imaginary frequencies (negative Signs) ******

                      1                      2                      3
                      A                      A                      A
 Frequencies --   -208.3777               -72.9575                55.0673
 Red. masses --      1.0424                 1.0695                 1.0191
 Frc consts  --      0.0267                 0.0034                 0.0018
 IR Inten    --      9.5144                 0.2568                 0.0902

                      4
                      A
 Frequencies --     55.0674
 Red. masses --      1.0191
 Frc consts  --      0.0018
 IR Inten    --      0.0902

 - Thermochemistry -
 -------------------
 Temperature   298.150 Kelvin.  Pressure   1.00000 Atm.
 Atom     1 has atomic number  1 and mass   1.00783

 Molecular mass:    21.01405 amu.
 Principal axes and moments of inertia in atomic units:
                           1         2         3
     Eigenvalues --     0.00000 224.22504 224.22504
           X            1.00000  -0.00000   0.00000
           Y            0.00000   1.00000   0.00000
           Z            0.00000   0.00000   1.00000
 This molecule is a prolate symmetric top.
 Rotational symmetry number  1.
 Rotational temperature (Kelvin)      0.38628
 Rotational constant (GHZ):           8.048794
    2 imaginary frequencies ignored.
 Zero-point vibrational energy        658.8 (Joules/Mol)
                                    0.15745 (Kcal/Mol)
 Warning -- explicit consideration of   2 degrees of freedom as
           vibrations may cause significant error
 Vibrational temperatures:     79.23    79.23
          (Kelvin)

 Zero-point correction=                           0.000251 (Hartree/Particle)
 Thermal correction to Energy=                    0.004260
 Thermal correction to Enthalpy=                  0.005204
 Thermal correction to Gibbs Free Energy=        -0.023731
 Sum of electronic and zero-point Energies=           -100.758561
 Sum of electronic and thermal Energies=              -100.754552
 Sum of electronic and thermal Enthalpies=            -100.753608
 Sum of electronic and thermal Free Energies=         -100.782542

                     E (Thermal)             CV                S
                      KCal/Mol        Cal/Mol-Kelvin    Cal/Mol-Kelvin
 Total                    2.673              8.919             60.898
 Electronic               0.000              0.000              1.377
 Translational            0.889              2.981             35.068
 Rotational               0.592              1.987             15.200
 Vibrational              1.192              3.951              9.253
 Vibration     1          0.596              1.976              4.627
 Vibration     2          0.596              1.976              4.627

 Normal termination of Gaussian 16 at Fri Aug 22 22:42:02 2025.
