 Gaussian 16, Revision C.01,
 Gaussian 16:  ES64L-G16RevC.01  3-Jul-2019

 -----------------------------------------
 # sp b3lyp/6-311g** Force nosymm scf=(qc)
 -----------------------------------------

 -------------------
 Title Card Required
 -------------------
 Symbolic Z-matrix:
 Charge =  0 Multiplicity = 2

                          Input orientation:
 ---------------------------------------------------------------------
 Center     Atomic      Atomic             Coordinates (Angstroms)
 Number     Number       Type             X           Y           Z
 ---------------------------------------------------------------------
      1          1           0        0.000000    0.000000    0.000000
      2          1           0       -3.050000    0.000000    0.000000
      3          9           0        2.950000    0.000000    0.000000
 ---------------------------------------------------------------------

 SCF Done:  E(UB3LYP) =  -100.762143293     a.u. after   21 cycles

 Alpha  occ. eigenvalues --  -24.73917  -1.19988  -0.53035  -0.44533  -0.44533
 Alpha  occ. eigenvalues --   -0.32730
 Alpha virt. eigenvalues --   -0.09077   0.24544   0.35170   0.89607   0.92377
 Alpha virt. eigenvalues --    0.92377   1.04231   1.24804   1.24804   1.25512
 Alpha virt. eigenvalues --    1.42499   1.42499   1.42997   2.15396   2.38817

  Beta  occ. eigenvalues --  -24.70902  -1.11352  -0.41516  -0.41516  -0.33882
  Beta virt. eigenvalues --   -0.24682  -0.07527   0.24600   0.36854   0.93834
  Beta virt. eigenvalues --    0.93834   0.98247   1.07974   1.23476   1.23476
  Beta virt. eigenvalues --    1.24486   1.44741   1.44833   1.44833   2.15737

 Mulliken charges and spin densities:
               1          2
     1  H    0.039078  -0.948731
     2  H    0.001537   0.993532
     3  F   -0.040615   0.955200
 Sum of Mulliken charges =  -0.00000   1.00000

 Dipole moment (field-independent basis, Debye):
    X=             -0.6375    Y=             -0.0000    Z=              0.0000  Tot=              0.6375
 Quadrupole moment (field-independent basis, Debye-Ang):
   XX=             -8.3109   YY=             -7.6178   ZZ=             -7.6178
   XY=             -0.0000   XZ=              0.0000   YZ=              0.0000

  Exact polarizability:      34.841      -0.000       2.022       0.000       0.000       2.022
 Approx polarizability:      35.078      -0.000       1.924       0.000      -0.000       1.924

 ******    2 imaginary frequencies (negative Signs) ******

                      1                      2                      3
                      A                      A                      A
 Frequencies --   -447.2674              -183.4104               164.6845
 Red. masses --      1.0303                 1.0825                 1.0184
 Frc consts  --      0.1214                 0.0215                 0.0163
 IR Inten    --     39.1341                 4.5408                 1.3729

                      4
                      A
 Frequencies --    164.6845
 Red. masses --      1.0184
 Frc consts  --      0.0163
 IR Inten    --      1.3729

 - Thermochemistry -
 -------------------
 Temperature   298.150 Kelvin.  Pressure   1.00000 Atm.
 Atom     1 has atomic number  1 and mass   1.00783

 Molecular mass:    21.01405 amu.
 Principal axes and moments of inertia in atomic units:
                           1         2         3
     Eigenvalues --     0.00000 147.05843 147.05843
           X            1.00000  -0.00000   0.00000
           Y            0.00000   1.00000   0.00000
           Z            0.00000   0.00000   1.00000
 This molecule is a prolate symmetric top.
 Rotational symmetry number  1.
 Rotational temperature (Kelvin)      0.58898
 Rotational constant (GHZ):          12.272273
    2 imaginary frequencies ignored.
 Zero-point vibrational energy       1970.1 (Joules/Mol)
                                    0.47086 (Kcal/Mol)
 Warning -- explicit consideration of   2 degrees of freedom as
           vibrations may cause significant error
 Vibrational temperatures:    236.94   236.94
          (Kelvin)

 Zero-point correction=                           0.000750 (Hartree/Particle)
 Thermal correction to Energy=                    0.004347
 Thermal correction to Enthalpy=                  0.005291
 Thermal correction to Gibbs Free Energy=        -0.021220
 Sum of electronic and zero-point Energies=           -100.761393
 Sum of electronic and thermal Energies=              -100.757796
 Sum of electronic and thermal Enthalpies=            -100.756852
 Sum of electronic and thermal Free Energies=         -100.783363

                     E (Thermal)             CV                S
                      KCal/Mol        Cal/Mol-Kelvin    Cal/Mol-Kelvin
 Total                    2.728              8.740             55.797
 Electronic               0.000              0.000              1.377
 Translational            0.889              2.981             35.068
 Rotational               0.592              1.987             14.361
 Vibrational              1.247              3.772              4.991
 Vibration     1          0.623              1.886              2.495
 Vibration     2          0.623              1.886              2.495

 Normal termination of Gaussian 16 at Fri Aug 22 19:18:30 2025.
