 Gaussian 16, Revision C.01,
 Gaussian 16:  ES64L-G16RevC.01  3-Jul-2019

 -----------------------------------------
 # sp b3lyp/6-311g** Force nosymm scf=(qc)
 -----------------------------------------

 -------------------
 Title Card Required
 -------------------
 Symbolic Z-matrix:
 Charge =  0 Multiplicity = 2

                          Input orientation:
 ---------------------------------------------------------------------
 Center     Atomic      Atomic             Coordinates (Angstroms)
 Number     Number       Type             X           Y           Z
 ---------------------------------------------------------------------
      1          1           0        0.000000    0.000000    0.000000
      2          1           0       -1.800000    0.000000    0.000000
      3          9           0        0.500000    0.000000    0.000000
 ---------------------------------------------------------------------

 SCF Done:  E(UB3LYP) =  -100.266450941     a.u. after    7 cycles

 Alpha  occ. eigenvalues --  -24.63071  -1.42475  -0.63723  -0.44380  -0.44380
 Alpha  occ. eigenvalues --   -0.35168
 Alpha virt. eigenvalues --    0.12779   0.23332   0.58794   0.89599   0.90022
 Alpha virt. eigenvalues --    0.90022   1.21896   1.21896   1.31934   1.58894
 Alpha virt. eigenvalues --    1.58894   1.62734   2.06979   2.21456   3.76596

  Beta  occ. eigenvalues --  -24.63031  -1.42345  -0.63592  -0.44360  -0.44360
  Beta virt. eigenvalues --   -0.09992   0.14017   0.33638   0.62063   0.89705
  Beta virt. eigenvalues --    0.90038   0.90038   1.38927   1.41613   1.41613
  Beta virt. eigenvalues --    1.59383   1.59383   1.71723   2.09982   2.46607

 Mulliken charges and spin densities:
               1          2
     1  H    0.087172   0.014245
     2  H    0.010739   0.985791
     3  F   -0.097912  -0.000036
 Sum of Mulliken charges =   0.00000   1.00000

 Dipole moment (field-independent basis, Debye):
    X=             -1.3405    Y=             -0.0000    Z=             -0.0000  Tot=              1.3405
 Quadrupole moment (field-independent basis, Debye-Ang):
   XX=             -6.4820   YY=             -6.3955   ZZ=             -6.3955
   XY=             -0.0000   XZ=             -0.0000   YZ=             -0.0000

  Exact polarizability:       5.370       0.000       2.458       0.000       0.000       2.458
 Approx polarizability:       5.101      -0.000       2.457      -0.000       0.000       2.457

 ******    2 imaginary frequencies (negative Signs) ******

                      1                      2                      3
                      A                      A                      A
 Frequencies --  -9456.2546             -9456.2546               586.5894
 Red. masses --      1.0374                 1.0374                 1.0533
 Frc consts  --     54.6548                54.6548                 0.2135
 IR Inten    --    228.4315               228.4315                 0.7622

                      4
                      A
 Frequencies --  19156.9037
 Red. masses --      1.0583
 Frc consts  --    228.8202
 IR Inten    --     84.0754

 - Thermochemistry -
 -------------------
 Temperature   298.150 Kelvin.  Pressure   1.00000 Atm.
 Atom     1 has atomic number  1 and mass   1.00783

 Molecular mass:    21.01405 amu.
 Principal axes and moments of inertia in atomic units:
                           1         2         3
     Eigenvalues --     0.00000  18.58527  18.58527
           X            1.00000  -0.00000   0.00000
           Y            0.00000   1.00000   0.00000
           Z            0.00000   0.00000   1.00000
 This molecule is a prolate symmetric top.
 Rotational symmetry number  1.
 Rotational temperature (Kelvin)      4.66035
 Rotational constant (GHZ):          97.106003
    2 imaginary frequencies ignored.
 Zero-point vibrational energy     118092.3 (Joules/Mol)
                                   28.22474 (Kcal/Mol)
 Warning -- explicit consideration of   1 degrees of freedom as
           vibrations may cause significant error
 Vibrational temperatures:    843.97 27562.51
          (Kelvin)

 Zero-point correction=                           0.044979 (Hartree/Particle)
 Thermal correction to Energy=                    0.047507
 Thermal correction to Enthalpy=                  0.048451
 Thermal correction to Gibbs Free Energy=         0.026039
 Sum of electronic and zero-point Energies=           -100.221472
 Sum of electronic and thermal Energies=              -100.218944
 Sum of electronic and thermal Enthalpies=            -100.218000
 Sum of electronic and thermal Free Energies=         -100.240412

                     E (Thermal)             CV                S
                      KCal/Mol        Cal/Mol-Kelvin    Cal/Mol-Kelvin
 Total                   29.811              6.028             47.170
 Electronic               0.000              0.000              1.377
 Translational            0.889              2.981             35.068
 Rotational               0.592              1.987             10.251
 Vibrational             28.330              1.060              0.473
 Vibration     1          0.944              1.060              0.473

 Normal termination of Gaussian 16 at Fri Aug 22 15:36:46 2025.
