 Gaussian 16, Revision C.01,
 Gaussian 16:  ES64L-G16RevC.01  3-Jul-2019

 -----------------------------------------
 # sp b3lyp/6-311g** Force nosymm scf=(qc)
 -----------------------------------------

 -------------------
 Title Card Required
 -------------------
 Symbolic Z-matrix:
 Charge =  0 Multiplicity = 2

                          Input orientation:
 ---------------------------------------------------------------------
 Center     Atomic      Atomic             Coordinates (Angstroms)
 Number     Number       Type             X           Y           Z
 ---------------------------------------------------------------------
      1          1           0        0.000000    0.000000    0.000000
      2          1           0       -2.000000    0.000000    0.000000
      3          9           0        1.350000    0.000000    0.000000
 ---------------------------------------------------------------------

 SCF Done:  E(UB3LYP) =  -100.892842221     a.u. after    8 cycles

 Alpha  occ. eigenvalues --  -24.63653  -1.10305  -0.45616  -0.36903  -0.36314
 Alpha  occ. eigenvalues --   -0.36314
 Alpha virt. eigenvalues --   -0.07860   0.23404   0.27452   0.93648   0.93648
 Alpha virt. eigenvalues --    1.02775   1.08676   1.20203   1.20203   1.34506
 Alpha virt. eigenvalues --    1.34506   1.38707   1.70755   2.10913   2.28529

  Beta  occ. eigenvalues --  -24.63354  -1.09531  -0.44265  -0.36034  -0.36034
  Beta virt. eigenvalues --   -0.16349  -0.03929   0.26847   0.33191   0.93602
  Beta virt. eigenvalues --    0.93602   1.03598   1.14492   1.32891   1.32891
  Beta virt. eigenvalues --    1.39201   1.39201   1.50025   1.71287   2.20984

 Mulliken charges and spin densities:
               1          2
     1  H    0.329426  -0.041587
     2  H    0.036197   0.949495
     3  F   -0.365623   0.092092
 Sum of Mulliken charges =  -0.00000   1.00000

 Dipole moment (field-independent basis, Debye):
    X=             -2.8419    Y=              0.0000    Z=             -0.0000  Tot=              2.8419
 Quadrupole moment (field-independent basis, Debye-Ang):
   XX=             -8.5754   YY=             -7.1975   ZZ=             -7.1975
   XY=              0.0000   XZ=             -0.0000   YZ=              0.0000

  Exact polarizability:      20.881       0.000       2.305       0.000      -0.000       2.305
 Approx polarizability:      28.454       0.000       2.252      -0.000      -0.000       2.252

 ******    2 imaginary frequencies (negative Signs) ******

                      1                      2                      3
                      A                      A                      A
 Frequencies --  -1316.5136              -254.4853              1089.1604
 Red. masses --      1.0327                 1.0799                 1.0233
 Frc consts  --      1.0546                 0.0412                 0.7152
 IR Inten    --    203.2299                 0.4745                89.4885

                      4
                      A
 Frequencies --   1089.1604
 Red. masses --      1.0233
 Frc consts  --      0.7152
 IR Inten    --     89.4885

 - Thermochemistry -
 -------------------
 Temperature   298.150 Kelvin.  Pressure   1.00000 Atm.
 Atom     1 has atomic number  1 and mass   1.00783

 Molecular mass:    21.01405 amu.
 Principal axes and moments of inertia in atomic units:
                           1         2         3
     Eigenvalues --     0.00000  43.13618  43.13618
           X            1.00000  -0.00000   0.00000
           Y            0.00000   1.00000   0.00000
           Z            0.00000   0.00000   1.00000
 This molecule is a prolate symmetric top.
 Rotational symmetry number  1.
 Rotational temperature (Kelvin)      2.00792
 Rotational constant (GHZ):          41.838225
    2 imaginary frequencies ignored.
 Zero-point vibrational energy      13029.3 (Joules/Mol)
                                    3.11407 (Kcal/Mol)
 Vibrational temperatures:   1567.06  1567.06
          (Kelvin)

 Zero-point correction=                           0.004963 (Hartree/Particle)
 Thermal correction to Energy=                    0.007375
 Thermal correction to Enthalpy=                  0.008319
 Thermal correction to Gibbs Free Energy=        -0.014725
 Sum of electronic and zero-point Energies=           -100.887880
 Sum of electronic and thermal Energies=              -100.885467
 Sum of electronic and thermal Enthalpies=            -100.884523
 Sum of electronic and thermal Free Energies=         -100.907567

                     E (Thermal)             CV                S
                      KCal/Mol        Cal/Mol-Kelvin    Cal/Mol-Kelvin
 Total                    4.628              5.547             48.500
 Electronic               0.000              0.000              1.377
 Translational            0.889              2.981             35.068
 Rotational               0.592              1.987             11.924
 Vibrational              3.147              0.579              0.130

 Normal termination of Gaussian 16 at Fri Aug 22 16:17:36 2025.
