 Gaussian 16, Revision C.01,
 Gaussian 16:  ES64L-G16RevC.01  3-Jul-2019

 -----------------------------------------
 # sp b3lyp/6-311g** Force nosymm scf=(qc)
 -----------------------------------------

 -------------------
 Title Card Required
 -------------------
 Symbolic Z-matrix:
 Charge =  0 Multiplicity = 2

                          Input orientation:
 ---------------------------------------------------------------------
 Center     Atomic      Atomic             Coordinates (Angstroms)
 Number     Number       Type             X           Y           Z
 ---------------------------------------------------------------------
      1          1           0        0.000000    0.000000    0.000000
      2          1           0       -4.000000    0.000000    0.000000
      3          9           0        1.950000    0.000000    0.000000
 ---------------------------------------------------------------------

 SCF Done:  E(UB3LYP) =  -100.790623243     a.u. after   19 cycles

 Alpha  occ. eigenvalues --  -24.67850  -1.14153  -0.46793  -0.39438  -0.39438
 Alpha  occ. eigenvalues --   -0.33199
 Alpha virt. eigenvalues --   -0.14129   0.22393   0.30759   0.89437   0.94864
 Alpha virt. eigenvalues --    0.94864   1.05573   1.24288   1.24305   1.24305
 Alpha virt. eigenvalues --    1.34968   1.34968   1.62878   2.13554   2.28631

  Beta  occ. eigenvalues --  -24.65568  -1.07794  -0.38277  -0.37194  -0.37194
  Beta virt. eigenvalues --   -0.20405  -0.06228   0.22205   0.38020   0.90465
  Beta virt. eigenvalues --    0.95349   0.95349   1.08029   1.22234   1.22234
  Beta virt. eigenvalues --    1.46435   1.46639   1.46639   1.56225   2.11482

 Mulliken charges and spin densities:
               1          2
     1  H    0.207824  -0.716875
     2  H    0.000470   0.999334
     3  F   -0.208295   0.717542
 Sum of Mulliken charges =   0.00000   1.00000

 Dipole moment (field-independent basis, Debye):
    X=             -2.0085    Y=             -0.0000    Z=              0.0000  Tot=              2.0085
 Quadrupole moment (field-independent basis, Debye-Ang):
   XX=            -10.1561   YY=             -7.4741   ZZ=             -7.4741
   XY=             -0.0000   XZ=              0.0000   YZ=              0.0000

  Exact polarizability:      24.109      -0.000       2.070       0.000      -0.000       2.070
 Approx polarizability:      36.190      -0.000       1.955       0.000      -0.000       1.955

 ******    2 imaginary frequencies (negative Signs) ******

                      1                      2                      3
                      A                      A                      A
 Frequencies --  -1212.2282               -65.3487               520.7886
 Red. masses --      1.0580                 1.0536                 1.0285
 Frc consts  --      0.9160                 0.0027                 0.1643
 IR Inten    --    127.5251                 0.0316                41.2775

                      4
                      A
 Frequencies --    520.7886
 Red. masses --      1.0285
 Frc consts  --      0.1643
 IR Inten    --     41.2775

 - Thermochemistry -
 -------------------
 Temperature   298.150 Kelvin.  Pressure   1.00000 Atm.
 Atom     1 has atomic number  1 and mass   1.00783

 Molecular mass:    21.01405 amu.
 Principal axes and moments of inertia in atomic units:
                           1         2         3
     Eigenvalues --     0.00000 130.32673 130.32673
           X            1.00000  -0.00000   0.00000
           Y            0.00000   1.00000   0.00000
           Z            0.00000   0.00000   1.00000
 This molecule is a prolate symmetric top.
 Rotational symmetry number  1.
 Rotational temperature (Kelvin)      0.66459
 Rotational constant (GHZ):          13.847821
    2 imaginary frequencies ignored.
 Zero-point vibrational energy       6230.0 (Joules/Mol)
                                    1.48901 (Kcal/Mol)
 Warning -- explicit consideration of   2 degrees of freedom as
           vibrations may cause significant error
 Vibrational temperatures:    749.30   749.30
          (Kelvin)

 Zero-point correction=                           0.002373 (Hartree/Particle)
 Thermal correction to Energy=                    0.005152
 Thermal correction to Enthalpy=                  0.006096
 Thermal correction to Gibbs Free Energy=        -0.018508
 Sum of electronic and zero-point Energies=           -100.788250
 Sum of electronic and thermal Energies=              -100.785472
 Sum of electronic and thermal Enthalpies=            -100.784527
 Sum of electronic and thermal Free Energies=         -100.809131

                     E (Thermal)             CV                S
                      KCal/Mol        Cal/Mol-Kelvin    Cal/Mol-Kelvin
 Total                    3.233              7.376             51.783
 Electronic               0.000              0.000              1.377
 Translational            0.889              2.981             35.068
 Rotational               0.592              1.987             14.121
 Vibrational              1.752              2.408              1.216
 Vibration     1          0.876              1.204              0.608
 Vibration     2          0.876              1.204              0.608

 Normal termination of Gaussian 16 at Fri Aug 22 16:54:59 2025.
