 Gaussian 16, Revision C.01,
 Gaussian 16:  ES64L-G16RevC.01  3-Jul-2019

 -----------------------------------------
 # sp b3lyp/6-311g** Force nosymm scf=(qc)
 -----------------------------------------

 -------------------
 Title Card Required
 -------------------
 Symbolic Z-matrix:
 Charge =  0 Multiplicity = 2

                          Input orientation:
 ---------------------------------------------------------------------
 Center     Atomic      Atomic             Coordinates (Angstroms)
 Number     Number       Type             X           Y           Z
 ---------------------------------------------------------------------
      1          1           0        0.000000    0.000000    0.000000
      2          1           0       -1.500000    0.000000    0.000000
      3          9           0        3.250000    0.000000    0.000000
 ---------------------------------------------------------------------

 SCF Done:  E(UB3LYP) =  -100.820468213     a.u. after  139 cycles

 Alpha  occ. eigenvalues --  -24.76529  -1.22383  -0.55578  -0.46792  -0.46731
 Alpha  occ. eigenvalues --   -0.33515
 Alpha virt. eigenvalues --   -0.09740   0.25003   0.30458   0.85842   0.90717
 Alpha virt. eigenvalues --    0.92582   1.01945   1.07626   1.20416   1.20420
 Alpha virt. eigenvalues --    1.41518   1.41522   1.82245   2.22535   2.46966

  Beta  occ. eigenvalues --  -24.73371  -1.13304  -0.43632  -0.43565  -0.33508
  Beta virt. eigenvalues --   -0.26214  -0.09746   0.25027   0.30511   0.92217
  Beta virt. eigenvalues --    0.94112   0.95305   1.05965   1.07637   1.20410
  Beta virt. eigenvalues --    1.20414   1.41515   1.41519   1.82280   2.22615

 Mulliken charges and spin densities:
               1          2
     1  H    0.000103  -0.111085
     2  H   -0.004691   0.110610
     3  F    0.004588   1.000476
 Sum of Mulliken charges =   0.00000   1.00000

 Dipole moment (field-independent basis, Debye):
    X=              0.0769    Y=              0.0000    Z=              0.0000  Tot=              0.0769
 Quadrupole moment (field-independent basis, Debye-Ang):
   XX=             -6.2079   YY=             -6.9241   ZZ=             -7.7404
   XY=              0.0000   XZ=              0.0000   YZ=              0.1415

  Exact polarizability:      23.053      -0.000       2.496      -0.000       0.077       2.053
 Approx polarizability:      43.558      -0.000       2.603      -0.000       0.095       2.054

 ******    2 imaginary frequencies (negative Signs) ******

                      1                      2                      3
                      A                      A                      A
 Frequencies --  -2243.6473               -23.9430              1214.9238
 Red. masses --      1.0078                 1.1085                 1.0113
 Frc consts  --      2.9891                 0.0004                 0.8795
 IR Inten    --      0.1447                 0.3795                 0.0097

                      4
                      A
 Frequencies --   1218.9840
 Red. masses --      1.0113
 Frc consts  --      0.8853
 IR Inten    --      0.0039

 - Thermochemistry -
 -------------------
 Temperature   298.150 Kelvin.  Pressure   1.00000 Atm.
 Atom     1 has atomic number  1 and mass   1.00783

 Molecular mass:    21.01405 amu.
 Principal axes and moments of inertia in atomic units:
                           1         2         3
     Eigenvalues --     0.00000 108.17032 108.17032
           X            1.00000  -0.00000   0.00000
           Y            0.00000   1.00000   0.00000
           Z            0.00000   0.00000   1.00000
 This molecule is a prolate symmetric top.
 Rotational symmetry number  1.
 Rotational temperature (Kelvin)      0.80072
 Rotational constant (GHZ):          16.684256
    2 imaginary frequencies ignored.
 Zero-point vibrational energy      14558.0 (Joules/Mol)
                                    3.47945 (Kcal/Mol)
 Vibrational temperatures:   1748.00  1753.85
          (Kelvin)

 Zero-point correction=                           0.005545 (Hartree/Particle)
 Thermal correction to Energy=                    0.007937
 Thermal correction to Enthalpy=                  0.008881
 Thermal correction to Gibbs Free Energy=        -0.015006
 Sum of electronic and zero-point Energies=           -100.814923
 Sum of electronic and thermal Energies=              -100.812532
 Sum of electronic and thermal Enthalpies=            -100.811587
 Sum of electronic and thermal Free Energies=         -100.835474

                     E (Thermal)             CV                S
                      KCal/Mol        Cal/Mol-Kelvin    Cal/Mol-Kelvin
 Total                    4.980              5.356             50.274
 Electronic               0.000              0.000              1.377
 Translational            0.889              2.981             35.068
 Rotational               0.592              1.987             13.751
 Vibrational              3.499              0.388              0.077

 Normal termination of Gaussian 16 at Fri Aug 22 20:32:43 2025.
