 Gaussian 16, Revision C.01,
 Gaussian 16:  ES64L-G16RevC.01  3-Jul-2019

 -----------------------------------------
 # sp b3lyp/6-311g** Force nosymm scf=(qc)
 -----------------------------------------

 -------------------
 Title Card Required
 -------------------
 Symbolic Z-matrix:
 Charge =  0 Multiplicity = 2

                          Input orientation:
 ---------------------------------------------------------------------
 Center     Atomic      Atomic             Coordinates (Angstroms)
 Number     Number       Type             X           Y           Z
 ---------------------------------------------------------------------
      1          1           0        0.000000    0.000000    0.000000
      2          1           0       -3.900000    0.000000    0.000000
      3          9           0        0.950000    0.000000    0.000000
 ---------------------------------------------------------------------

 SCF Done:  E(UB3LYP) =  -100.970990025     a.u. after    6 cycles

 Alpha  occ. eigenvalues --  -24.64114  -1.17451  -0.52747  -0.39222  -0.39222
 Alpha  occ. eigenvalues --   -0.33381
 Alpha virt. eigenvalues --    0.01899   0.23721   0.36921   0.94213   0.94213
 Alpha virt. eigenvalues --    0.98123   1.24054   1.24125   1.24125   1.28979
 Alpha virt. eigenvalues --    1.36465   1.36465   1.95539   2.14090   2.34790

  Beta  occ. eigenvalues --  -24.64114  -1.17449  -0.52746  -0.39221  -0.39221
  Beta virt. eigenvalues --   -0.04989   0.02152   0.35458   0.40127   0.94213
  Beta virt. eigenvalues --    0.94213   0.98124   1.28926   1.36464   1.36464
  Beta virt. eigenvalues --    1.50493   1.50963   1.50963   1.95643   2.34528

 Mulliken charges and spin densities:
               1          2
     1  H    0.308246   0.000272
     2  H    0.000405   0.999549
     3  F   -0.308651   0.000178
 Sum of Mulliken charges =   0.00000   1.00000

 Dipole moment (field-independent basis, Debye):
    X=             -1.9572    Y=              0.0000    Z=              0.0000  Tot=              1.9572
 Quadrupole moment (field-independent basis, Debye-Ang):
   XX=             -8.1085   YY=             -6.9165   ZZ=             -6.9165
   XY=              0.0000   XZ=              0.0000   YZ=             -0.0000

  Exact polarizability:       5.809      -0.000       2.410      -0.000      -0.000       2.410
 Approx polarizability:       7.031      -0.000       2.385      -0.000      -0.000       2.385

 ******    1 imaginary frequencies (negative Signs) ******

                      1                      2                      3
                      A                      A                      A
 Frequencies --    -28.0747               678.8165               678.8165
 Red. masses --      1.0532                 1.0393                 1.0393
 Frc consts  --      0.0005                 0.2822                 0.2822
 IR Inten    --      0.0133               177.1190               177.1190

                      4
                      A
 Frequencies --   3680.1975
 Red. masses --      1.0583
 Frc consts  --      8.4452
 IR Inten    --     92.0031

 - Thermochemistry -
 -------------------
 Temperature   298.150 Kelvin.  Pressure   1.00000 Atm.
 Atom     1 has atomic number  1 and mass   1.00783

 Molecular mass:    21.01405 amu.
 Principal axes and moments of inertia in atomic units:
                           1         2         3
     Eigenvalues --     0.00000  82.09929  82.09929
           X            1.00000  -0.00000   0.00000
           Y            0.00000   1.00000   0.00000
           Z            0.00000   0.00000   1.00000
 This molecule is a prolate symmetric top.
 Rotational symmetry number  1.
 Rotational temperature (Kelvin)      1.05499
 Rotational constant (GHZ):          21.982422
    1 imaginary frequencies ignored.
 Zero-point vibrational energy      30132.9 (Joules/Mol)
                                    7.20194 (Kcal/Mol)
 Vibrational temperatures:    976.67   976.67  5294.98
          (Kelvin)

 Zero-point correction=                           0.011477 (Hartree/Particle)
 Thermal correction to Energy=                    0.014080
 Thermal correction to Enthalpy=                  0.015025
 Thermal correction to Gibbs Free Energy=        -0.008881
 Sum of electronic and zero-point Energies=           -100.959513
 Sum of electronic and thermal Energies=              -100.956910
 Sum of electronic and thermal Enthalpies=            -100.955965
 Sum of electronic and thermal Free Energies=         -100.979871

                     E (Thermal)             CV                S
                      KCal/Mol        Cal/Mol-Kelvin    Cal/Mol-Kelvin
 Total                    8.836              6.709             50.313
 Electronic               0.000              0.000              1.377
 Translational            0.889              2.981             35.068
 Rotational               0.592              1.987             13.203
 Vibrational              7.354              1.741              0.664

 Normal termination of Gaussian 16 at Fri Aug 22 15:59:23 2025.
