 Gaussian 16, Revision C.01,
 Gaussian 16:  ES64L-G16RevC.01  3-Jul-2019

 -----------------------------------------
 # sp b3lyp/6-311g** Force nosymm scf=(qc)
 -----------------------------------------

 -------------------
 Title Card Required
 -------------------
 Symbolic Z-matrix:
 Charge =  0 Multiplicity = 2

                          Input orientation:
 ---------------------------------------------------------------------
 Center     Atomic      Atomic             Coordinates (Angstroms)
 Number     Number       Type             X           Y           Z
 ---------------------------------------------------------------------
      1          1           0        0.000000    0.000000    0.000000
      2          1           0       -1.300000    0.000000    0.000000
      3          9           0        1.400000    0.000000    0.000000
 ---------------------------------------------------------------------

 SCF Done:  E(UB3LYP) =  -100.905050652     a.u. after   11 cycles

 Alpha  occ. eigenvalues --  -24.65314  -1.12580  -0.49739  -0.38701  -0.37843
 Alpha  occ. eigenvalues --   -0.37843
 Alpha virt. eigenvalues --   -0.01665   0.20035   0.30174   0.92235   0.92235
 Alpha virt. eigenvalues --    1.00966   1.07854   1.11404   1.11404   1.47481
 Alpha virt. eigenvalues --    1.47481   1.55738   1.98421   2.23582   2.46358

  Beta  occ. eigenvalues --  -24.63842  -1.08671  -0.43356  -0.36444  -0.36444
  Beta virt. eigenvalues --   -0.22078   0.01694   0.22904   0.32079   0.92627
  Beta virt. eigenvalues --    0.92627   1.04736   1.12457   1.17179   1.17179
  Beta virt. eigenvalues --    1.49974   1.49974   1.59448   2.03943   2.28019

 Mulliken charges and spin densities:
               1          2
     1  H    0.243045  -0.144853
     2  H    0.068207   0.696540
     3  F   -0.311252   0.448313
 Sum of Mulliken charges =   0.00000   1.00000

 Dipole moment (field-independent basis, Debye):
    X=             -2.5999    Y=             -0.0000    Z=             -0.0000  Tot=              2.5999
 Quadrupole moment (field-independent basis, Debye-Ang):
   XX=             -7.9331   YY=             -7.1001   ZZ=             -7.1001
   XY=             -0.0000   XZ=             -0.0000   YZ=              0.0000

  Exact polarizability:      30.281      -0.000       2.390      -0.000       0.000       2.390
 Approx polarizability:      44.102      -0.000       2.351      -0.000      -0.000       2.351

 ******    1 imaginary frequencies (negative Signs) ******

                      1                      2                      3
                      A                      A                      A
 Frequencies --  -2705.0777               314.2613              1147.3578
 Red. masses --      1.0231                 1.0906                 1.0171
 Frc consts  --      4.4108                 0.0635                 0.7889
 IR Inten    --    419.1421                24.3686                25.1116

                      4
                      A
 Frequencies --   1147.3578
 Red. masses --      1.0171
 Frc consts  --      0.7889
 IR Inten    --     25.1116

 - Thermochemistry -
 -------------------
 Temperature   298.150 Kelvin.  Pressure   1.00000 Atm.
 Atom     1 has atomic number  1 and mass   1.00783

 Molecular mass:    21.01405 amu.
 Principal axes and moments of inertia in atomic units:
                           1         2         3
     Eigenvalues --     0.00000  30.38931  30.38931
           X            1.00000  -0.00000   0.00000
           Y            0.00000   1.00000   0.00000
           Z            0.00000   0.00000   1.00000
 This molecule is a prolate symmetric top.
 Rotational symmetry number  1.
 Rotational temperature (Kelvin)      2.85014
 Rotational constant (GHZ):          59.387377
    1 imaginary frequencies ignored.
 Zero-point vibrational energy      15605.1 (Joules/Mol)
                                    3.72972 (Kcal/Mol)
 Warning -- explicit consideration of   1 degrees of freedom as
           vibrations may cause significant error
 Vibrational temperatures:    452.15  1650.79  1650.79
          (Kelvin)

 Zero-point correction=                           0.005944 (Hartree/Particle)
 Thermal correction to Energy=                    0.008748
 Thermal correction to Enthalpy=                  0.009692
 Thermal correction to Gibbs Free Energy=        -0.013644
 Sum of electronic and zero-point Energies=           -100.899107
 Sum of electronic and thermal Energies=              -100.896303
 Sum of electronic and thermal Enthalpies=            -100.895358
 Sum of electronic and thermal Free Energies=         -100.918695

                     E (Thermal)             CV                S
                      KCal/Mol        Cal/Mol-Kelvin    Cal/Mol-Kelvin
 Total                    5.490              7.098             49.116
 Electronic               0.000              0.000              1.377
 Translational            0.889              2.981             35.068
 Rotational               0.592              1.987             11.228
 Vibrational              4.008              2.130              1.443
 Vibration     1          0.702              1.646              1.340

 Normal termination of Gaussian 16 at Fri Aug 22 16:19:36 2025.
