 Gaussian 16, Revision C.01,
 Gaussian 16:  ES64L-G16RevC.01  3-Jul-2019

 -----------------------------------------
 # sp b3lyp/6-311g** Force nosymm scf=(qc)
 -----------------------------------------

 -------------------
 Title Card Required
 -------------------
 Symbolic Z-matrix:
 Charge =  0 Multiplicity = 2

                          Input orientation:
 ---------------------------------------------------------------------
 Center     Atomic      Atomic             Coordinates (Angstroms)
 Number     Number       Type             X           Y           Z
 ---------------------------------------------------------------------
      1          1           0        0.000000    0.000000    0.000000
      2          1           0       -0.650000    0.000000    0.000000
      3          9           0        3.300000    0.000000    0.000000
 ---------------------------------------------------------------------

 SCF Done:  E(UB3LYP) =  -100.926926373     a.u. after  122 cycles

 Alpha  occ. eigenvalues --  -24.76441  -1.22273  -0.55471  -0.46715  -0.46623
 Alpha  occ. eigenvalues --   -0.45258
 Alpha virt. eigenvalues --    0.07720   0.19231   0.49973   0.85963   0.90837
 Alpha virt. eigenvalues --    0.93584   1.03491   1.09554   1.09559   1.59658
 Alpha virt. eigenvalues --    1.85680   1.89356   1.89362   2.37770   3.64764

  Beta  occ. eigenvalues --  -24.73281  -1.13190  -0.45347  -0.43456  -0.43455
  Beta virt. eigenvalues --   -0.26102   0.07752   0.19250   0.50063   0.92337
  Beta virt. eigenvalues --    0.95240   0.95424   1.07341   1.09554   1.09558
  Beta virt. eigenvalues --    1.59670   1.85715   1.89356   1.89361   2.37773

 Mulliken charges and spin densities:
               1          2
     1  H   -0.004240  -0.000870
     2  H   -0.002142   0.000088
     3  F    0.006381   1.000782
 Sum of Mulliken charges =   0.00000   1.00000

 Dipole moment (field-independent basis, Debye):
    X=              0.0655    Y=              0.0000    Z=              0.0000  Tot=              0.0655
 Quadrupole moment (field-independent basis, Debye-Ang):
   XX=             -6.0998   YY=             -6.6556   ZZ=             -6.1110
   XY=              0.0000   XZ=              0.0000   YZ=              0.3353

  Exact polarizability:       7.196       0.000       1.987       0.000       0.180       2.279
 Approx polarizability:       7.918       0.000       2.089       0.000       0.225       2.455

 ******    2 imaginary frequencies (negative Signs) ******

                      1                      2                      3
                      A                      A                      A
 Frequencies --  -1950.5018             -1949.8288                29.1690
 Red. masses --      1.0086                 1.0086                 1.1085
 Frc consts  --      2.2609                 2.2593                 0.0006
 IR Inten    --      0.0101                 0.0089                 0.1651

                      4
                      A
 Frequencies --   5975.9295
 Red. masses --      1.0078
 Frc consts  --     21.2054
 IR Inten    --      0.1067

 - Thermochemistry -
 -------------------
 Temperature   298.150 Kelvin.  Pressure   1.00000 Atm.
 Atom     1 has atomic number  1 and mass   1.00783

 Molecular mass:    21.01405 amu.
 Principal axes and moments of inertia in atomic units:
                           1         2         3
     Eigenvalues --     0.00000  86.27408  86.27408
           X            1.00000  -0.00000   0.00000
           Y            0.00000   1.00000   0.00000
           Z            0.00000   0.00000   1.00000
 This molecule is a prolate symmetric top.
 Rotational symmetry number  1.
 Rotational temperature (Kelvin)      1.00394
 Rotational constant (GHZ):          20.918695
    2 imaginary frequencies ignored.
 Zero-point vibrational energy      35918.5 (Joules/Mol)
                                    8.58472 (Kcal/Mol)
 Warning -- explicit consideration of   1 degrees of freedom as
           vibrations may cause significant error
 Vibrational temperatures:     41.97  8598.03
          (Kelvin)

 Zero-point correction=                           0.013681 (Hartree/Particle)
 Thermal correction to Energy=                    0.016920
 Thermal correction to Enthalpy=                  0.017865
 Thermal correction to Gibbs Free Energy=        -0.008568
 Sum of electronic and zero-point Energies=           -100.913246
 Sum of electronic and thermal Energies=              -100.910006
 Sum of electronic and thermal Enthalpies=            -100.909062
 Sum of electronic and thermal Free Energies=         -100.935494

                     E (Thermal)             CV                S
                      KCal/Mol        Cal/Mol-Kelvin    Cal/Mol-Kelvin
 Total                   10.618              6.952             55.632
 Electronic               0.000              0.000              1.377
 Translational            0.889              2.981             35.068
 Rotational               0.592              1.987             13.302
 Vibrational              9.136              1.984              5.885
 Vibration     1          0.593              1.984              5.885

 Normal termination of Gaussian 16 at Fri Aug 22 20:38:24 2025.
