 Gaussian 16, Revision C.01,
 Gaussian 16:  ES64L-G16RevC.01  3-Jul-2019

 -----------------------------------------
 # sp b3lyp/6-311g** Force nosymm scf=(qc)
 -----------------------------------------

 -------------------
 Title Card Required
 -------------------
 Symbolic Z-matrix:
 Charge =  0 Multiplicity = 2

                          Input orientation:
 ---------------------------------------------------------------------
 Center     Atomic      Atomic             Coordinates (Angstroms)
 Number     Number       Type             X           Y           Z
 ---------------------------------------------------------------------
      1          1           0        0.000000    0.000000    0.000000
      2          1           0       -2.950000    0.000000    0.000000
      3          9           0        1.150000    0.000000    0.000000
 ---------------------------------------------------------------------

 SCF Done:  E(UB3LYP) =  -100.937547166     a.u. after    6 cycles

 Alpha  occ. eigenvalues --  -24.64269  -1.12958  -0.48626  -0.37748  -0.37748
 Alpha  occ. eigenvalues --   -0.34440
 Alpha virt. eigenvalues --   -0.03821   0.23904   0.29691   0.93402   0.93402
 Alpha virt. eigenvalues --    1.00223   1.22836   1.23092   1.23092   1.29555
 Alpha virt. eigenvalues --    1.34992   1.34992   1.76178   2.14157   2.30742

  Beta  occ. eigenvalues --  -24.64257  -1.12927  -0.48582  -0.37737  -0.37737
  Beta virt. eigenvalues --   -0.09000  -0.02141   0.28806   0.37736   0.93402
  Beta virt. eigenvalues --    0.93402   1.00249   1.28583   1.34969   1.34969
  Beta virt. eigenvalues --    1.45909   1.45909   1.46375   1.76361   2.30710

 Mulliken charges and spin densities:
               1          2
     1  H    0.345454   0.000620
     2  H    0.003847   0.995356
     3  F   -0.349301   0.004024
 Sum of Mulliken charges =   0.00000   1.00000

 Dipole moment (field-independent basis, Debye):
    X=             -2.2745    Y=             -0.0000    Z=              0.0000  Tot=              2.2745
 Quadrupole moment (field-independent basis, Debye-Ang):
   XX=             -8.5698   YY=             -7.0885   ZZ=             -7.0885
   XY=             -0.0000   XZ=              0.0000   YZ=             -0.0000

  Exact polarizability:       9.961      -0.000       2.354       0.000       0.000       2.354
 Approx polarizability:      12.951       0.000       2.315      -0.000       0.000       2.315

 ******    1 imaginary frequencies (negative Signs) ******

                      1                      2                      3
                      A                      A                      A
 Frequencies --    -99.8623              1196.2159              1196.2159
 Red. masses --      1.0523                 1.0321                 1.0321
 Frc consts  --      0.0062                 0.8701                 0.8701
 IR Inten    --      0.6376               145.7883               145.7883

                      4
                      A
 Frequencies --   1455.9044
 Red. masses --      1.0593
 Frc consts  --      1.3229
 IR Inten    --     88.7971

 - Thermochemistry -
 -------------------
 Temperature   298.150 Kelvin.  Pressure   1.00000 Atm.
 Atom     1 has atomic number  1 and mass   1.00783

 Molecular mass:    21.01405 amu.
 Principal axes and moments of inertia in atomic units:
                           1         2         3
     Eigenvalues --     0.00000  60.50154  60.50154
           X            1.00000  -0.00000   0.00000
           Y            0.00000   1.00000   0.00000
           Z            0.00000   0.00000   1.00000
 This molecule is a prolate symmetric top.
 Rotational symmetry number  1.
 Rotational temperature (Kelvin)      1.43160
 Rotational constant (GHZ):          29.829672
    1 imaginary frequencies ignored.
 Zero-point vibrational energy      23018.2 (Joules/Mol)
                                    5.50147 (Kcal/Mol)
 Vibrational temperatures:   1721.09  1721.09  2094.72
          (Kelvin)

 Zero-point correction=                           0.008767 (Hartree/Particle)
 Thermal correction to Energy=                    0.011168
 Thermal correction to Enthalpy=                  0.012112
 Thermal correction to Gibbs Free Energy=        -0.011236
 Sum of electronic and zero-point Energies=           -100.928780
 Sum of electronic and thermal Energies=              -100.926380
 Sum of electronic and thermal Enthalpies=            -100.925435
 Sum of electronic and thermal Free Energies=         -100.948783

                     E (Thermal)             CV                S
                      KCal/Mol        Cal/Mol-Kelvin    Cal/Mol-Kelvin
 Total                    7.008              5.470             49.140
 Electronic               0.000              0.000              1.377
 Translational            0.889              2.981             35.068
 Rotational               0.592              1.987             12.596
 Vibrational              5.527              0.502              0.098

 Normal termination of Gaussian 16 at Fri Aug 22 16:08:22 2025.
