 Gaussian 16, Revision C.01,
 Gaussian 16:  ES64L-G16RevC.01  3-Jul-2019

 -----------------------------------------
 # sp b3lyp/6-311g** Force nosymm scf=(qc)
 -----------------------------------------

 -------------------
 Title Card Required
 -------------------
 Symbolic Z-matrix:
 Charge =  0 Multiplicity = 2

                          Input orientation:
 ---------------------------------------------------------------------
 Center     Atomic      Atomic             Coordinates (Angstroms)
 Number     Number       Type             X           Y           Z
 ---------------------------------------------------------------------
      1          1           0        0.000000    0.000000    0.000000
      2          1           0       -3.900000    0.000000    0.000000
      3          9           0        3.450000    0.000000    0.000000
 ---------------------------------------------------------------------

 SCF Done:  E(UB3LYP) =  -100.759001440     a.u. after   30 cycles

 Alpha  occ. eigenvalues --  -24.75289  -1.21260  -0.54412  -0.45685  -0.45685
 Alpha  occ. eigenvalues --   -0.32309
 Alpha virt. eigenvalues --   -0.06431   0.24105   0.37161   0.87745   0.91542
 Alpha virt. eigenvalues --    0.91542   1.01948   1.25187   1.25187   1.25218
 Alpha virt. eigenvalues --    1.46146   1.46146   1.46654   2.14574   2.42265

  Beta  occ. eigenvalues --  -24.72181  -1.12331  -0.42570  -0.42570  -0.32874
  Beta virt. eigenvalues --   -0.25432  -0.05927   0.23831   0.38177   0.93029
  Beta virt. eigenvalues --    0.93029   0.96844   1.05933   1.24540   1.24540
  Beta virt. eigenvalues --    1.24558   1.46582   1.46707   1.46707   2.14752

 Mulliken charges and spin densities:
               1          2
     1  H    0.013256  -0.984598
     2  H    0.000069   0.999209
     3  F   -0.013326   0.985389
 Sum of Mulliken charges =  -0.00000   1.00000

 Dipole moment (field-independent basis, Debye):
    X=             -0.2377    Y=             -0.0000    Z=             -0.0000  Tot=              0.2377
 Quadrupole moment (field-independent basis, Debye-Ang):
   XX=             -7.5036   YY=             -7.6169   ZZ=             -7.6169
   XY=             -0.0000   XZ=             -0.0000   YZ=             -0.0000

  Exact polarizability:      24.115      -0.000       2.035      -0.000       0.000       2.035
 Approx polarizability:      19.603      -0.000       1.933      -0.000       0.000       1.933

 ******    2 imaginary frequencies (negative Signs) ******

                      1                      2                      3
                      A                      A                      A
 Frequencies --   -226.7015               -74.0137                65.8195
 Red. masses --      1.0451                 1.0667                 1.0195
 Frc consts  --      0.0316                 0.0034                 0.0026
 IR Inten    --     13.3455                 0.2438                 0.1616

                      4
                      A
 Frequencies --     65.8195
 Red. masses --      1.0195
 Frc consts  --      0.0026
 IR Inten    --      0.1616

 - Thermochemistry -
 -------------------
 Temperature   298.150 Kelvin.  Pressure   1.00000 Atm.
 Atom     1 has atomic number  1 and mass   1.00783

 Molecular mass:    21.01405 amu.
 Principal axes and moments of inertia in atomic units:
                           1         2         3
     Eigenvalues --     0.00000 217.13177 217.13177
           X            1.00000  -0.00000   0.00000
           Y            0.00000   1.00000   0.00000
           Z            0.00000   0.00000   1.00000
 This molecule is a prolate symmetric top.
 Rotational symmetry number  1.
 Rotational temperature (Kelvin)      0.39890
 Rotational constant (GHZ):           8.311733
    2 imaginary frequencies ignored.
 Zero-point vibrational energy        787.4 (Joules/Mol)
                                    0.18819 (Kcal/Mol)
 Warning -- explicit consideration of   2 degrees of freedom as
           vibrations may cause significant error
 Vibrational temperatures:     94.70    94.70
          (Kelvin)

 Zero-point correction=                           0.000300 (Hartree/Particle)
 Thermal correction to Energy=                    0.004265
 Thermal correction to Enthalpy=                  0.005209
 Thermal correction to Gibbs Free Energy=        -0.023361
 Sum of electronic and zero-point Energies=           -100.758702
 Sum of electronic and thermal Energies=              -100.754737
 Sum of electronic and thermal Enthalpies=            -100.753793
 Sum of electronic and thermal Free Energies=         -100.782363

                     E (Thermal)             CV                S
                      KCal/Mol        Cal/Mol-Kelvin    Cal/Mol-Kelvin
 Total                    2.676              8.909             60.131
 Electronic               0.000              0.000              1.377
 Translational            0.889              2.981             35.068
 Rotational               0.592              1.987             15.136
 Vibrational              1.195              3.941              8.549
 Vibration     1          0.597              1.971              4.275
 Vibration     2          0.597              1.971              4.275

 Normal termination of Gaussian 16 at Fri Aug 22 21:43:54 2025.
