 Gaussian 16, Revision C.01,
 Gaussian 16:  ES64L-G16RevC.01  3-Jul-2019

 -----------------------------------------
 # sp b3lyp/6-311g** Force nosymm scf=(qc)
 -----------------------------------------

 -------------------
 Title Card Required
 -------------------
 Symbolic Z-matrix:
 Charge =  0 Multiplicity = 2

                          Input orientation:
 ---------------------------------------------------------------------
 Center     Atomic      Atomic             Coordinates (Angstroms)
 Number     Number       Type             X           Y           Z
 ---------------------------------------------------------------------
      1          1           0        0.000000    0.000000    0.000000
      2          1           0       -2.150000    0.000000    0.000000
      3          9           0        2.300000    0.000000    0.000000
 ---------------------------------------------------------------------

 SCF Done:  E(UB3LYP) =  -100.782240215     a.u. after   19 cycles

 Alpha  occ. eigenvalues --  -24.70449  -1.16718  -0.49533  -0.41609  -0.41609
 Alpha  occ. eigenvalues --   -0.35015
 Alpha virt. eigenvalues --   -0.13127   0.24620   0.32120   0.89200   0.94278
 Alpha virt. eigenvalues --    0.94278   1.06142   1.22845   1.22845   1.26559
 Alpha virt. eigenvalues --    1.35146   1.35146   1.47875   2.11668   2.31925

  Beta  occ. eigenvalues --  -24.67734  -1.09029  -0.38911  -0.38911  -0.35991
  Beta virt. eigenvalues --   -0.22647  -0.11235   0.26403   0.32821   0.94388
  Beta virt. eigenvalues --    0.95513   0.95513   1.08929   1.22345   1.22345
  Beta virt. eigenvalues --    1.34293   1.38150   1.38150   1.45664   2.11907

 Mulliken charges and spin densities:
               1          2
     1  H    0.092518  -0.775361
     2  H    0.027992   0.919248
     3  F   -0.120510   0.856113
 Sum of Mulliken charges =   0.00000   1.00000

 Dipole moment (field-independent basis, Debye):
    X=             -1.6878    Y=             -0.0000    Z=              0.0000  Tot=              1.6878
 Quadrupole moment (field-independent basis, Debye-Ang):
   XX=             -8.6712   YY=             -7.6117   ZZ=             -7.6117
   XY=             -0.0000   XZ=              0.0000   YZ=              0.0000

  Exact polarizability:      51.987       0.000       2.021      -0.000      -0.000       2.021
 Approx polarizability:      56.874       0.000       1.928      -0.000      -0.000       1.928

 ******    2 imaginary frequencies (negative Signs) ******

                      1                      2                      3
                      A                      A                      A
 Frequencies --  -1215.0798              -453.6159               492.7732
 Red. masses --      1.0141                 1.1010                 1.0171
 Frc consts  --      0.8821                 0.1335                 0.1455
 IR Inten    --     64.8896                45.9908                 5.7821

                      4
                      A
 Frequencies --    492.7732
 Red. masses --      1.0171
 Frc consts  --      0.1455
 IR Inten    --      5.7821

 - Thermochemistry -
 -------------------
 Temperature   298.150 Kelvin.  Pressure   1.00000 Atm.
 Atom     1 has atomic number  1 and mass   1.00783

 Molecular mass:    21.01405 amu.
 Principal axes and moments of inertia in atomic units:
                           1         2         3
     Eigenvalues --     0.00000  82.44372  82.44372
           X            1.00000  -0.00000   0.00000
           Y            0.00000   1.00000   0.00000
           Z            0.00000   0.00000   1.00000
 This molecule is a prolate symmetric top.
 Rotational symmetry number  1.
 Rotational temperature (Kelvin)      1.05058
 Rotational constant (GHZ):          21.890585
    2 imaginary frequencies ignored.
 Zero-point vibrational energy       5894.9 (Joules/Mol)
                                    1.40891 (Kcal/Mol)
 Warning -- explicit consideration of   2 degrees of freedom as
           vibrations may cause significant error
 Vibrational temperatures:    708.99   708.99
          (Kelvin)

 Zero-point correction=                           0.002245 (Hartree/Particle)
 Thermal correction to Energy=                    0.005065
 Thermal correction to Enthalpy=                  0.006009
 Thermal correction to Gibbs Free Energy=        -0.018227
 Sum of electronic and zero-point Energies=           -100.779995
 Sum of electronic and thermal Energies=              -100.777176
 Sum of electronic and thermal Enthalpies=            -100.776231
 Sum of electronic and thermal Free Energies=         -100.800468

                     E (Thermal)             CV                S
                      KCal/Mol        Cal/Mol-Kelvin    Cal/Mol-Kelvin
 Total                    3.178              7.500             51.010
 Electronic               0.000              0.000              1.377
 Translational            0.889              2.981             35.068
 Rotational               0.592              1.987             13.211
 Vibrational              1.697              2.532              1.353
 Vibration     1          0.848              1.266              0.676
 Vibration     2          0.848              1.266              0.676

 Normal termination of Gaussian 16 at Fri Aug 22 17:22:02 2025.
