 Gaussian 16, Revision C.01,
 Gaussian 16:  ES64L-G16RevC.01  3-Jul-2019

 -----------------------------------------
 # sp b3lyp/6-311g** Force nosymm scf=(qc)
 -----------------------------------------

 -------------------
 Title Card Required
 -------------------
 Symbolic Z-matrix:
 Charge =  0 Multiplicity = 2

                          Input orientation:
 ---------------------------------------------------------------------
 Center     Atomic      Atomic             Coordinates (Angstroms)
 Number     Number       Type             X           Y           Z
 ---------------------------------------------------------------------
      1          1           0        0.000000    0.000000    0.000000
      2          1           0       -2.000000    0.000000    0.000000
      3          9           0        3.750000    0.000000    0.000000
 ---------------------------------------------------------------------

 SCF Done:  E(UB3LYP) =  -100.774328932     a.u. after  180 cycles

 Alpha  occ. eigenvalues --  -24.75885  -1.21813  -0.55008  -0.46195  -0.46193
 Alpha  occ. eigenvalues --   -0.32934
 Alpha virt. eigenvalues --   -0.10788   0.25986   0.32503   0.86805   0.91152
 Alpha virt. eigenvalues --    0.91228   1.01213   1.17269   1.25048   1.25048
 Alpha virt. eigenvalues --    1.38132   1.38133   1.51365   2.13308   2.36448

  Beta  occ. eigenvalues --  -24.72745  -1.12782  -0.43047  -0.43044  -0.32979
  Beta virt. eigenvalues --   -0.25778  -0.10662   0.25863   0.32760   0.92649
  Beta virt. eigenvalues --    0.92703   0.96151   1.05321   1.17258   1.24993
  Beta virt. eigenvalues --    1.24994   1.38302   1.38302   1.51486   2.13599

 Mulliken charges and spin densities:
               1          2
     1  H    0.000361  -0.852255
     2  H    0.003052   0.856460
     3  F   -0.003414   0.995794
 Sum of Mulliken charges =   0.00000   1.00000

 Dipole moment (field-independent basis, Debye):
    X=             -0.0951    Y=             -0.0000    Z=              0.0005  Tot=              0.0951
 Quadrupole moment (field-independent basis, Debye-Ang):
   XX=             -6.4619   YY=             -7.7287   ZZ=             -7.6228
   XY=             -0.0002   XZ=              0.2830   YZ=             -0.0001

  Exact polarizability:      31.274      -0.000       2.009       0.110      -0.000       2.066
 Approx polarizability:      31.205      -0.000       1.939       0.177      -0.000       2.011

 ******    2 imaginary frequencies (negative Signs) ******

                      1                      2                      3
                      A                      A                      A
 Frequencies --  -1351.6164               -88.3843               553.5964
 Red. masses --      1.0078                 1.1085                 1.0121
 Frc consts  --      1.0848                 0.0051                 0.1828
 IR Inten    --      1.3495                 1.3295                 0.0005

                      4
                      A
 Frequencies --    553.6356
 Red. masses --      1.0121
 Frc consts  --      0.1828
 IR Inten    --      0.0110

 - Thermochemistry -
 -------------------
 Temperature   298.150 Kelvin.  Pressure   1.00000 Atm.
 Atom     1 has atomic number  1 and mass   1.00783

 Molecular mass:    21.01405 amu.
 Principal axes and moments of inertia in atomic units:
                           1         2         3
     Eigenvalues --     0.00000 154.02550 154.02550
           X            1.00000  -0.00000   0.00000
           Y            0.00000   1.00000   0.00000
           Z            0.00000   0.00000   1.00000
 This molecule is a prolate symmetric top.
 Rotational symmetry number  1.
 Rotational temperature (Kelvin)      0.56233
 Rotational constant (GHZ):          11.717158
    2 imaginary frequencies ignored.
 Zero-point vibrational energy       6622.7 (Joules/Mol)
                                    1.58287 (Kcal/Mol)
 Warning -- explicit consideration of   2 degrees of freedom as
           vibrations may cause significant error
 Vibrational temperatures:    796.50   796.56
          (Kelvin)

 Zero-point correction=                           0.002522 (Hartree/Particle)
 Thermal correction to Energy=                    0.005258
 Thermal correction to Enthalpy=                  0.006202
 Thermal correction to Gibbs Free Energy=        -0.018492
 Sum of electronic and zero-point Energies=           -100.771806
 Sum of electronic and thermal Energies=              -100.769071
 Sum of electronic and thermal Enthalpies=            -100.768127
 Sum of electronic and thermal Free Energies=         -100.792821

                     E (Thermal)             CV                S
                      KCal/Mol        Cal/Mol-Kelvin    Cal/Mol-Kelvin
 Total                    3.299              7.232             51.972
 Electronic               0.000              0.000              1.377
 Translational            0.889              2.981             35.068
 Rotational               0.592              1.987             14.453
 Vibrational              1.818              2.264              1.073
 Vibration     1          0.909              1.132              0.537
 Vibration     2          0.909              1.132              0.537

 Normal termination of Gaussian 16 at Sat Aug 23 00:24:23 2025.
