 Gaussian 16, Revision C.01,
 Gaussian 16:  ES64L-G16RevC.01  3-Jul-2019

 -----------------------------------------
 # sp b3lyp/6-311g** Force nosymm scf=(qc)
 -----------------------------------------

 -------------------
 Title Card Required
 -------------------
 Symbolic Z-matrix:
 Charge =  0 Multiplicity = 2

                          Input orientation:
 ---------------------------------------------------------------------
 Center     Atomic      Atomic             Coordinates (Angstroms)
 Number     Number       Type             X           Y           Z
 ---------------------------------------------------------------------
      1          1           0        0.000000    0.000000    0.000000
      2          1           0       -0.750000    0.000000    0.000000
      3          9           0        2.400000    0.000000    0.000000
 ---------------------------------------------------------------------

 SCF Done:  E(UB3LYP) =  -100.934275573     a.u. after   64 cycles

 Alpha  occ. eigenvalues --  -24.77039  -1.22815  -0.55979  -0.47656  -0.47124
 Alpha  occ. eigenvalues --   -0.42350
 Alpha virt. eigenvalues --    0.07149   0.20734   0.48040   0.85469   0.90318
 Alpha virt. eigenvalues --    0.93192   1.08989   1.09025   1.12650   1.56336
 Alpha virt. eigenvalues --    1.82832   1.82859   1.98082   2.40456   3.28631

  Beta  occ. eigenvalues --  -24.73873  -1.13721  -0.44994  -0.43951  -0.41834
  Beta virt. eigenvalues --   -0.26586   0.07253   0.20801   0.48141   0.91808
  Beta virt. eigenvalues --    0.94875   0.95045   1.09026   1.09028   1.16226
  Beta virt. eigenvalues --    1.56372   1.82833   1.82857   1.98086   2.40468

 Mulliken charges and spin densities:
               1          2
     1  H   -0.007476  -0.001875
     2  H   -0.009527  -0.000709
     3  F    0.017003   1.002585
 Sum of Mulliken charges =   0.00000   1.00000

 Dipole moment (field-independent basis, Debye):
    X=              0.1808    Y=              0.0000    Z=              0.0000  Tot=              0.1808
 Quadrupole moment (field-independent basis, Debye-Ang):
   XX=             -6.0306   YY=             -6.8142   ZZ=             -6.2519
   XY=              0.0000   XZ=              0.0000   YZ=              0.3272

  Exact polarizability:       8.968       0.000       2.075      -0.000       0.162       2.354
 Approx polarizability:      10.124       0.000       2.177       0.000       0.211       2.540

                      1                      2                      3
                      A                      A                      A
 Frequencies --    250.4458               457.8024              1434.5985
 Red. masses --      1.1085                 1.0096                 1.0096
 Frc consts  --      0.0410                 0.1247                 1.2243
 IR Inten    --      1.0871                 0.0176                 0.4496

                      4
                      A
 Frequencies --   4340.0521
 Red. masses --      1.0078
 Frc consts  --     11.1847
 IR Inten    --      5.9727

 - Thermochemistry -
 -------------------
 Temperature   298.150 Kelvin.  Pressure   1.00000 Atm.
 Atom     1 has atomic number  1 and mass   1.00783

 Molecular mass:    21.01405 amu.
 Principal axes and moments of inertia in atomic units:
                           1         2         3
     Eigenvalues --     0.00000  51.12473  51.12473
           X            1.00000  -0.00000   0.00000
           Y            0.00000   1.00000   0.00000
           Z            0.00000   0.00000   1.00000
 This molecule is a prolate symmetric top.
 Rotational symmetry number  1.
 Rotational temperature (Kelvin)      1.69417
 Rotational constant (GHZ):          35.300750
 Zero-point vibrational energy      38776.3 (Joules/Mol)
                                    9.26777 (Kcal/Mol)
 Warning -- explicit consideration of   2 degrees of freedom as
           vibrations may cause significant error
 Vibrational temperatures:    360.34   658.68  2064.07  6244.37
          (Kelvin)

 Zero-point correction=                           0.014769 (Hartree/Particle)
 Thermal correction to Energy=                    0.017879
 Thermal correction to Enthalpy=                  0.018823
 Thermal correction to Gibbs Free Energy=        -0.005514
 Sum of electronic and zero-point Energies=           -100.919506
 Sum of electronic and thermal Energies=              -100.916396
 Sum of electronic and thermal Enthalpies=            -100.915452
 Sum of electronic and thermal Free Energies=         -100.939790

                     E (Thermal)             CV                S
                      KCal/Mol        Cal/Mol-Kelvin    Cal/Mol-Kelvin
 Total                   11.219              8.168             51.223
 Electronic               0.000              0.000              1.377
 Translational            0.889              2.981             35.068
 Rotational               0.592              1.987             12.262
 Vibrational              9.738              3.200              2.515
 Vibration     1          0.663              1.762              1.727
 Vibration     2          0.816              1.344              0.773

 Normal termination of Gaussian 16 at Fri Aug 22 17:30:25 2025.
