 Gaussian 16, Revision C.01,
 Gaussian 16:  ES64L-G16RevC.01  3-Jul-2019

 -----------------------------------------
 # sp b3lyp/6-311g** Force nosymm scf=(qc)
 -----------------------------------------

 -------------------
 Title Card Required
 -------------------
 Symbolic Z-matrix:
 Charge =  0 Multiplicity = 2

                          Input orientation:
 ---------------------------------------------------------------------
 Center     Atomic      Atomic             Coordinates (Angstroms)
 Number     Number       Type             X           Y           Z
 ---------------------------------------------------------------------
      1          1           0        0.000000    0.000000    0.000000
      2          1           0       -3.100000    0.000000    0.000000
      3          9           0        0.750000    0.000000    0.000000
 ---------------------------------------------------------------------

 SCF Done:  E(UB3LYP) =  -100.922017252     a.u. after    6 cycles

 Alpha  occ. eigenvalues --  -24.63442  -1.25462  -0.57375  -0.41180  -0.41180
 Alpha  occ. eigenvalues --   -0.33805
 Alpha virt. eigenvalues --    0.06063   0.25317   0.49111   0.93935   0.93935
 Alpha virt. eigenvalues --    0.96517   1.22784   1.23718   1.23718   1.32959
 Alpha virt. eigenvalues --    1.41721   1.41721   2.00672   2.14838   2.67711

  Beta  occ. eigenvalues --  -24.63440  -1.25456  -0.57370  -0.41179  -0.41179
  Beta virt. eigenvalues --   -0.06048   0.07000   0.39286   0.49239   0.93935
  Beta virt. eigenvalues --    0.93935   0.96505   1.30806   1.41722   1.41722
  Beta virt. eigenvalues --    1.50857   1.50857   1.51217   2.00715   2.44460

 Mulliken charges and spin densities:
               1          2
     1  H    0.266703   0.001178
     2  H    0.001659   0.997772
     3  F   -0.268363   0.001050
 Sum of Mulliken charges =   0.00000   1.00000

 Dipole moment (field-independent basis, Debye):
    X=             -1.6812    Y=              0.0000    Z=             -0.0000  Tot=              1.6812
 Quadrupole moment (field-independent basis, Debye-Ang):
   XX=             -7.3842   YY=             -6.7162   ZZ=             -6.7162
   XY=              0.0000   XZ=             -0.0000   YZ=              0.0000

  Exact polarizability:       4.783      -0.000       2.454      -0.000       0.000       2.454
 Approx polarizability:       5.163       0.000       2.437       0.000       0.000       2.437

 ******    3 imaginary frequencies (negative Signs) ******

                      1                      2                      3
                      A                      A                      A
 Frequencies --  -2698.2004             -2698.2004               -40.8443
 Red. masses --      1.0394                 1.0394                 1.0532
 Frc consts  --      4.4584                 4.4584                 0.0010
 IR Inten    --    200.9054               200.9054                 0.0891

                      4
                      A
 Frequencies --   7586.5053
 Red. masses --      1.0583
 Frc consts  --     35.8880
 IR Inten    --    111.1080

 - Thermochemistry -
 -------------------
 Temperature   298.150 Kelvin.  Pressure   1.00000 Atm.
 Atom     1 has atomic number  1 and mass   1.00783

 Molecular mass:    21.01405 amu.
 Principal axes and moments of inertia in atomic units:
                           1         2         3
     Eigenvalues --     0.00000  51.71838  51.71838
           X            1.00000  -0.00000   0.00000
           Y            0.00000   1.00000   0.00000
           Z            0.00000   0.00000   1.00000
 This molecule is a prolate symmetric top.
 Rotational symmetry number  1.
 Rotational temperature (Kelvin)      1.67472
 Rotational constant (GHZ):          34.895545
    3 imaginary frequencies ignored.
 Zero-point vibrational energy      45377.4 (Joules/Mol)
                                   10.84545 (Kcal/Mol)
 Vibrational temperatures:  10915.29
          (Kelvin)

 Zero-point correction=                           0.017283 (Hartree/Particle)
 Thermal correction to Energy=                    0.019644
 Thermal correction to Enthalpy=                  0.020588
 Thermal correction to Gibbs Free Energy=        -0.002565
 Sum of electronic and zero-point Energies=           -100.904734
 Sum of electronic and thermal Energies=              -100.902373
 Sum of electronic and thermal Enthalpies=            -100.901429
 Sum of electronic and thermal Free Energies=         -100.924583

                     E (Thermal)             CV                S
                      KCal/Mol        Cal/Mol-Kelvin    Cal/Mol-Kelvin
 Total                   12.327              4.968             48.730
 Electronic               0.000              0.000              1.377
 Translational            0.889              2.981             35.068
 Rotational               0.592              1.987             12.285
 Vibrational             10.845              0.000              0.000

 Normal termination of Gaussian 16 at Fri Aug 22 15:49:28 2025.
