 Gaussian 16, Revision C.01,
 Gaussian 16:  ES64L-G16RevC.01  3-Jul-2019

 -----------------------------------------
 # sp b3lyp/6-311g** Force nosymm scf=(qc)
 -----------------------------------------

 -------------------
 Title Card Required
 -------------------
 Symbolic Z-matrix:
 Charge =  0 Multiplicity = 2

                          Input orientation:
 ---------------------------------------------------------------------
 Center     Atomic      Atomic             Coordinates (Angstroms)
 Number     Number       Type             X           Y           Z
 ---------------------------------------------------------------------
      1          1           0        0.000000    0.000000    0.000000
      2          1           0       -1.200000    0.000000    0.000000
      3          9           0        2.400000    0.000000    0.000000
 ---------------------------------------------------------------------

 SCF Done:  E(UB3LYP) =  -100.873417619     a.u. after   14 cycles

 Alpha  occ. eigenvalues --  -24.74673  -1.20705  -0.53934  -0.45198  -0.45198
 Alpha  occ. eigenvalues --   -0.37866
 Alpha virt. eigenvalues --   -0.04690   0.22419   0.34819   0.89054   0.91703
 Alpha virt. eigenvalues --    0.91703   1.08501   1.11333   1.11333   1.24919
 Alpha virt. eigenvalues --    1.52866   1.52866   2.06203   2.30307   2.54462

  Beta  occ. eigenvalues --  -24.71648  -1.12049  -0.42174  -0.42174  -0.37582
  Beta virt. eigenvalues --   -0.25673  -0.03951   0.22849   0.35308   0.93133
  Beta virt. eigenvalues --    0.93133   0.97003   1.11685   1.11789   1.11789
  Beta virt. eigenvalues --    1.26759   1.53239   1.53239   2.06765   2.30893

 Mulliken charges and spin densities:
               1          2
     1  H    0.002621  -0.053746
     2  H    0.030755   0.098517
     3  F   -0.033376   0.955229
 Sum of Mulliken charges =   0.00000   1.00000

 Dipole moment (field-independent basis, Debye):
    X=             -0.5769    Y=             -0.0000    Z=              0.0000  Tot=              0.5769
 Quadrupole moment (field-independent basis, Debye-Ang):
   XX=             -6.2285   YY=             -7.4548   ZZ=             -7.4548
   XY=              0.0000   XZ=             -0.0000   YZ=              0.0000

  Exact polarizability:      37.980       0.000       2.150      -0.000       0.000       2.150
 Approx polarizability:      48.693       0.000       2.124      -0.000      -0.000       2.124

 ******    2 imaginary frequencies (negative Signs) ******

                      1                      2                      3
                      A                      A                      A
 Frequencies --   -877.3967              -134.7942              1406.5623
 Red. masses --      1.0154                 1.0995                 1.0117
 Frc consts  --      0.4605                 0.0118                 1.1793
 IR Inten    --    406.3536                 0.0855                 0.0009

                      4
                      A
 Frequencies --   1406.5626
 Red. masses --      1.0117
 Frc consts  --      1.1793
 IR Inten    --      0.0009

 - Thermochemistry -
 -------------------
 Temperature   298.150 Kelvin.  Pressure   1.00000 Atm.
 Atom     1 has atomic number  1 and mass   1.00783

 Molecular mass:    21.01405 amu.
 Principal axes and moments of inertia in atomic units:
                           1         2         3
     Eigenvalues --     0.00000  61.15959  61.15959
           X            1.00000  -0.00000   0.00000
           Y            0.00000   1.00000   0.00000
           Z            0.00000   0.00000   1.00000
 This molecule is a prolate symmetric top.
 Rotational symmetry number  1.
 Rotational temperature (Kelvin)      1.41620
 Rotational constant (GHZ):          29.508719
    2 imaginary frequencies ignored.
 Zero-point vibrational energy      16826.2 (Joules/Mol)
                                    4.02156 (Kcal/Mol)
 Vibrational temperatures:   2023.73  2023.73
          (Kelvin)

 Zero-point correction=                           0.006409 (Hartree/Particle)
 Thermal correction to Energy=                    0.008784
 Thermal correction to Enthalpy=                  0.009728
 Thermal correction to Gibbs Free Energy=        -0.013600
 Sum of electronic and zero-point Energies=           -100.867009
 Sum of electronic and thermal Energies=              -100.864634
 Sum of electronic and thermal Enthalpies=            -100.863690
 Sum of electronic and thermal Free Energies=         -100.887018

                     E (Thermal)             CV                S
                      KCal/Mol        Cal/Mol-Kelvin    Cal/Mol-Kelvin
 Total                    5.512              5.175             49.098
 Electronic               0.000              0.000              1.377
 Translational            0.889              2.981             35.068
 Rotational               0.592              1.987             12.618
 Vibrational              4.031              0.207              0.035

 Normal termination of Gaussian 16 at Fri Aug 22 17:31:19 2025.
