 Gaussian 16, Revision C.01,
 Gaussian 16:  ES64L-G16RevC.01  3-Jul-2019

 -----------------------------------------
 # sp b3lyp/6-311g** Force nosymm scf=(qc)
 -----------------------------------------

 -------------------
 Title Card Required
 -------------------
 Symbolic Z-matrix:
 Charge =  0 Multiplicity = 2

                          Input orientation:
 ---------------------------------------------------------------------
 Center     Atomic      Atomic             Coordinates (Angstroms)
 Number     Number       Type             X           Y           Z
 ---------------------------------------------------------------------
      1          1           0        0.000000    0.000000    0.000000
      2          1           0       -0.750000    0.000000    0.000000
      3          9           0        0.700000    0.000000    0.000000
 ---------------------------------------------------------------------

 SCF Done:  E(UB3LYP) =  -100.774550822     a.u. after    6 cycles

 Alpha  occ. eigenvalues --  -24.66873  -1.34482  -0.68064  -0.45301  -0.45301
 Alpha  occ. eigenvalues --   -0.31134
 Alpha virt. eigenvalues --    0.16879   0.18337   0.78484   0.86268   0.86268
 Alpha virt. eigenvalues --    0.93247   1.09652   1.09652   1.43100   1.68513
 Alpha virt. eigenvalues --    1.83274   1.83274   2.13846   2.66087   3.75616

  Beta  occ. eigenvalues --  -24.66078  -1.32103  -0.64084  -0.44627  -0.44627
  Beta virt. eigenvalues --   -0.12038   0.17522   0.23504   0.82660   0.88115
  Beta virt. eigenvalues --    0.88115   0.95808   1.15306   1.15306   1.45188
  Beta virt. eigenvalues --    1.74757   1.88889   1.88889   2.20899   2.74244

 Mulliken charges and spin densities:
               1          2
     1  H    0.266538  -0.036869
     2  H   -0.076787   0.908295
     3  F   -0.189751   0.128574
 Sum of Mulliken charges =   0.00000   1.00000

 Dipole moment (field-independent basis, Debye):
    X=             -0.8722    Y=             -0.0000    Z=              0.0000  Tot=              0.8722
 Quadrupole moment (field-independent basis, Debye-Ang):
   XX=             -7.4972   YY=             -6.4500   ZZ=             -6.4500
   XY=              0.0000   XZ=              0.0000   YZ=             -0.0000

  Exact polarizability:       8.578      -0.000       2.511       0.000       0.000       2.511
 Approx polarizability:       8.647       0.000       2.594      -0.000       0.000       2.594

 ******    2 imaginary frequencies (negative Signs) ******

                      1                      2                      3
                      A                      A                      A
 Frequencies --  -4106.8537             -4106.8537              3463.9040
 Red. masses --      1.0188                 1.0188                 1.0637
 Frc consts  --     10.1242                10.1242                 7.5198
 IR Inten    --    114.5119               114.5119               196.3952

                      4
                      A
 Frequencies --   9212.9088
 Red. masses --      1.0479
 Frc consts  --     52.4062
 IR Inten    --     43.3301

 - Thermochemistry -
 -------------------
 Temperature   298.150 Kelvin.  Pressure   1.00000 Atm.
 Atom     1 has atomic number  1 and mass   1.00783

 Molecular mass:    21.01405 amu.
 Principal axes and moments of inertia in atomic units:
                           1         2         3
     Eigenvalues --     0.00000   8.53255   8.53255
           X            1.00000  -0.00000   0.00000
           Y            0.00000   1.00000   0.00000
           Z            0.00000   0.00000   1.00000
 This molecule is a prolate symmetric top.
 Rotational symmetry number  1.
 Rotational temperature (Kelvin)     10.15100
 Rotational constant (GHZ):         211.512422
    2 imaginary frequencies ignored.
 Zero-point vibrational energy      75824.2 (Joules/Mol)
                                   18.12241 (Kcal/Mol)
 Vibrational temperatures:   4983.79 13255.32
          (Kelvin)

 Zero-point correction=                           0.028880 (Hartree/Particle)
 Thermal correction to Energy=                    0.031240
 Thermal correction to Enthalpy=                  0.032185
 Thermal correction to Gibbs Free Energy=         0.010733
 Sum of electronic and zero-point Energies=           -100.745671
 Sum of electronic and thermal Energies=              -100.743310
 Sum of electronic and thermal Enthalpies=            -100.742366
 Sum of electronic and thermal Free Energies=         -100.763818

                     E (Thermal)             CV                S
                      KCal/Mol        Cal/Mol-Kelvin    Cal/Mol-Kelvin
 Total                   19.604              4.968             45.149
 Electronic               0.000              0.000              1.377
 Translational            0.889              2.981             35.068
 Rotational               0.592              1.987              8.704
 Vibrational             18.122              0.000              0.000

 Normal termination of Gaussian 16 at Fri Aug 22 15:45:33 2025.
