 Gaussian 16, Revision C.01,
 Gaussian 16:  ES64L-G16RevC.01  3-Jul-2019

 -----------------------------------------
 # sp b3lyp/6-311g** Force nosymm scf=(qc)
 -----------------------------------------

 -------------------
 Title Card Required
 -------------------
 Symbolic Z-matrix:
 Charge =  0 Multiplicity = 2

                          Input orientation:
 ---------------------------------------------------------------------
 Center     Atomic      Atomic             Coordinates (Angstroms)
 Number     Number       Type             X           Y           Z
 ---------------------------------------------------------------------
      1          1           0        0.000000    0.000000    0.000000
      2          1           0       -1.750000    0.000000    0.000000
      3          9           0        2.850000    0.000000    0.000000
 ---------------------------------------------------------------------

 SCF Done:  E(UB3LYP) =  -100.792580462     a.u. after   38 cycles

 Alpha  occ. eigenvalues --  -24.74107  -1.20163  -0.53233  -0.44696  -0.44696
 Alpha  occ. eigenvalues --   -0.34383
 Alpha virt. eigenvalues --   -0.11853   0.24982   0.30697   0.90029   0.92242
 Alpha virt. eigenvalues --    0.92242   1.04345   1.08891   1.22889   1.22889
 Alpha virt. eigenvalues --    1.36370   1.36370   1.63133   2.14452   2.40537

  Beta  occ. eigenvalues --  -24.71091  -1.11522  -0.41678  -0.41678  -0.34245
  Beta virt. eigenvalues --   -0.24962  -0.11423   0.25878   0.30755   0.93695
  Beta virt. eigenvalues --    0.93695   0.98317   1.06814   1.10936   1.23062
  Beta virt. eigenvalues --    1.23062   1.36866   1.36866   1.63659   2.15516

 Mulliken charges and spin densities:
               1          2
     1  H    0.014732  -0.647418
     2  H    0.023723   0.692111
     3  F   -0.038455   0.955307
 Sum of Mulliken charges =  -0.00000   1.00000

 Dipole moment (field-independent basis, Debye):
    X=             -0.7583    Y=             -0.0000    Z=              0.0000  Tot=              0.7583
 Quadrupole moment (field-independent basis, Debye-Ang):
   XX=             -7.0579   YY=             -7.7287   ZZ=             -7.7287
   XY=             -0.0000   XZ=              0.0000   YZ=              0.0000

  Exact polarizability:      62.479      -0.000       2.012       0.000       0.000       2.012
 Approx polarizability:      69.368       0.000       1.961      -0.000       0.000       1.961

 ******    2 imaginary frequencies (negative Signs) ******

                      1                      2                      3
                      A                      A                      A
 Frequencies --  -1830.7762              -263.2476               821.2115
 Red. masses --      1.0080                 1.1083                 1.0131
 Frc consts  --      1.9905                 0.0453                 0.4026
 IR Inten    --    124.1137                34.4532                 0.0204

                      4
                      A
 Frequencies --    821.2115
 Red. masses --      1.0131
 Frc consts  --      0.4026
 IR Inten    --      0.0204

 - Thermochemistry -
 -------------------
 Temperature   298.150 Kelvin.  Pressure   1.00000 Atm.
 Atom     1 has atomic number  1 and mass   1.00783

 Molecular mass:    21.01405 amu.
 Principal axes and moments of inertia in atomic units:
                           1         2         3
     Eigenvalues --     0.00000  95.80785  95.80785
           X            1.00000  -0.00000   0.00000
           Y            0.00000   1.00000   0.00000
           Z            0.00000   0.00000   1.00000
 This molecule is a prolate symmetric top.
 Rotational symmetry number  1.
 Rotational temperature (Kelvin)      0.90404
 Rotational constant (GHZ):          18.837091
    2 imaginary frequencies ignored.
 Zero-point vibrational energy       9823.9 (Joules/Mol)
                                    2.34796 (Kcal/Mol)
 Vibrational temperatures:   1181.54  1181.54
          (Kelvin)

 Zero-point correction=                           0.003742 (Hartree/Particle)
 Thermal correction to Energy=                    0.006247
 Thermal correction to Enthalpy=                  0.007191
 Thermal correction to Gibbs Free Energy=        -0.016725
 Sum of electronic and zero-point Energies=           -100.788839
 Sum of electronic and thermal Energies=              -100.786333
 Sum of electronic and thermal Enthalpies=            -100.785389
 Sum of electronic and thermal Free Energies=         -100.809306

                     E (Thermal)             CV                S
                      KCal/Mol        Cal/Mol-Kelvin    Cal/Mol-Kelvin
 Total                    3.920              6.201             50.337
 Electronic               0.000              0.000              1.377
 Translational            0.889              2.981             35.068
 Rotational               0.592              1.987             13.510
 Vibrational              2.439              1.233              0.381

 Normal termination of Gaussian 16 at Fri Aug 22 18:52:58 2025.
