 Gaussian 16, Revision C.01,
 Gaussian 16:  ES64L-G16RevC.01  3-Jul-2019

 -----------------------------------------
 # sp b3lyp/6-311g** Force nosymm scf=(qc)
 -----------------------------------------

 -------------------
 Title Card Required
 -------------------
 Symbolic Z-matrix:
 Charge =  0 Multiplicity = 2

                          Input orientation:
 ---------------------------------------------------------------------
 Center     Atomic      Atomic             Coordinates (Angstroms)
 Number     Number       Type             X           Y           Z
 ---------------------------------------------------------------------
      1          1           0        0.000000    0.000000    0.000000
      2          1           0       -0.600000    0.000000    0.000000
      3          9           0        3.900000    0.000000    0.000000
 ---------------------------------------------------------------------

 SCF Done:  E(UB3LYP) =  -100.914447233     a.u. after   51 cycles

 Alpha  occ. eigenvalues --  -24.76186  -1.22074  -0.55278  -0.46645  -0.46433
 Alpha  occ. eigenvalues --   -0.46416
 Alpha virt. eigenvalues --    0.08409   0.18880   0.51873   0.86100   0.90977
 Alpha virt. eigenvalues --    0.91998   1.01235   1.10189   1.10191   1.60423
 Alpha virt. eigenvalues --    1.81356   1.92732   1.92734   2.36918   3.64945

  Beta  occ. eigenvalues --  -24.73030  -1.12998  -0.46612  -0.43284  -0.43269
  Beta virt. eigenvalues --   -0.25925   0.08417   0.18884   0.51909   0.92477
  Beta virt. eigenvalues --    0.93485   0.95565   1.05354   1.10189   1.10191
  Beta virt. eigenvalues --    1.60426   1.81368   1.92731   1.92734   2.36918

 Mulliken charges and spin densities:
               1          2
     1  H   -0.000390  -0.000238
     2  H   -0.001406   0.000045
     3  F    0.001796   1.000193
 Sum of Mulliken charges =   0.00000   1.00000

 Dipole moment (field-independent basis, Debye):
    X=              0.0244    Y=             -0.0000    Z=              0.0000  Tot=              0.0244
 Quadrupole moment (field-independent basis, Debye-Ang):
   XX=             -6.2353   YY=             -5.8872   ZZ=             -6.7209
   XY=             -0.0000   XZ=             -0.0000   YZ=              0.1145

  Exact polarizability:       6.265      -0.000       2.325      -0.000       0.062       1.876
 Approx polarizability:       6.854      -0.000       2.521      -0.000       0.077       1.959

 ******    3 imaginary frequencies (negative Signs) ******

                      1                      2                      3
                      A                      A                      A
 Frequencies --  -2767.8843             -2767.2231               -50.9928
 Red. masses --      1.0083                 1.0083                 1.1085
 Frc consts  --      4.5515                 4.5493                 0.0017
 IR Inten    --      0.0001                 0.0001                 0.0573

                      4
                      A
 Frequencies --   7042.5397
 Red. masses --      1.0078
 Frc consts  --     29.4506
 IR Inten    --      0.0206

 - Thermochemistry -
 -------------------
 Temperature   298.150 Kelvin.  Pressure   1.00000 Atm.
 Atom     1 has atomic number  1 and mass   1.00783

 Molecular mass:    21.01405 amu.
 Principal axes and moments of inertia in atomic units:
                           1         2         3
     Eigenvalues --     0.00000 115.44170 115.44170
           X            1.00000  -0.00000   0.00000
           Y            0.00000   1.00000   0.00000
           Z            0.00000   0.00000   1.00000
 This molecule is a prolate symmetric top.
 Rotational symmetry number  1.
 Rotational temperature (Kelvin)      0.75028
 Rotational constant (GHZ):          15.633356
    3 imaginary frequencies ignored.
 Zero-point vibrational energy      42123.7 (Joules/Mol)
                                   10.06782 (Kcal/Mol)
 Vibrational temperatures:  10132.64
          (Kelvin)

 Zero-point correction=                           0.016044 (Hartree/Particle)
 Thermal correction to Energy=                    0.018405
 Thermal correction to Enthalpy=                  0.019349
 Thermal correction to Gibbs Free Energy=        -0.004563
 Sum of electronic and zero-point Energies=           -100.898403
 Sum of electronic and thermal Energies=              -100.896043
 Sum of electronic and thermal Enthalpies=            -100.895099
 Sum of electronic and thermal Free Energies=         -100.919010

                     E (Thermal)             CV                S
                      KCal/Mol        Cal/Mol-Kelvin    Cal/Mol-Kelvin
 Total                   11.549              4.968             50.326
 Electronic               0.000              0.000              1.377
 Translational            0.889              2.981             35.068
 Rotational               0.592              1.987             13.880
 Vibrational             10.068              0.000              0.000

 Normal termination of Gaussian 16 at Sat Aug 23 01:12:36 2025.
