 Gaussian 16, Revision C.01,
 Gaussian 16:  ES64L-G16RevC.01  3-Jul-2019

 -----------------------------------------
 # sp b3lyp/6-311g** Force nosymm scf=(qc)
 -----------------------------------------

 -------------------
 Title Card Required
 -------------------
 Symbolic Z-matrix:
 Charge =  0 Multiplicity = 2

                          Input orientation:
 ---------------------------------------------------------------------
 Center     Atomic      Atomic             Coordinates (Angstroms)
 Number     Number       Type             X           Y           Z
 ---------------------------------------------------------------------
      1          1           0        0.000000    0.000000    0.000000
      2          1           0       -2.750000    0.000000    0.000000
      3          9           0        2.950000    0.000000    0.000000
 ---------------------------------------------------------------------

 SCF Done:  E(UB3LYP) =  -100.763280795     a.u. after   20 cycles

 Alpha  occ. eigenvalues --  -24.73939  -1.20007  -0.53056  -0.44550  -0.44550
 Alpha  occ. eigenvalues --   -0.32908
 Alpha virt. eigenvalues --   -0.09830   0.25015   0.34265   0.89660   0.92365
 Alpha virt. eigenvalues --    0.92365   1.04247   1.24669   1.24669   1.26132
 Alpha virt. eigenvalues --    1.41177   1.41177   1.42071   2.15629   2.37776

  Beta  occ. eigenvalues --  -24.70923  -1.11367  -0.41532  -0.41532  -0.33901
  Beta virt. eigenvalues --   -0.24700  -0.08394   0.25141   0.35791   0.93823
  Beta virt. eigenvalues --    0.93823   0.98337   1.08066   1.23508   1.23508
  Beta virt. eigenvalues --    1.25051   1.43460   1.43460   1.43967   2.16263

 Mulliken charges and spin densities:
               1          2
     1  H    0.036851  -0.941054
     2  H    0.003283   0.985538
     3  F   -0.040135   0.955517
 Sum of Mulliken charges =  -0.00000   1.00000

 Dipole moment (field-independent basis, Debye):
    X=             -0.6507    Y=             -0.0000    Z=              0.0000  Tot=              0.6507
 Quadrupole moment (field-independent basis, Debye-Ang):
   XX=             -8.1895   YY=             -7.6316   ZZ=             -7.6316
   XY=             -0.0000   XZ=              0.0000   YZ=             -0.0000

  Exact polarizability:      38.763      -0.000       2.018       0.000       0.000       2.018
 Approx polarizability:      37.312      -0.000       1.922       0.000      -0.000       1.922

 ******    2 imaginary frequencies (negative Signs) ******

                      1                      2                      3
                      A                      A                      A
 Frequencies --   -546.3877              -224.5030               204.3981
 Red. masses --      1.0164                 1.0983                 1.0171
 Frc consts  --      0.1788                 0.0326                 0.0250
 IR Inten    --     31.5856                12.5091                 1.1565

                      4
                      A
 Frequencies --    204.3981
 Red. masses --      1.0171
 Frc consts  --      0.0250
 IR Inten    --      1.1565

 - Thermochemistry -
 -------------------
 Temperature   298.150 Kelvin.  Pressure   1.00000 Atm.
 Atom     1 has atomic number  1 and mass   1.00783

 Molecular mass:    21.01405 amu.
 Principal axes and moments of inertia in atomic units:
                           1         2         3
     Eigenvalues --     0.00000 135.33728 135.33728
           X            1.00000  -0.00000   0.00000
           Y            0.00000   1.00000   0.00000
           Z            0.00000   0.00000   1.00000
 This molecule is a prolate symmetric top.
 Rotational symmetry number  1.
 Rotational temperature (Kelvin)      0.63999
 Rotational constant (GHZ):          13.335137
    2 imaginary frequencies ignored.
 Zero-point vibrational energy       2445.1 (Joules/Mol)
                                    0.58440 (Kcal/Mol)
 Warning -- explicit consideration of   2 degrees of freedom as
           vibrations may cause significant error
 Vibrational temperatures:    294.08   294.08
          (Kelvin)

 Zero-point correction=                           0.000931 (Hartree/Particle)
 Thermal correction to Energy=                    0.004400
 Thermal correction to Enthalpy=                  0.005344
 Thermal correction to Gibbs Free Energy=        -0.020707
 Sum of electronic and zero-point Energies=           -100.762349
 Sum of electronic and thermal Energies=              -100.758881
 Sum of electronic and thermal Enthalpies=            -100.757937
 Sum of electronic and thermal Free Energies=         -100.783988

                     E (Thermal)             CV                S
                      KCal/Mol        Cal/Mol-Kelvin    Cal/Mol-Kelvin
 Total                    2.761              8.635             54.828
 Electronic               0.000              0.000              1.377
 Translational            0.889              2.981             35.068
 Rotational               0.592              1.987             14.196
 Vibrational              1.280              3.667              4.186
 Vibration     1          0.640              1.834              2.093
 Vibration     2          0.640              1.834              2.093

 Normal termination of Gaussian 16 at Fri Aug 22 19:18:11 2025.
