 Gaussian 16, Revision C.01,
 Gaussian 16:  ES64L-G16RevC.01  3-Jul-2019

 -----------------------------------------
 # sp b3lyp/6-311g** Force nosymm scf=(qc)
 -----------------------------------------

 -------------------
 Title Card Required
 -------------------
 Symbolic Z-matrix:
 Charge =  0 Multiplicity = 2

                          Input orientation:
 ---------------------------------------------------------------------
 Center     Atomic      Atomic             Coordinates (Angstroms)
 Number     Number       Type             X           Y           Z
 ---------------------------------------------------------------------
      1          1           0        0.000000    0.000000    0.000000
      2          1           0       -3.550000    0.000000    0.000000
      3          9           0        3.950000    0.000000    0.000000
 ---------------------------------------------------------------------

 SCF Done:  E(UB3LYP) =  -100.758619738     a.u. after   32 cycles

 Alpha  occ. eigenvalues --  -24.75854  -1.21784  -0.54979  -0.46162  -0.46162
 Alpha  occ. eigenvalues --   -0.32258
 Alpha virt. eigenvalues --   -0.06579   0.24345   0.37713   0.86622   0.91187
 Alpha virt. eigenvalues --    0.91187   1.01118   1.25244   1.25244   1.25370
 Alpha virt. eigenvalues --    1.45669   1.45900   1.45900   2.15029   2.41363

  Beta  occ. eigenvalues --  -24.72711  -1.12743  -0.43010  -0.43010  -0.32466
  Beta virt. eigenvalues --   -0.25719  -0.06361   0.24186   0.38025   0.92685
  Beta virt. eigenvalues --    0.92685   0.95986   1.05239   1.25019   1.25019
  Beta virt. eigenvalues --    1.25130   1.46014   1.46229   1.46229   2.15019

 Mulliken charges and spin densities:
               1          2
     1  H    0.002807  -0.994908
     2  H    0.000064   0.998100
     3  F   -0.002871   0.996808
 Sum of Mulliken charges =  -0.00000   1.00000

 Dipole moment (field-independent basis, Debye):
    X=             -0.0599    Y=             -0.0000    Z=             -0.0000  Tot=              0.0599
 Quadrupole moment (field-independent basis, Debye-Ang):
   XX=             -6.9331   YY=             -7.6231   ZZ=             -7.6231
   XY=             -0.0000   XZ=             -0.0000   YZ=              0.0000

  Exact polarizability:      11.752      -0.000       2.028       0.000       0.000       2.028
 Approx polarizability:       8.753      -0.000       1.936      -0.000      -0.000       1.936

 ******    2 imaginary frequencies (negative Signs) ******

                      1                      2                      3
                      A                      A                      A
 Frequencies --   -185.2419               -70.7256                62.1950
 Red. masses --      1.0119                 1.1036                 1.0167
 Frc consts  --      0.0205                 0.0033                 0.0023
 IR Inten    --      1.0346                 0.4851                 0.0080

                      4
                      A
 Frequencies --     62.1950
 Red. masses --      1.0167
 Frc consts  --      0.0023
 IR Inten    --      0.0080

 - Thermochemistry -
 -------------------
 Temperature   298.150 Kelvin.  Pressure   1.00000 Atm.
 Atom     1 has atomic number  1 and mass   1.00783

 Molecular mass:    21.01405 amu.
 Principal axes and moments of inertia in atomic units:
                           1         2         3
     Eigenvalues --     0.00000 235.96856 235.96856
           X            1.00000  -0.00000   0.00000
           Y            0.00000   1.00000   0.00000
           Z            0.00000   0.00000   1.00000
 This molecule is a prolate symmetric top.
 Rotational symmetry number  1.
 Rotational temperature (Kelvin)      0.36706
 Rotational constant (GHZ):           7.648227
    2 imaginary frequencies ignored.
 Zero-point vibrational energy        744.0 (Joules/Mol)
                                    0.17782 (Kcal/Mol)
 Warning -- explicit consideration of   2 degrees of freedom as
           vibrations may cause significant error
 Vibrational temperatures:     89.48    89.48
          (Kelvin)

 Zero-point correction=                           0.000283 (Hartree/Particle)
 Thermal correction to Energy=                    0.004263
 Thermal correction to Enthalpy=                  0.005207
 Thermal correction to Gibbs Free Energy=        -0.023547
 Sum of electronic and zero-point Energies=           -100.758336
 Sum of electronic and thermal Energies=              -100.754357
 Sum of electronic and thermal Enthalpies=            -100.753413
 Sum of electronic and thermal Free Energies=         -100.782167

                     E (Thermal)             CV                S
                      KCal/Mol        Cal/Mol-Kelvin    Cal/Mol-Kelvin
 Total                    2.675              8.913             60.519
 Electronic               0.000              0.000              1.377
 Translational            0.889              2.981             35.068
 Rotational               0.592              1.987             15.301
 Vibrational              1.194              3.945              8.773
 Vibration     1          0.597              1.972              4.386
 Vibration     2          0.597              1.972              4.386

 Normal termination of Gaussian 16 at Sat Aug 23 01:41:55 2025.
