 Gaussian 16, Revision C.01,
 Gaussian 16:  ES64L-G16RevC.01  3-Jul-2019

 -----------------------------------------
 # sp b3lyp/6-311g** Force nosymm scf=(qc)
 -----------------------------------------

 -------------------
 Title Card Required
 -------------------
 Symbolic Z-matrix:
 Charge =  0 Multiplicity = 2

                          Input orientation:
 ---------------------------------------------------------------------
 Center     Atomic      Atomic             Coordinates (Angstroms)
 Number     Number       Type             X           Y           Z
 ---------------------------------------------------------------------
      1          1           0        0.000000    0.000000    0.000000
      2          1           0       -1.950000    0.000000    0.000000
      3          9           0        2.500000    0.000000    0.000000
 ---------------------------------------------------------------------

 SCF Done:  E(UB3LYP) =  -100.784243171     a.u. after   20 cycles

 Alpha  occ. eigenvalues --  -24.71946  -1.18138  -0.51058  -0.42869  -0.42869
 Alpha  occ. eigenvalues --   -0.34942
 Alpha virt. eigenvalues --   -0.12741   0.24764   0.31818   0.89817   0.93518
 Alpha virt. eigenvalues --    0.93518   1.05449   1.19348   1.22978   1.22978
 Alpha virt. eigenvalues --    1.35036   1.35036   1.51372   2.11353   2.35538

  Beta  occ. eigenvalues --  -24.69091  -1.10005  -0.40022  -0.40022  -0.35158
  Beta virt. eigenvalues --   -0.23673  -0.11715   0.26565   0.31669   0.94890
  Beta virt. eigenvalues --    0.94890   0.96610   1.08366   1.22319   1.22908
  Beta virt. eigenvalues --    1.22908   1.36627   1.36627   1.52008   2.12139

 Mulliken charges and spin densities:
               1          2
     1  H    0.052841  -0.748846
     2  H    0.030927   0.846316
     3  F   -0.083768   0.902530
 Sum of Mulliken charges =   0.00000   1.00000

 Dipole moment (field-independent basis, Debye):
    X=             -1.3552    Y=              0.0000    Z=             -0.0000  Tot=              1.3552
 Quadrupole moment (field-independent basis, Debye-Ang):
   XX=             -8.0651   YY=             -7.6659   ZZ=             -7.6659
   XY=              0.0000   XZ=              0.0000   YZ=              0.0000

  Exact polarizability:      60.314       0.000       2.010       0.000      -0.000       2.010
 Approx polarizability:      65.831      -0.000       1.934       0.000      -0.000       1.934

 ******    2 imaginary frequencies (negative Signs) ******

                      1                      2                      3
                      A                      A                      A
 Frequencies --  -1482.5990              -390.2378               606.3080
 Red. masses --      1.0090                 1.1071                 1.0152
 Frc consts  --      1.3067                 0.0993                 0.2199
 IR Inten    --     90.6746                50.9517                 1.3641

                      4
                      A
 Frequencies --    606.3080
 Red. masses --      1.0152
 Frc consts  --      0.2199
 IR Inten    --      1.3641

 - Thermochemistry -
 -------------------
 Temperature   298.150 Kelvin.  Pressure   1.00000 Atm.
 Atom     1 has atomic number  1 and mass   1.00783

 Molecular mass:    21.01405 amu.
 Principal axes and moments of inertia in atomic units:
                           1         2         3
     Eigenvalues --     0.00000  85.42582  85.42582
           X            1.00000  -0.00000   0.00000
           Y            0.00000   1.00000   0.00000
           Z            0.00000   0.00000   1.00000
 This molecule is a prolate symmetric top.
 Rotational symmetry number  1.
 Rotational temperature (Kelvin)      1.01391
 Rotational constant (GHZ):          21.126412
    2 imaginary frequencies ignored.
 Zero-point vibrational energy       7253.1 (Joules/Mol)
                                    1.73352 (Kcal/Mol)
 Warning -- explicit consideration of   2 degrees of freedom as
           vibrations may cause significant error
 Vibrational temperatures:    872.34   872.34
          (Kelvin)

 Zero-point correction=                           0.002763 (Hartree/Particle)
 Thermal correction to Energy=                    0.005436
 Thermal correction to Enthalpy=                  0.006380
 Thermal correction to Gibbs Free Energy=        -0.017664
 Sum of electronic and zero-point Energies=           -100.781481
 Sum of electronic and thermal Energies=              -100.778807
 Sum of electronic and thermal Enthalpies=            -100.777863
 Sum of electronic and thermal Free Energies=         -100.801907

                     E (Thermal)             CV                S
                      KCal/Mol        Cal/Mol-Kelvin    Cal/Mol-Kelvin
 Total                    3.411              7.005             50.605
 Electronic               0.000              0.000              1.377
 Translational            0.889              2.981             35.068
 Rotational               0.592              1.987             13.282
 Vibrational              1.930              2.037              0.878
 Vibration     1          0.965              1.018              0.439
 Vibration     2          0.965              1.018              0.439

 Normal termination of Gaussian 16 at Fri Aug 22 17:44:44 2025.
