 Gaussian 16, Revision C.01,
 Gaussian 16:  ES64L-G16RevC.01  3-Jul-2019

 -----------------------------------------
 # sp b3lyp/6-311g** Force nosymm scf=(qc)
 -----------------------------------------

 -------------------
 Title Card Required
 -------------------
 Symbolic Z-matrix:
 Charge =  0 Multiplicity = 2

                          Input orientation:
 ---------------------------------------------------------------------
 Center     Atomic      Atomic             Coordinates (Angstroms)
 Number     Number       Type             X           Y           Z
 ---------------------------------------------------------------------
      1          1           0        0.000000    0.000000    0.000000
      2          1           0       -1.900000    0.000000    0.000000
      3          9           0        1.050000    0.000000    0.000000
 ---------------------------------------------------------------------

 SCF Done:  E(UB3LYP) =  -100.959674427     a.u. after    6 cycles

 Alpha  occ. eigenvalues --  -24.63719  -1.14516  -0.50748  -0.38011  -0.38011
 Alpha  occ. eigenvalues --   -0.36511
 Alpha virt. eigenvalues --    0.02832   0.23538   0.32010   0.94184   0.94184
 Alpha virt. eigenvalues --    0.99152   1.12917   1.20490   1.20490   1.36423
 Alpha virt. eigenvalues --    1.36423   1.50420   1.82496   2.19549   2.34653

  Beta  occ. eigenvalues --  -24.63598  -1.14213  -0.50047  -0.37903  -0.37903
  Beta virt. eigenvalues --   -0.13675   0.05461   0.31088   0.34372   0.94201
  Beta virt. eigenvalues --    0.94201   0.99629   1.22252   1.34422   1.34422
  Beta virt. eigenvalues --    1.41191   1.41191   1.57264   1.86472   2.33552

 Mulliken charges and spin densities:
               1          2
     1  H    0.312538   0.001901
     2  H    0.022853   0.964219
     3  F   -0.335392   0.033880
 Sum of Mulliken charges =   0.00000   1.00000

 Dipole moment (field-independent basis, Debye):
    X=             -2.3365    Y=              0.0000    Z=              0.0000  Tot=              2.3365
 Quadrupole moment (field-independent basis, Debye-Ang):
   XX=             -7.8511   YY=             -6.9521   ZZ=             -6.9521
   XY=              0.0000   XZ=              0.0000   YZ=             -0.0000

  Exact polarizability:      12.241       0.000       2.451      -0.000      -0.000       2.451
 Approx polarizability:      13.742       0.000       2.430      -0.000      -0.000       2.430

 ******    1 imaginary frequencies (negative Signs) ******

                      1                      2                      3
                      A                      A                      A
 Frequencies --   -129.3052              1065.8838              1065.8838
 Red. masses --      1.0496                 1.0264                 1.0264
 Frc consts  --      0.0103                 0.6871                 0.6871
 IR Inten    --      5.8106               122.0201               122.0201

                      4
                      A
 Frequencies --   2351.0926
 Red. masses --      1.0620
 Frc consts  --      3.4588
 IR Inten    --    206.5414

 - Thermochemistry -
 -------------------
 Temperature   298.150 Kelvin.  Pressure   1.00000 Atm.
 Atom     1 has atomic number  1 and mass   1.00783

 Molecular mass:    21.01405 amu.
 Principal axes and moments of inertia in atomic units:
                           1         2         3
     Eigenvalues --     0.00000  32.52657  32.52657
           X            1.00000  -0.00000   0.00000
           Y            0.00000   1.00000   0.00000
           Z            0.00000   0.00000   1.00000
 This molecule is a prolate symmetric top.
 Rotational symmetry number  1.
 Rotational temperature (Kelvin)      2.66287
 Rotational constant (GHZ):          55.485141
    1 imaginary frequencies ignored.
 Zero-point vibrational energy      26813.5 (Joules/Mol)
                                    6.40857 (Kcal/Mol)
 Vibrational temperatures:   1533.57  1533.57  3382.70
          (Kelvin)

 Zero-point correction=                           0.010213 (Hartree/Particle)
 Thermal correction to Energy=                    0.012630
 Thermal correction to Enthalpy=                  0.013575
 Thermal correction to Gibbs Free Energy=        -0.009209
 Sum of electronic and zero-point Energies=           -100.949462
 Sum of electronic and thermal Energies=              -100.947044
 Sum of electronic and thermal Enthalpies=            -100.946100
 Sum of electronic and thermal Free Energies=         -100.968884

                     E (Thermal)             CV                S
                      KCal/Mol        Cal/Mol-Kelvin    Cal/Mol-Kelvin
 Total                    7.926              5.592             47.952
 Electronic               0.000              0.000              1.377
 Translational            0.889              2.981             35.068
 Rotational               0.592              1.987             11.363
 Vibrational              6.444              0.624              0.144

 Normal termination of Gaussian 16 at Fri Aug 22 16:02:51 2025.
