 Gaussian 16, Revision C.01,
 Gaussian 16:  ES64L-G16RevC.01  3-Jul-2019

 -----------------------------------------
 # sp b3lyp/6-311g** Force nosymm scf=(qc)
 -----------------------------------------

 -------------------
 Title Card Required
 -------------------
 Symbolic Z-matrix:
 Charge =  0 Multiplicity = 2

                          Input orientation:
 ---------------------------------------------------------------------
 Center     Atomic      Atomic             Coordinates (Angstroms)
 Number     Number       Type             X           Y           Z
 ---------------------------------------------------------------------
      1          1           0        0.000000    0.000000    0.000000
      2          1           0       -3.100000    0.000000    0.000000
      3          9           0        3.350000    0.000000    0.000000
 ---------------------------------------------------------------------

 SCF Done:  E(UB3LYP) =  -100.760079246     a.u. after   25 cycles

 Alpha  occ. eigenvalues --  -24.75109  -1.21092  -0.54230  -0.45533  -0.45533
 Alpha  occ. eigenvalues --   -0.32476
 Alpha virt. eigenvalues --   -0.08031   0.24729   0.35935   0.88124   0.91652
 Alpha virt. eigenvalues --    0.91652   1.02272   1.25051   1.25051   1.25611
 Alpha virt. eigenvalues --    1.43872   1.43889   1.43889   2.15539   2.39844

  Beta  occ. eigenvalues --  -24.72013  -1.12202  -0.42431  -0.42431  -0.33065
  Beta virt. eigenvalues --   -0.25341  -0.07292   0.24521   0.37054   0.93136
  Beta virt. eigenvalues --    0.93136   0.97167   1.06232   1.24365   1.24365
  Beta virt. eigenvalues --    1.24886   1.44934   1.45073   1.45073   2.15938

 Mulliken charges and spin densities:
               1          2
     1  H    0.016151  -0.975682
     2  H    0.000685   0.994232
     3  F   -0.016836   0.981450
 Sum of Mulliken charges =  -0.00000   1.00000

 Dipole moment (field-independent basis, Debye):
    X=             -0.3001    Y=              0.0000    Z=              0.0000  Tot=              0.3001
 Quadrupole moment (field-independent basis, Debye-Ang):
   XX=             -7.5704   YY=             -7.6288   ZZ=             -7.6288
   XY=              0.0000   XZ=              0.0000   YZ=              0.0000

  Exact polarizability:      29.196       0.000       2.028       0.000       0.000       2.028
 Approx polarizability:      24.241       0.000       1.930       0.000      -0.000       1.930

 ******    2 imaginary frequencies (negative Signs) ******

                      1                      2                      3
                      A                      A                      A
 Frequencies --   -345.7412              -143.6606               119.6911
 Red. masses --      1.0168                 1.0978                 1.0170
 Frc consts  --      0.0716                 0.0133                 0.0086
 IR Inten    --     14.2482                 4.3499                 0.2265

                      4
                      A
 Frequencies --    119.6911
 Red. masses --      1.0170
 Frc consts  --      0.0086
 IR Inten    --      0.2265

 - Thermochemistry -
 -------------------
 Temperature   298.150 Kelvin.  Pressure   1.00000 Atm.
 Atom     1 has atomic number  1 and mass   1.00783

 Molecular mass:    21.01405 amu.
 Principal axes and moments of inertia in atomic units:
                           1         2         3
     Eigenvalues --     0.00000 173.54046 173.54046
           X            1.00000  -0.00000   0.00000
           Y            0.00000   1.00000   0.00000
           Z            0.00000   0.00000   1.00000
 This molecule is a prolate symmetric top.
 Rotational symmetry number  1.
 Rotational temperature (Kelvin)      0.49910
 Rotational constant (GHZ):          10.399542
    2 imaginary frequencies ignored.
 Zero-point vibrational energy       1431.8 (Joules/Mol)
                                    0.34221 (Kcal/Mol)
 Warning -- explicit consideration of   2 degrees of freedom as
           vibrations may cause significant error
 Vibrational temperatures:    172.21   172.21
          (Kelvin)

 Zero-point correction=                           0.000545 (Hartree/Particle)
 Thermal correction to Energy=                    0.004301
 Thermal correction to Enthalpy=                  0.005245
 Thermal correction to Gibbs Free Energy=        -0.022002
 Sum of electronic and zero-point Energies=           -100.759534
 Sum of electronic and thermal Energies=              -100.755778
 Sum of electronic and thermal Enthalpies=            -100.754834
 Sum of electronic and thermal Free Energies=         -100.782081

                     E (Thermal)             CV                S
                      KCal/Mol        Cal/Mol-Kelvin    Cal/Mol-Kelvin
 Total                    2.699              8.834             57.347
 Electronic               0.000              0.000              1.377
 Translational            0.889              2.981             35.068
 Rotational               0.592              1.987             14.690
 Vibrational              1.218              3.866              6.211
 Vibration     1          0.609              1.933              3.105
 Vibration     2          0.609              1.933              3.105

 Normal termination of Gaussian 16 at Fri Aug 22 21:02:43 2025.
