 Gaussian 16, Revision C.01,
 Gaussian 16:  ES64L-G16RevC.01  3-Jul-2019

 -----------------------------------------
 # sp b3lyp/6-311g** Force nosymm scf=(qc)
 -----------------------------------------

 -------------------
 Title Card Required
 -------------------
 Symbolic Z-matrix:
 Charge =  0 Multiplicity = 2

                          Input orientation:
 ---------------------------------------------------------------------
 Center     Atomic      Atomic             Coordinates (Angstroms)
 Number     Number       Type             X           Y           Z
 ---------------------------------------------------------------------
      1          1           0        0.000000    0.000000    0.000000
      2          1           0       -1.250000    0.000000    0.000000
      3          9           0        0.550000    0.000000    0.000000
 ---------------------------------------------------------------------

 SCF Done:  E(UB3LYP) =  -100.498224083     a.u. after    6 cycles

 Alpha  occ. eigenvalues --  -24.63617  -1.40034  -0.64250  -0.44580  -0.44580
 Alpha  occ. eigenvalues --   -0.35038
 Alpha virt. eigenvalues --    0.15536   0.21075   0.70479   0.89302   0.89302
 Alpha virt. eigenvalues --    0.89383   1.14034   1.14034   1.48797   1.65138
 Alpha virt. eigenvalues --    1.65138   1.75073   1.99386   2.33946   3.76319

  Beta  occ. eigenvalues --  -24.63437  -1.39430  -0.63397  -0.44452  -0.44452
  Beta virt. eigenvalues --   -0.11600   0.16437   0.29132   0.76207   0.89707
  Beta virt. eigenvalues --    0.89874   0.89874   1.25733   1.25733   1.49660
  Beta virt. eigenvalues --    1.69950   1.69950   1.83521   2.05654   2.54914

 Mulliken charges and spin densities:
               1          2
     1  H    0.201844   0.009928
     2  H   -0.004107   0.978267
     3  F   -0.197737   0.011805
 Sum of Mulliken charges =   0.00000   1.00000

 Dipole moment (field-independent basis, Debye):
    X=             -1.1966    Y=              0.0000    Z=              0.0000  Tot=              1.1966
 Quadrupole moment (field-independent basis, Debye-Ang):
   XX=             -6.9300   YY=             -6.3939   ZZ=             -6.3939
   XY=              0.0000   XZ=             -0.0000   YZ=              0.0000

  Exact polarizability:       6.065      -0.000       2.509       0.000      -0.000       2.509
 Approx polarizability:       5.750       0.000       2.545      -0.000      -0.000       2.545

 ******    2 imaginary frequencies (negative Signs) ******

                      1                      2                      3
                      A                      A                      A
 Frequencies --  -7294.0205             -7294.0205              1454.0866
 Red. masses --      1.0301                 1.0301                 1.0537
 Frc consts  --     32.2905                32.2905                 1.3126
 IR Inten    --    176.0152               176.0152                31.4469

                      4
                      A
 Frequencies --  15784.8473
 Red. masses --      1.0579
 Frc consts  --    155.2974
 IR Inten    --     69.6776

 - Thermochemistry -
 -------------------
 Temperature   298.150 Kelvin.  Pressure   1.00000 Atm.
 Atom     1 has atomic number  1 and mass   1.00783

 Molecular mass:    21.01405 amu.
 Principal axes and moments of inertia in atomic units:
                           1         2         3
     Eigenvalues --     0.00000  11.79627  11.79627
           X            1.00000  -0.00000   0.00000
           Y            0.00000   1.00000   0.00000
           Z            0.00000   0.00000   1.00000
 This molecule is a prolate symmetric top.
 Rotational symmetry number  1.
 Rotational temperature (Kelvin)      7.34249
 Rotational constant (GHZ):         152.992582
    2 imaginary frequencies ignored.
 Zero-point vibrational energy     103111.7 (Joules/Mol)
                                   24.64429 (Kcal/Mol)
 Vibrational temperatures:   2092.11 22710.87
          (Kelvin)

 Zero-point correction=                           0.039273 (Hartree/Particle)
 Thermal correction to Energy=                    0.041640
 Thermal correction to Enthalpy=                  0.042584
 Thermal correction to Gibbs Free Energy=         0.020819
 Sum of electronic and zero-point Energies=           -100.458951
 Sum of electronic and thermal Energies=              -100.456584
 Sum of electronic and thermal Enthalpies=            -100.455640
 Sum of electronic and thermal Free Energies=         -100.477405

                     E (Thermal)             CV                S
                      KCal/Mol        Cal/Mol-Kelvin    Cal/Mol-Kelvin
 Total                   26.129              5.056             45.807
 Electronic               0.000              0.000              1.377
 Translational            0.889              2.981             35.068
 Rotational               0.592              1.987              9.348
 Vibrational             24.648              0.088              0.014

 Normal termination of Gaussian 16 at Fri Aug 22 15:38:49 2025.
