 Gaussian 16, Revision C.01,
 Gaussian 16:  ES64L-G16RevC.01  3-Jul-2019

 -----------------------------------------
 # sp b3lyp/6-311g** Force nosymm scf=(qc)
 -----------------------------------------

 -------------------
 Title Card Required
 -------------------
 Symbolic Z-matrix:
 Charge =  0 Multiplicity = 2

                          Input orientation:
 ---------------------------------------------------------------------
 Center     Atomic      Atomic             Coordinates (Angstroms)
 Number     Number       Type             X           Y           Z
 ---------------------------------------------------------------------
      1          1           0        0.000000    0.000000    0.000000
      2          1           0       -3.000000    0.000000    0.000000
      3          9           0        1.650000    0.000000    0.000000
 ---------------------------------------------------------------------

 SCF Done:  E(UB3LYP) =  -100.825769009     a.u. after   12 cycles

 Alpha  occ. eigenvalues --  -24.65257  -1.11127  -0.43859  -0.37145  -0.37145
 Alpha  occ. eigenvalues --   -0.34571
 Alpha virt. eigenvalues --   -0.15104   0.21764   0.28641   0.94435   0.94435
 Alpha virt. eigenvalues --    0.98504   1.06762   1.22965   1.22965   1.23580
 Alpha virt. eigenvalues --    1.32747   1.32747   1.74258   2.13673   2.22707

  Beta  occ. eigenvalues --  -24.64031  -1.07810  -0.40688  -0.35963  -0.35963
  Beta virt. eigenvalues --   -0.17898  -0.08098   0.22814   0.36824   0.94119
  Beta virt. eigenvalues --    0.94119   0.99386   1.07657   1.26440   1.26440
  Beta virt. eigenvalues --    1.43999   1.44311   1.44311   1.71427   2.13676

 Mulliken charges and spin densities:
               1          2
     1  H    0.305285  -0.378266
     2  H    0.007081   0.991533
     3  F   -0.312366   0.386733
 Sum of Mulliken charges =   0.00000   1.00000

 Dipole moment (field-independent basis, Debye):
    X=             -2.6142    Y=             -0.0000    Z=             -0.0000  Tot=              2.6142
 Quadrupole moment (field-independent basis, Debye-Ang):
   XX=             -9.9342   YY=             -7.3962   ZZ=             -7.3962
   XY=             -0.0000   XZ=             -0.0000   YZ=              0.0000

  Exact polarizability:      23.975       0.000       2.136       0.000       0.000       2.136
 Approx polarizability:      37.376       0.000       2.042      -0.000       0.000       2.042

 ******    2 imaginary frequencies (negative Signs) ******

                      1                      2                      3
                      A                      A                      A
 Frequencies --  -1831.7395              -192.0537               830.9030
 Red. masses --      1.0562                 1.0553                 1.0265
 Frc consts  --      2.0880                 0.0229                 0.4176
 IR Inten    --     77.5657                 2.1999                84.3579

                      4
                      A
 Frequencies --    830.9030
 Red. masses --      1.0265
 Frc consts  --      0.4176
 IR Inten    --     84.3579

 - Thermochemistry -
 -------------------
 Temperature   298.150 Kelvin.  Pressure   1.00000 Atm.
 Atom     1 has atomic number  1 and mass   1.00783

 Molecular mass:    21.01405 amu.
 Principal axes and moments of inertia in atomic units:
                           1         2         3
     Eigenvalues --     0.00000  80.76709  80.76709
           X            1.00000  -0.00000   0.00000
           Y            0.00000   1.00000   0.00000
           Z            0.00000   0.00000   1.00000
 This molecule is a prolate symmetric top.
 Rotational symmetry number  1.
 Rotational temperature (Kelvin)      1.07239
 Rotational constant (GHZ):          22.345006
    2 imaginary frequencies ignored.
 Zero-point vibrational energy       9939.8 (Joules/Mol)
                                    2.37567 (Kcal/Mol)
 Vibrational temperatures:   1195.48  1195.48
          (Kelvin)

 Zero-point correction=                           0.003786 (Hartree/Particle)
 Thermal correction to Energy=                    0.006286
 Thermal correction to Enthalpy=                  0.007230
 Thermal correction to Gibbs Free Energy=        -0.016518
 Sum of electronic and zero-point Energies=           -100.821983
 Sum of electronic and thermal Energies=              -100.819483
 Sum of electronic and thermal Enthalpies=            -100.818539
 Sum of electronic and thermal Free Energies=         -100.842287

                     E (Thermal)             CV                S
                      KCal/Mol        Cal/Mol-Kelvin    Cal/Mol-Kelvin
 Total                    3.945              6.170             49.983
 Electronic               0.000              0.000              1.377
 Translational            0.889              2.981             35.068
 Rotational               0.592              1.987             13.171
 Vibrational              2.463              1.202              0.367

 Normal termination of Gaussian 16 at Fri Aug 22 16:35:14 2025.
