 Gaussian 16, Revision C.01,
 Gaussian 16:  ES64L-G16RevC.01  3-Jul-2019

 -----------------------------------------
 # sp b3lyp/6-311g** Force nosymm scf=(qc)
 -----------------------------------------

 -------------------
 Title Card Required
 -------------------
 Symbolic Z-matrix:
 Charge =  0 Multiplicity = 2

                          Input orientation:
 ---------------------------------------------------------------------
 Center     Atomic      Atomic             Coordinates (Angstroms)
 Number     Number       Type             X           Y           Z
 ---------------------------------------------------------------------
      1          1           0        0.000000    0.000000    0.000000
      2          1           0       -3.050000    0.000000    0.000000
      3          9           0        1.450000    0.000000    0.000000
 ---------------------------------------------------------------------

 SCF Done:  E(UB3LYP) =  -100.866063422     a.u. after    8 cycles

 Alpha  occ. eigenvalues --  -24.64292  -1.09924  -0.43864  -0.36501  -0.36501
 Alpha  occ. eigenvalues --   -0.34532
 Alpha virt. eigenvalues --   -0.13040   0.21311   0.27665   0.93348   0.93348
 Alpha virt. eigenvalues --    1.03525   1.12634   1.22986   1.22986   1.23432
 Alpha virt. eigenvalues --    1.32048   1.32048   1.72901   2.13735   2.20131

  Beta  occ. eigenvalues --  -24.64242  -1.09793  -0.43726  -0.36454  -0.36454
  Beta virt. eigenvalues --   -0.13900  -0.07027   0.24293   0.37472   0.93331
  Beta virt. eigenvalues --    0.93331   1.03660   1.12744   1.31843   1.31843
  Beta virt. eigenvalues --    1.44794   1.45170   1.45170   1.72924   2.19839

 Mulliken charges and spin densities:
               1          2
     1  H    0.350123  -0.010221
     2  H    0.005181   0.994353
     3  F   -0.355304   0.015868
 Sum of Mulliken charges =  -0.00000   1.00000

 Dipole moment (field-independent basis, Debye):
    X=             -2.6190    Y=             -0.0000    Z=             -0.0000  Tot=              2.6190
 Quadrupole moment (field-independent basis, Debye-Ang):
   XX=             -9.5567   YY=             -7.2952   ZZ=             -7.2952
   XY=             -0.0000   XZ=             -0.0000   YZ=             -0.0000

  Exact polarizability:      16.137       0.000       2.214      -0.000       0.000       2.214
 Approx polarizability:      27.166       0.000       2.145      -0.000       0.000       2.145

 ******    2 imaginary frequencies (negative Signs) ******

                      1                      2                      3
                      A                      A                      A
 Frequencies --  -1121.4148              -129.4771              1045.6067
 Red. masses --      1.0557                 1.0559                 1.0289
 Frc consts  --      0.7822                 0.0104                 0.6627
 IR Inten    --     66.9568                 0.7805               116.7694

                      4
                      A
 Frequencies --   1045.6067
 Red. masses --      1.0289
 Frc consts  --      0.6627
 IR Inten    --    116.7694

 - Thermochemistry -
 -------------------
 Temperature   298.150 Kelvin.  Pressure   1.00000 Atm.
 Atom     1 has atomic number  1 and mass   1.00783

 Molecular mass:    21.01405 amu.
 Principal axes and moments of inertia in atomic units:
                           1         2         3
     Eigenvalues --     0.00000  74.33612  74.33612
           X            1.00000  -0.00000   0.00000
           Y            0.00000   1.00000   0.00000
           Z            0.00000   0.00000   1.00000
 This molecule is a prolate symmetric top.
 Rotational symmetry number  1.
 Rotational temperature (Kelvin)      1.16517
 Rotational constant (GHZ):          24.278119
    2 imaginary frequencies ignored.
 Zero-point vibrational energy      12508.2 (Joules/Mol)
                                    2.98954 (Kcal/Mol)
 Vibrational temperatures:   1504.39  1504.39
          (Kelvin)

 Zero-point correction=                           0.004764 (Hartree/Particle)
 Thermal correction to Energy=                    0.007186
 Thermal correction to Enthalpy=                  0.008131
 Thermal correction to Gibbs Free Energy=        -0.015439
 Sum of electronic and zero-point Energies=           -100.861299
 Sum of electronic and thermal Energies=              -100.858877
 Sum of electronic and thermal Enthalpies=            -100.857933
 Sum of electronic and thermal Free Energies=         -100.881503

                     E (Thermal)             CV                S
                      KCal/Mol        Cal/Mol-Kelvin    Cal/Mol-Kelvin
 Total                    4.509              5.628             49.607
 Electronic               0.000              0.000              1.377
 Translational            0.889              2.981             35.068
 Rotational               0.592              1.987             13.006
 Vibrational              3.028              0.660              0.156

 Normal termination of Gaussian 16 at Fri Aug 22 16:23:34 2025.
