 Gaussian 16, Revision C.01,
 Gaussian 16:  ES64L-G16RevC.01  3-Jul-2019

 -----------------------------------------
 # sp b3lyp/6-311g** Force nosymm scf=(qc)
 -----------------------------------------

 -------------------
 Title Card Required
 -------------------
 Symbolic Z-matrix:
 Charge =  0 Multiplicity = 2

                          Input orientation:
 ---------------------------------------------------------------------
 Center     Atomic      Atomic             Coordinates (Angstroms)
 Number     Number       Type             X           Y           Z
 ---------------------------------------------------------------------
      1          1           0        0.000000    0.000000    0.000000
      2          1           0       -0.750000    0.000000    0.000000
      3          9           0        3.000000    0.000000    0.000000
 ---------------------------------------------------------------------

 SCF Done:  E(UB3LYP) =  -100.934396003     a.u. after    7 cycles

 Alpha  occ. eigenvalues --  -24.76614  -1.22420  -0.55612  -0.46885  -0.46762
 Alpha  occ. eigenvalues --   -0.42983
 Alpha virt. eigenvalues --    0.06091   0.19975   0.46973   0.85852   0.90724
 Alpha virt. eigenvalues --    0.93868   1.05861   1.08649   1.08656   1.55511
 Alpha virt. eigenvalues --    1.82507   1.82515   1.98541   2.38809   3.28362

  Beta  occ. eigenvalues --  -24.73453  -1.13333  -0.43925  -0.43592  -0.42769
  Beta virt. eigenvalues --   -0.26235   0.06134   0.20004   0.47076   0.92223
  Beta virt. eigenvalues --    0.95309   0.95689   1.08649   1.08655   1.09526
  Beta virt. eigenvalues --    1.55525   1.82506   1.82514   1.98572   2.38816

 Mulliken charges and spin densities:
               1          2
     1  H   -0.005601  -0.001186
     2  H   -0.003820  -0.000063
     3  F    0.009420   1.001249
 Sum of Mulliken charges =   0.00000   1.00000

 Dipole moment (field-independent basis, Debye):
    X=              0.0939    Y=              0.0000    Z=             -0.0000  Tot=              0.0939
 Quadrupole moment (field-independent basis, Debye-Ang):
   XX=             -6.0734   YY=             -6.5281   ZZ=             -6.5279
   XY=              0.0000   XZ=             -0.0000   YZ=              0.4318

  Exact polarizability:       8.655       0.000       2.193       0.000       0.230       2.193
 Approx polarizability:       9.866       0.000       2.329       0.000       0.289       2.329

                      1                      2                      3
                      A                      A                      A
 Frequencies --     62.5435               436.0190               436.0199
 Red. masses --      1.1085                 1.0091                 1.0091
 Frc consts  --      0.0026                 0.1130                 0.1130
 IR Inten    --      0.2528                 0.0096                 0.0093

                      4
                      A
 Frequencies --   4338.1615
 Red. masses --      1.0078
 Frc consts  --     11.1750
 IR Inten    --      0.4458

 - Thermochemistry -
 -------------------
 Temperature   298.150 Kelvin.  Pressure   1.00000 Atm.
 Atom     1 has atomic number  1 and mass   1.00783

 Molecular mass:    21.01405 amu.
 Principal axes and moments of inertia in atomic units:
                           1         2         3
     Eigenvalues --     0.00000  75.13773  75.13773
           X            1.00000  -0.00000   0.00000
           Y            0.00000   1.00000   0.00000
           Z            0.00000   0.00000   1.00000
 This molecule is a prolate symmetric top.
 Rotational symmetry number  1.
 Rotational temperature (Kelvin)      1.15274
 Rotational constant (GHZ):          24.019107
 Zero-point vibrational energy      31538.0 (Joules/Mol)
                                    7.53777 (Kcal/Mol)
 Warning -- explicit consideration of   3 degrees of freedom as
           vibrations may cause significant error
 Vibrational temperatures:     89.99   627.33   627.34  6241.65
          (Kelvin)

 Zero-point correction=                           0.012012 (Hartree/Particle)
 Thermal correction to Energy=                    0.015733
 Thermal correction to Enthalpy=                  0.016678
 Thermal correction to Gibbs Free Energy=        -0.009705
 Sum of electronic and zero-point Energies=           -100.922384
 Sum of electronic and thermal Energies=              -100.918663
 Sum of electronic and thermal Enthalpies=            -100.917718
 Sum of electronic and thermal Free Energies=         -100.944101

                     E (Thermal)             CV                S
                      KCal/Mol        Cal/Mol-Kelvin    Cal/Mol-Kelvin
 Total                    9.873              9.724             55.526
 Electronic               0.000              0.000              1.377
 Translational            0.889              2.981             35.068
 Rotational               0.592              1.987             13.027
 Vibrational              8.392              4.756              6.054
 Vibration     1          0.597              1.972              4.375
 Vibration     2          0.796              1.392              0.839
 Vibration     3          0.796              1.392              0.839

 Normal termination of Gaussian 16 at Fri Aug 22 19:22:58 2025.
