 Gaussian 16, Revision C.01,
 Gaussian 16:  ES64L-G16RevC.01  3-Jul-2019

 -----------------------------------------
 # sp b3lyp/6-311g** Force nosymm scf=(qc)
 -----------------------------------------

 -------------------
 Title Card Required
 -------------------
 Symbolic Z-matrix:
 Charge =  0 Multiplicity = 2

                          Input orientation:
 ---------------------------------------------------------------------
 Center     Atomic      Atomic             Coordinates (Angstroms)
 Number     Number       Type             X           Y           Z
 ---------------------------------------------------------------------
      1          1           0        0.000000    0.000000    0.000000
      2          1           0       -3.950000    0.000000    0.000000
      3          9           0        3.100000    0.000000    0.000000
 ---------------------------------------------------------------------

 SCF Done:  E(UB3LYP) =  -100.760225828     a.u. after   24 cycles

 Alpha  occ. eigenvalues --  -24.74412  -1.20449  -0.53533  -0.44949  -0.44949
 Alpha  occ. eigenvalues --   -0.32415
 Alpha virt. eigenvalues --   -0.07392   0.23944   0.36402   0.88997   0.92078
 Alpha virt. eigenvalues --    0.92078   1.03335   1.25081   1.25081   1.25104
 Alpha virt. eigenvalues --    1.44927   1.44927   1.45425   2.14415   2.41225

  Beta  occ. eigenvalues --  -24.71362  -1.11702  -0.41895  -0.41895  -0.33488
  Beta virt. eigenvalues --   -0.24958  -0.05924   0.23752   0.38145   0.93547
  Beta virt. eigenvalues --    0.93547   0.97805   1.07128   1.23854   1.23854
  Beta virt. eigenvalues --    1.24030   1.46616   1.46737   1.46737   2.14578

 Mulliken charges and spin densities:
               1          2
     1  H    0.030315  -0.966004
     2  H    0.000118   0.999312
     3  F   -0.030433   0.966693
 Sum of Mulliken charges =  -0.00000   1.00000

 Dipole moment (field-independent basis, Debye):
    X=             -0.4868    Y=              0.0000    Z=              0.0000  Tot=              0.4868
 Quadrupole moment (field-independent basis, Debye-Ang):
   XX=             -8.1440   YY=             -7.6088   ZZ=             -7.6088
   XY=             -0.0000   XZ=             -0.0000   YZ=              0.0000

  Exact polarizability:      30.101      -0.000       2.029      -0.000      -0.000       2.029
 Approx polarizability:      29.388      -0.000       1.929      -0.000      -0.000       1.929

 ******    2 imaginary frequencies (negative Signs) ******

                      1                      2                      3
                      A                      A                      A
 Frequencies --   -326.6387               -72.6839               111.0878
 Red. masses --      1.0529                 1.0587                 1.0211
 Frc consts  --      0.0662                 0.0033                 0.0074
 IR Inten    --     32.8626                 0.1052                 0.8788

                      4
                      A
 Frequencies --    111.0878
 Red. masses --      1.0211
 Frc consts  --      0.0074
 IR Inten    --      0.8788

 - Thermochemistry -
 -------------------
 Temperature   298.150 Kelvin.  Pressure   1.00000 Atm.
 Atom     1 has atomic number  1 and mass   1.00783

 Molecular mass:    21.01405 amu.
 Principal axes and moments of inertia in atomic units:
                           1         2         3
     Eigenvalues --     0.00000 195.68380 195.68380
           X            1.00000  -0.00000   0.00000
           Y            0.00000   1.00000   0.00000
           Z            0.00000   0.00000   1.00000
 This molecule is a prolate symmetric top.
 Rotational symmetry number  1.
 Rotational temperature (Kelvin)      0.44262
 Rotational constant (GHZ):           9.222742
    2 imaginary frequencies ignored.
 Zero-point vibrational energy       1328.9 (Joules/Mol)
                                    0.31762 (Kcal/Mol)
 Warning -- explicit consideration of   2 degrees of freedom as
           vibrations may cause significant error
 Vibrational temperatures:    159.83   159.83
          (Kelvin)

 Zero-point correction=                           0.000506 (Hartree/Particle)
 Thermal correction to Energy=                    0.004294
 Thermal correction to Enthalpy=                  0.005238
 Thermal correction to Gibbs Free Energy=        -0.022260
 Sum of electronic and zero-point Energies=           -100.759720
 Sum of electronic and thermal Energies=              -100.755932
 Sum of electronic and thermal Enthalpies=            -100.754988
 Sum of electronic and thermal Free Energies=         -100.782486

                     E (Thermal)             CV                S
                      KCal/Mol        Cal/Mol-Kelvin    Cal/Mol-Kelvin
 Total                    2.694              8.849             57.874
 Electronic               0.000              0.000              1.377
 Translational            0.889              2.981             35.068
 Rotational               0.592              1.987             14.929
 Vibrational              1.213              3.881              6.500
 Vibration     1          0.607              1.940              3.250
 Vibration     2          0.607              1.940              3.250

 Normal termination of Gaussian 16 at Fri Aug 22 19:56:48 2025.
