 Gaussian 16, Revision C.01,
 Gaussian 16:  ES64L-G16RevC.01  3-Jul-2019

 -----------------------------------------
 # sp b3lyp/6-311g** Force nosymm scf=(qc)
 -----------------------------------------

 -------------------
 Title Card Required
 -------------------
 Symbolic Z-matrix:
 Charge =  0 Multiplicity = 2

                          Input orientation:
 ---------------------------------------------------------------------
 Center     Atomic      Atomic             Coordinates (Angstroms)
 Number     Number       Type             X           Y           Z
 ---------------------------------------------------------------------
      1          1           0        0.000000    0.000000    0.000000
      2          1           0       -1.700000    0.000000    0.000000
      3          9           0        0.900000    0.000000    0.000000
 ---------------------------------------------------------------------

 SCF Done:  E(UB3LYP) =  -100.971250098     a.u. after    5 cycles

 Alpha  occ. eigenvalues --  -24.63565  -1.18788  -0.54252  -0.39320  -0.39320
 Alpha  occ. eigenvalues --   -0.36501
 Alpha virt. eigenvalues --    0.08786   0.22526   0.38132   0.94551   0.94551
 Alpha virt. eigenvalues --    0.98174   1.16930   1.19270   1.19270   1.39274
 Alpha virt. eigenvalues --    1.39274   1.53116   1.98838   2.25419   2.45849

  Beta  occ. eigenvalues --  -24.63437  -1.18463  -0.53452  -0.39211  -0.39211
  Beta virt. eigenvalues --   -0.13450   0.10828   0.30483   0.40525   0.94607
  Beta virt. eigenvalues --    0.94607   0.98503   1.26187   1.32620   1.32620
  Beta virt. eigenvalues --    1.44069   1.44069   1.58243   2.09417   2.30871

 Mulliken charges and spin densities:
               1          2
     1  H    0.275770   0.008238
     2  H    0.021468   0.960586
     3  F   -0.297238   0.031176
 Sum of Mulliken charges =   0.00000   1.00000

 Dipole moment (field-independent basis, Debye):
    X=             -2.0766    Y=             -0.0000    Z=             -0.0000  Tot=              2.0766
 Quadrupole moment (field-independent basis, Debye-Ang):
   XX=             -7.4681   YY=             -6.7894   ZZ=             -6.7894
   XY=             -0.0000   XZ=             -0.0000   YZ=             -0.0000

  Exact polarizability:       9.915      -0.000       2.513      -0.000       0.000       2.513
 Approx polarizability:      10.309       0.000       2.508      -0.000       0.000       2.508

 ******    2 imaginary frequencies (negative Signs) ******

                      1                      2                      3
                      A                      A                      A
 Frequencies --   -683.5235              -683.5235               398.1644
 Red. masses --      1.0271                 1.0271                 1.0525
 Frc consts  --      0.2827                 0.2827                 0.0983
 IR Inten    --    130.0513               130.0513                 0.4587

                      4
                      A
 Frequencies --   4365.8616
 Red. masses --      1.0591
 Frc consts  --     11.8940
 IR Inten    --    203.2994

 - Thermochemistry -
 -------------------
 Temperature   298.150 Kelvin.  Pressure   1.00000 Atm.
 Atom     1 has atomic number  1 and mass   1.00783

 Molecular mass:    21.01405 amu.
 Principal axes and moments of inertia in atomic units:
                           1         2         3
     Eigenvalues --     0.00000  25.13006  25.13006
           X            1.00000  -0.00000   0.00000
           Y            0.00000   1.00000   0.00000
           Z            0.00000   0.00000   1.00000
 This molecule is a prolate symmetric top.
 Rotational symmetry number  1.
 Rotational temperature (Kelvin)      3.44663
 Rotational constant (GHZ):          71.816033
    2 imaginary frequencies ignored.
 Zero-point vibrational energy      28495.2 (Joules/Mol)
                                    6.81052 (Kcal/Mol)
 Warning -- explicit consideration of   1 degrees of freedom as
           vibrations may cause significant error
 Vibrational temperatures:    572.87  6281.50
          (Kelvin)

 Zero-point correction=                           0.010853 (Hartree/Particle)
 Thermal correction to Energy=                    0.013525
 Thermal correction to Enthalpy=                  0.014469
 Thermal correction to Gibbs Free Energy=        -0.008463
 Sum of electronic and zero-point Energies=           -100.960397
 Sum of electronic and thermal Energies=              -100.957725
 Sum of electronic and thermal Enthalpies=            -100.956781
 Sum of electronic and thermal Free Energies=         -100.979713

                     E (Thermal)             CV                S
                      KCal/Mol        Cal/Mol-Kelvin    Cal/Mol-Kelvin
 Total                    8.487              6.442             48.265
 Electronic               0.000              0.000              1.377
 Translational            0.889              2.981             35.068
 Rotational               0.592              1.987             10.851
 Vibrational              7.006              1.474              0.969
 Vibration     1          0.764              1.474              0.969

 Normal termination of Gaussian 16 at Fri Aug 22 15:55:37 2025.
