 Gaussian 16, Revision C.01,
 Gaussian 16:  ES64L-G16RevC.01  3-Jul-2019

 -----------------------------------------
 # sp b3lyp/6-311g** Force nosymm scf=(qc)
 -----------------------------------------

 -------------------
 Title Card Required
 -------------------
 Symbolic Z-matrix:
 Charge =  0 Multiplicity = 2

                          Input orientation:
 ---------------------------------------------------------------------
 Center     Atomic      Atomic             Coordinates (Angstroms)
 Number     Number       Type             X           Y           Z
 ---------------------------------------------------------------------
      1          1           0        0.000000    0.000000    0.000000
      2          1           0       -2.600000    0.000000    0.000000
      3          9           0        1.550000    0.000000    0.000000
 ---------------------------------------------------------------------

 SCF Done:  E(UB3LYP) =  -100.845365995     a.u. after    8 cycles

 Alpha  occ. eigenvalues --  -24.64323  -1.09903  -0.43163  -0.36355  -0.36355
 Alpha  occ. eigenvalues --   -0.35500
 Alpha virt. eigenvalues --   -0.14392   0.22645   0.27095   0.94089   0.94089
 Alpha virt. eigenvalues --    1.02539   1.08741   1.22010   1.22010   1.24064
 Alpha virt. eigenvalues --    1.31966   1.31966   1.74915   2.13122   2.20467

  Beta  occ. eigenvalues --  -24.63800  -1.08511  -0.41868  -0.35856  -0.35856
  Beta virt. eigenvalues --   -0.16745  -0.08368   0.24477   0.35638   0.93890
  Beta virt. eigenvalues --    0.93890   1.03633   1.08811   1.29397   1.29397
  Beta virt. eigenvalues --    1.42516   1.42516   1.43214   1.74049   2.16593

 Mulliken charges and spin densities:
               1          2
     1  H    0.327810  -0.145649
     2  H    0.016529   0.980696
     3  F   -0.344339   0.164953
 Sum of Mulliken charges =  -0.00000   1.00000

 Dipole moment (field-independent basis, Debye):
    X=             -2.8186    Y=             -0.0000    Z=             -0.0000  Tot=              2.8186
 Quadrupole moment (field-independent basis, Debye-Ang):
   XX=             -9.5378   YY=             -7.3536   ZZ=             -7.3536
   XY=              0.0000   XZ=             -0.0000   YZ=             -0.0000

  Exact polarizability:      23.994      -0.000       2.177       0.000       0.000       2.177
 Approx polarizability:      37.492       0.000       2.099      -0.000      -0.000       2.099

 ******    2 imaginary frequencies (negative Signs) ******

                      1                      2                      3
                      A                      A                      A
 Frequencies --  -1714.7385              -250.7001               949.8187
 Red. masses --      1.0512                 1.0604                 1.0252
 Frc consts  --      1.8211                 0.0393                 0.5450
 IR Inten    --      3.6042                 3.9390                94.4709

                      4
                      A
 Frequencies --    949.8187
 Red. masses --      1.0252
 Frc consts  --      0.5450
 IR Inten    --     94.4709

 - Thermochemistry -
 -------------------
 Temperature   298.150 Kelvin.  Pressure   1.00000 Atm.
 Atom     1 has atomic number  1 and mass   1.00783

 Molecular mass:    21.01405 amu.
 Principal axes and moments of inertia in atomic units:
                           1         2         3
     Eigenvalues --     0.00000  65.02254  65.02254
           X            1.00000  -0.00000   0.00000
           Y            0.00000   1.00000   0.00000
           Z            0.00000   0.00000   1.00000
 This molecule is a prolate symmetric top.
 Rotational symmetry number  1.
 Rotational temperature (Kelvin)      1.33206
 Rotational constant (GHZ):          27.755623
    2 imaginary frequencies ignored.
 Zero-point vibrational energy      11362.4 (Joules/Mol)
                                    2.71567 (Kcal/Mol)
 Vibrational temperatures:   1366.58  1366.58
          (Kelvin)

 Zero-point correction=                           0.004328 (Hartree/Particle)
 Thermal correction to Energy=                    0.006778
 Thermal correction to Enthalpy=                  0.007722
 Thermal correction to Gibbs Free Energy=        -0.015757
 Sum of electronic and zero-point Energies=           -100.841038
 Sum of electronic and thermal Energies=              -100.838588
 Sum of electronic and thermal Enthalpies=            -100.837644
 Sum of electronic and thermal Free Energies=         -100.861122

                     E (Thermal)             CV                S
                      KCal/Mol        Cal/Mol-Kelvin    Cal/Mol-Kelvin
 Total                    4.253              5.839             49.414
 Electronic               0.000              0.000              1.377
 Translational            0.889              2.981             35.068
 Rotational               0.592              1.987             12.740
 Vibrational              2.772              0.871              0.229

 Normal termination of Gaussian 16 at Fri Aug 22 16:28:48 2025.
