 Gaussian 16, Revision C.01,
 Gaussian 16:  ES64L-G16RevC.01  3-Jul-2019

 -----------------------------------------
 # sp b3lyp/6-311g** Force nosymm scf=(qc)
 -----------------------------------------

 -------------------
 Title Card Required
 -------------------
 Symbolic Z-matrix:
 Charge =  0 Multiplicity = 2

                          Input orientation:
 ---------------------------------------------------------------------
 Center     Atomic      Atomic             Coordinates (Angstroms)
 Number     Number       Type             X           Y           Z
 ---------------------------------------------------------------------
      1          1           0        0.000000    0.000000    0.000000
      2          1           0       -1.100000    0.000000    0.000000
      3          9           0        1.150000    0.000000    0.000000
 ---------------------------------------------------------------------

 SCF Done:  E(UB3LYP) =  -100.949354864     a.u. after    7 cycles

 Alpha  occ. eigenvalues --  -24.64872  -1.14541  -0.54572  -0.38513  -0.38513
 Alpha  occ. eigenvalues --   -0.37599
 Alpha virt. eigenvalues --    0.07949   0.19174   0.35632   0.90799   0.90799
 Alpha virt. eigenvalues --    0.99000   1.08551   1.08551   1.30640   1.56699
 Alpha virt. eigenvalues --    1.56699   1.59240   2.19684   2.30999   2.57075

  Beta  occ. eigenvalues --  -24.63739  -1.11654  -0.48499  -0.37473  -0.37473
  Beta virt. eigenvalues --   -0.20402   0.10545   0.21841   0.39885   0.91885
  Beta virt. eigenvalues --    0.91885   1.01483   1.14345   1.14345   1.35845
  Beta virt. eigenvalues --    1.60654   1.60654   1.63390   2.28489   2.33672

 Mulliken charges and spin densities:
               1          2
     1  H    0.276758  -0.052616
     2  H    0.042189   0.731877
     3  F   -0.318947   0.320740
 Sum of Mulliken charges =  -0.00000   1.00000

 Dipole moment (field-independent basis, Debye):
    X=             -2.2679    Y=             -0.0000    Z=             -0.0000  Tot=              2.2679
 Quadrupole moment (field-independent basis, Debye-Ang):
   XX=             -7.7344   YY=             -6.8328   ZZ=             -6.8328
   XY=             -0.0000   XZ=             -0.0000   YZ=              0.0000

  Exact polarizability:      19.706      -0.000       2.528       0.000       0.000       2.528
 Approx polarizability:      25.483       0.000       2.530      -0.000      -0.000       2.530

 ******    1 imaginary frequencies (negative Signs) ******

                      1                      2                      3
                      A                      A                      A
 Frequencies --  -1955.6495               976.8924               976.8924
 Red. masses --      1.0204                 1.0174                 1.0174
 Frc consts  --      2.2993                 0.5721                 0.5721
 IR Inten    --     91.3828                40.7410                40.7410

                      4
                      A
 Frequencies --   1135.7352
 Red. masses --      1.0937
 Frc consts  --      0.8312
 IR Inten    --     51.1114

 - Thermochemistry -
 -------------------
 Temperature   298.150 Kelvin.  Pressure   1.00000 Atm.
 Atom     1 has atomic number  1 and mass   1.00783

 Molecular mass:    21.01405 amu.
 Principal axes and moments of inertia in atomic units:
                           1         2         3
     Eigenvalues --     0.00000  20.98433  20.98433
           X            1.00000  -0.00000   0.00000
           Y            0.00000   1.00000   0.00000
           Z            0.00000   0.00000   1.00000
 This molecule is a prolate symmetric top.
 Rotational symmetry number  1.
 Rotational temperature (Kelvin)      4.12755
 Rotational constant (GHZ):          86.004218
    1 imaginary frequencies ignored.
 Zero-point vibrational energy      18479.4 (Joules/Mol)
                                    4.41669 (Kcal/Mol)
 Vibrational temperatures:   1405.53  1405.53  1634.07
          (Kelvin)

 Zero-point correction=                           0.007038 (Hartree/Particle)
 Thermal correction to Energy=                    0.009501
 Thermal correction to Enthalpy=                  0.010445
 Thermal correction to Gibbs Free Energy=        -0.011979
 Sum of electronic and zero-point Energies=           -100.942316
 Sum of electronic and thermal Energies=              -100.939854
 Sum of electronic and thermal Enthalpies=            -100.938910
 Sum of electronic and thermal Free Energies=         -100.961334

                     E (Thermal)             CV                S
                      KCal/Mol        Cal/Mol-Kelvin    Cal/Mol-Kelvin
 Total                    5.962              6.025             47.197
 Electronic               0.000              0.000              1.377
 Translational            0.889              2.981             35.068
 Rotational               0.592              1.987             10.492
 Vibrational              4.481              1.057              0.259

 Normal termination of Gaussian 16 at Fri Aug 22 16:07:06 2025.
