 Gaussian 16, Revision C.01,
 Gaussian 16:  ES64L-G16RevC.01  3-Jul-2019

 -----------------------------------------
 # sp b3lyp/6-311g** Force nosymm scf=(qc)
 -----------------------------------------

 -------------------
 Title Card Required
 -------------------
 Symbolic Z-matrix:
 Charge =  0 Multiplicity = 2

                          Input orientation:
 ---------------------------------------------------------------------
 Center     Atomic      Atomic             Coordinates (Angstroms)
 Number     Number       Type             X           Y           Z
 ---------------------------------------------------------------------
      1          1           0        0.000000    0.000000    0.000000
      2          1           0       -2.500000    0.000000    0.000000
      3          9           0        2.400000    0.000000    0.000000
 ---------------------------------------------------------------------

 SCF Done:  E(UB3LYP) =  -100.773494687     a.u. after   17 cycles

 Alpha  occ. eigenvalues --  -24.71118  -1.17360  -0.50206  -0.42180  -0.42180
 Alpha  occ. eigenvalues --   -0.33981
 Alpha virt. eigenvalues --   -0.12291   0.24664   0.32941   0.89742   0.93950
 Alpha virt. eigenvalues --    0.93950   1.06686   1.23672   1.23672   1.26706
 Alpha virt. eigenvalues --    1.37417   1.37417   1.44745   2.14514   2.32493

  Beta  occ. eigenvalues --  -24.68335  -1.09458  -0.39410  -0.39410  -0.35707
  Beta virt. eigenvalues --   -0.22974  -0.09671   0.25759   0.34660   0.95259
  Beta virt. eigenvalues --    0.95259   0.95747   1.09230   1.22082   1.22082
  Beta virt. eigenvalues --    1.33437   1.41506   1.41506   1.43274   2.13870

 Mulliken charges and spin densities:
               1          2
     1  H    0.092457  -0.848970
     2  H    0.012253   0.970550
     3  F   -0.104710   0.878419
 Sum of Mulliken charges =  -0.00000   1.00000

 Dipole moment (field-independent basis, Debye):
    X=             -1.4198    Y=              0.0000    Z=              0.0000  Tot=              1.4198
 Quadrupole moment (field-independent basis, Debye-Ang):
   XX=             -8.9784   YY=             -7.5980   ZZ=             -7.5980
   XY=              0.0000   XZ=              0.0000   YZ=             -0.0000

  Exact polarizability:      42.727       0.000       2.019       0.000      -0.000       2.019
 Approx polarizability:      47.338       0.000       1.920       0.000       0.000       1.920

 ******    2 imaginary frequencies (negative Signs) ******

                      1                      2                      3
                      A                      A                      A
 Frequencies --   -860.7003              -357.2694               346.3871
 Red. masses --      1.0247                 1.0888                 1.0184
 Frc consts  --      0.4472                 0.0819                 0.0720
 IR Inten    --     62.2426                23.4342                 7.0211

                      4
                      A
 Frequencies --    346.3871
 Red. masses --      1.0184
 Frc consts  --      0.0720
 IR Inten    --      7.0211

 - Thermochemistry -
 -------------------
 Temperature   298.150 Kelvin.  Pressure   1.00000 Atm.
 Atom     1 has atomic number  1 and mass   1.00783

 Molecular mass:    21.01405 amu.
 Principal axes and moments of inertia in atomic units:
                           1         2         3
     Eigenvalues --     0.00000  97.94426  97.94426
           X            1.00000  -0.00000   0.00000
           Y            0.00000   1.00000   0.00000
           Z            0.00000   0.00000   1.00000
 This molecule is a prolate symmetric top.
 Rotational symmetry number  1.
 Rotational temperature (Kelvin)      0.88432
 Rotational constant (GHZ):          18.426207
    2 imaginary frequencies ignored.
 Zero-point vibrational energy       4143.7 (Joules/Mol)
                                    0.99037 (Kcal/Mol)
 Warning -- explicit consideration of   2 degrees of freedom as
           vibrations may cause significant error
 Vibrational temperatures:    498.37   498.37
          (Kelvin)

 Zero-point correction=                           0.001578 (Hartree/Particle)
 Thermal correction to Energy=                    0.004669
 Thermal correction to Enthalpy=                  0.005614
 Thermal correction to Gibbs Free Energy=        -0.019267
 Sum of electronic and zero-point Energies=           -100.771916
 Sum of electronic and thermal Energies=              -100.768825
 Sum of electronic and thermal Enthalpies=            -100.767881
 Sum of electronic and thermal Free Energies=         -100.792761

                     E (Thermal)             CV                S
                      KCal/Mol        Cal/Mol-Kelvin    Cal/Mol-Kelvin
 Total                    2.930              8.133             52.364
 Electronic               0.000              0.000              1.377
 Translational            0.889              2.981             35.068
 Rotational               0.592              1.987             13.554
 Vibrational              1.449              3.165              2.365
 Vibration     1          0.724              1.583              1.183
 Vibration     2          0.724              1.583              1.183

 Normal termination of Gaussian 16 at Fri Aug 22 17:32:38 2025.
