 Gaussian 16, Revision C.01,
 Gaussian 16:  ES64L-G16RevC.01  3-Jul-2019

 -----------------------------------------
 # sp b3lyp/6-311g** Force nosymm scf=(qc)
 -----------------------------------------

 -------------------
 Title Card Required
 -------------------
 Symbolic Z-matrix:
 Charge =  0 Multiplicity = 2

                          Input orientation:
 ---------------------------------------------------------------------
 Center     Atomic      Atomic             Coordinates (Angstroms)
 Number     Number       Type             X           Y           Z
 ---------------------------------------------------------------------
      1          1           0        0.000000    0.000000    0.000000
      2          1           0       -3.600000    0.000000    0.000000
      3          9           0        1.150000    0.000000    0.000000
 ---------------------------------------------------------------------

 SCF Done:  E(UB3LYP) =  -100.937349325     a.u. after    6 cycles

 Alpha  occ. eigenvalues --  -24.64329  -1.13005  -0.48656  -0.37800  -0.37800
 Alpha  occ. eigenvalues --   -0.33726
 Alpha virt. eigenvalues --   -0.04109   0.22622   0.30200   0.93351   0.93351
 Alpha virt. eigenvalues --    1.00187   1.23732   1.23787   1.23787   1.27675
 Alpha virt. eigenvalues --    1.34929   1.34929   1.75551   2.13826   2.30247

  Beta  occ. eigenvalues --  -24.64326  -1.12998  -0.48648  -0.37798  -0.37798
  Beta virt. eigenvalues --   -0.06722  -0.03119   0.27998   0.38977   0.93351
  Beta virt. eigenvalues --    0.93351   1.00194   1.27646   1.34924   1.34924
  Beta virt. eigenvalues --    1.48590   1.48590   1.48947   1.75576   2.29820

 Mulliken charges and spin densities:
               1          2
     1  H    0.347749   0.000200
     2  H    0.000948   0.998944
     3  F   -0.348698   0.000855
 Sum of Mulliken charges =   0.00000   1.00000

 Dipole moment (field-independent basis, Debye):
    X=             -2.2319    Y=             -0.0000    Z=             -0.0000  Tot=              2.2319
 Quadrupole moment (field-independent basis, Debye-Ang):
   XX=             -8.7167   YY=             -7.0891   ZZ=             -7.0891
   XY=              0.0000   XZ=             -0.0000   YZ=             -0.0000

  Exact polarizability:       8.661      -0.000       2.344       0.000      -0.000       2.344
 Approx polarizability:      11.814       0.000       2.303       0.000      -0.000       2.303

 ******    1 imaginary frequencies (negative Signs) ******

                      1                      2                      3
                      A                      A                      A
 Frequencies --    -50.8799              1208.3034              1208.3034
 Red. masses --      1.0531                 1.0353                 1.0353
 Frc consts  --      0.0016                 0.8905                 0.8905
 IR Inten    --      0.0654               152.2197               152.2197

                      4
                      A
 Frequencies --   1466.9762
 Red. masses --      1.0585
 Frc consts  --      1.3421
 IR Inten    --     71.9318

 - Thermochemistry -
 -------------------
 Temperature   298.150 Kelvin.  Pressure   1.00000 Atm.
 Atom     1 has atomic number  1 and mass   1.00783

 Molecular mass:    21.01405 amu.
 Principal axes and moments of inertia in atomic units:
                           1         2         3
     Eigenvalues --     0.00000  79.95387  79.95387
           X            1.00000  -0.00000   0.00000
           Y            0.00000   1.00000   0.00000
           Z            0.00000   0.00000   1.00000
 This molecule is a prolate symmetric top.
 Rotational symmetry number  1.
 Rotational temperature (Kelvin)      1.08330
 Rotational constant (GHZ):          22.572280
    1 imaginary frequencies ignored.
 Zero-point vibrational energy      23229.0 (Joules/Mol)
                                    5.55186 (Kcal/Mol)
 Vibrational temperatures:   1738.48  1738.48  2110.65
          (Kelvin)

 Zero-point correction=                           0.008847 (Hartree/Particle)
 Thermal correction to Energy=                    0.011246
 Thermal correction to Enthalpy=                  0.012190
 Thermal correction to Gibbs Free Energy=        -0.011419
 Sum of electronic and zero-point Energies=           -100.928502
 Sum of electronic and thermal Energies=              -100.926103
 Sum of electronic and thermal Enthalpies=            -100.925159
 Sum of electronic and thermal Free Energies=         -100.948768

                     E (Thermal)             CV                S
                      KCal/Mol        Cal/Mol-Kelvin    Cal/Mol-Kelvin
 Total                    7.057              5.451             49.689
 Electronic               0.000              0.000              1.377
 Translational            0.889              2.981             35.068
 Rotational               0.592              1.987             13.150
 Vibrational              5.576              0.483              0.093

 Normal termination of Gaussian 16 at Fri Aug 22 16:08:47 2025.
