 Gaussian 16, Revision C.01,
 Gaussian 16:  ES64L-G16RevC.01  3-Jul-2019

 -----------------------------------------
 # sp b3lyp/6-311g** Force nosymm scf=(qc)
 -----------------------------------------

 -------------------
 Title Card Required
 -------------------
 Symbolic Z-matrix:
 Charge =  0 Multiplicity = 2

                          Input orientation:
 ---------------------------------------------------------------------
 Center     Atomic      Atomic             Coordinates (Angstroms)
 Number     Number       Type             X           Y           Z
 ---------------------------------------------------------------------
      1          1           0        0.000000    0.000000    0.000000
      2          1           0       -1.350000    0.000000    0.000000
      3          9           0        2.950000    0.000000    0.000000
 ---------------------------------------------------------------------

 SCF Done:  E(UB3LYP) =  -100.845625107     a.u. after  123 cycles

 Alpha  occ. eigenvalues --  -24.76749  -1.22568  -0.55755  -0.47016  -0.46905
 Alpha  occ. eigenvalues --   -0.34648
 Alpha virt. eigenvalues --   -0.06928   0.24105   0.32387   0.85707   0.90580
 Alpha virt. eigenvalues --    0.93212   1.03939   1.13192   1.16786   1.16793
 Alpha virt. eigenvalues --    1.47356   1.47363   1.95067   2.27701   2.52583

  Beta  occ. eigenvalues --  -24.73588  -1.13482  -0.43856  -0.43735  -0.34635
  Beta virt. eigenvalues --   -0.26379  -0.06913   0.24125   0.32463   0.92078
  Beta virt. eigenvalues --    0.94894   0.95165   1.07813   1.13195   1.16785
  Beta virt. eigenvalues --    1.16791   1.47354   1.47361   1.95075   2.27702

 Mulliken charges and spin densities:
               1          2
     1  H   -0.000810   0.000703
     2  H   -0.007369  -0.001818
     3  F    0.008179   1.001115
 Sum of Mulliken charges =   0.00000   1.00000

 Dipole moment (field-independent basis, Debye):
    X=              0.1196    Y=             -0.0000    Z=              0.0000  Tot=              0.1196
 Quadrupole moment (field-independent basis, Debye-Ang):
   XX=             -6.1417   YY=             -7.4524   ZZ=             -6.9770
   XY=             -0.0000   XZ=              0.0000   YZ=             -0.3605

  Exact polarizability:      19.907       0.000       2.174      -0.000      -0.193       2.429
 Approx polarizability:      33.152      -0.000       2.212       0.000      -0.242       2.531

 ******    1 imaginary frequencies (negative Signs) ******

                      1                      2                      3
                      A                      A                      A
 Frequencies --  -1087.4878                28.3874              1346.1672
 Red. masses --      1.0078                 1.1085                 1.0112
 Frc consts  --      0.7022                 0.0005                 1.0797
 IR Inten    --      1.4843                 0.7796                 0.0111

                      4
                      A
 Frequencies --   1350.3744
 Red. masses --      1.0112
 Frc consts  --      1.0864
 IR Inten    --      0.0060

 - Thermochemistry -
 -------------------
 Temperature   298.150 Kelvin.  Pressure   1.00000 Atm.
 Atom     1 has atomic number  1 and mass   1.00783

 Molecular mass:    21.01405 amu.
 Principal axes and moments of inertia in atomic units:
                           1         2         3
     Eigenvalues --     0.00000  88.79339  88.79339
           X            1.00000  -0.00000   0.00000
           Y            0.00000   1.00000   0.00000
           Z            0.00000   0.00000   1.00000
 This molecule is a prolate symmetric top.
 Rotational symmetry number  1.
 Rotational temperature (Kelvin)      0.97545
 Rotational constant (GHZ):          20.325175
    1 imaginary frequencies ignored.
 Zero-point vibrational energy      16298.7 (Joules/Mol)
                                    3.89548 (Kcal/Mol)
 Warning -- explicit consideration of   1 degrees of freedom as
           vibrations may cause significant error
 Vibrational temperatures:     40.84  1936.83  1942.89
          (Kelvin)

 Zero-point correction=                           0.006208 (Hartree/Particle)
 Thermal correction to Energy=                    0.009468
 Thermal correction to Enthalpy=                  0.010412
 Thermal correction to Gibbs Free Energy=        -0.016095
 Sum of electronic and zero-point Energies=           -100.839417
 Sum of electronic and thermal Energies=              -100.836157
 Sum of electronic and thermal Enthalpies=            -100.835213
 Sum of electronic and thermal Free Energies=         -100.861720

                     E (Thermal)             CV                S
                      KCal/Mol        Cal/Mol-Kelvin    Cal/Mol-Kelvin
 Total                    5.941              7.204             55.788
 Electronic               0.000              0.000              1.377
 Translational            0.889              2.981             35.068
 Rotational               0.592              1.987             13.359
 Vibrational              4.460              2.236              5.984
 Vibration     1          0.593              1.984              5.939

 Normal termination of Gaussian 16 at Fri Aug 22 19:13:53 2025.
