 Gaussian 16, Revision C.01,
 Gaussian 16:  ES64L-G16RevC.01  3-Jul-2019

 -----------------------------------------
 # sp b3lyp/6-311g** Force nosymm scf=(qc)
 -----------------------------------------

 -------------------
 Title Card Required
 -------------------
 Symbolic Z-matrix:
 Charge =  0 Multiplicity = 2

                          Input orientation:
 ---------------------------------------------------------------------
 Center     Atomic      Atomic             Coordinates (Angstroms)
 Number     Number       Type             X           Y           Z
 ---------------------------------------------------------------------
      1          1           0        0.000000    0.000000    0.000000
      2          1           0       -4.000000    0.000000    0.000000
      3          9           0        2.200000    0.000000    0.000000
 ---------------------------------------------------------------------

 SCF Done:  E(UB3LYP) =  -100.776396321     a.u. after   15 cycles

 Alpha  occ. eigenvalues --  -24.69769  -1.16077  -0.48826  -0.41063  -0.41063
 Alpha  occ. eigenvalues --   -0.32965
 Alpha virt. eigenvalues --   -0.12285   0.23002   0.33143   0.88283   0.94493
 Alpha virt. eigenvalues --    0.94493   1.05884   1.24532   1.24536   1.24536
 Alpha virt. eigenvalues --    1.37554   1.37554   1.51750   2.13793   2.32510

  Beta  occ. eigenvalues --  -24.67144  -1.08671  -0.38461  -0.38461  -0.36775
  Beta virt. eigenvalues --   -0.21954  -0.06133   0.23087   0.38079   0.91235
  Beta virt. eigenvalues --    0.95576   0.95576   1.08123   1.21500   1.21500
  Beta virt. eigenvalues --    1.41984   1.46535   1.46672   1.46672   2.11284

 Mulliken charges and spin densities:
               1          2
     1  H    0.144054  -0.826149
     2  H    0.000356   0.999373
     3  F   -0.144410   0.826776
 Sum of Mulliken charges =  -0.00000   1.00000

 Dipole moment (field-independent basis, Debye):
    X=             -1.5977    Y=             -0.0000    Z=             -0.0000  Tot=              1.5977
 Quadrupole moment (field-independent basis, Debye-Ang):
   XX=             -9.8615   YY=             -7.5239   ZZ=             -7.5239
   XY=             -0.0000   XZ=             -0.0000   YZ=              0.0000

  Exact polarizability:      26.982      -0.000       2.041      -0.000      -0.000       2.041
 Approx polarizability:      37.754      -0.000       1.929      -0.000       0.000       1.929

 ******    2 imaginary frequencies (negative Signs) ******

                      1                      2                      3
                      A                      A                      A
 Frequencies --   -861.1520               -67.5359               361.8735
 Red. masses --      1.0576                 1.0539                 1.0265
 Frc consts  --      0.4621                 0.0028                 0.0792
 IR Inten    --    106.2874                 0.0277                20.1645

                      4
                      A
 Frequencies --    361.8735
 Red. masses --      1.0265
 Frc consts  --      0.0792
 IR Inten    --     20.1645

 - Thermochemistry -
 -------------------
 Temperature   298.150 Kelvin.  Pressure   1.00000 Atm.
 Atom     1 has atomic number  1 and mass   1.00783

 Molecular mass:    21.01405 amu.
 Principal axes and moments of inertia in atomic units:
                           1         2         3
     Eigenvalues --     0.00000 143.58595 143.58595
           X            1.00000  -0.00000   0.00000
           Y            0.00000   1.00000   0.00000
           Z            0.00000   0.00000   1.00000
 This molecule is a prolate symmetric top.
 Rotational symmetry number  1.
 Rotational temperature (Kelvin)      0.60322
 Rotational constant (GHZ):          12.569066
    2 imaginary frequencies ignored.
 Zero-point vibrational energy       4329.0 (Joules/Mol)
                                    1.03465 (Kcal/Mol)
 Warning -- explicit consideration of   2 degrees of freedom as
           vibrations may cause significant error
 Vibrational temperatures:    520.66   520.66
          (Kelvin)

 Zero-point correction=                           0.001649 (Hartree/Particle)
 Thermal correction to Energy=                    0.004706
 Thermal correction to Enthalpy=                  0.005650
 Thermal correction to Gibbs Free Energy=        -0.019526
 Sum of electronic and zero-point Energies=           -100.774748
 Sum of electronic and thermal Energies=              -100.771690
 Sum of electronic and thermal Enthalpies=            -100.770746
 Sum of electronic and thermal Free Energies=         -100.795922

                     E (Thermal)             CV                S
                      KCal/Mol        Cal/Mol-Kelvin    Cal/Mol-Kelvin
 Total                    2.953              8.070             52.987
 Electronic               0.000              0.000              1.377
 Translational            0.889              2.981             35.068
 Rotational               0.592              1.987             14.314
 Vibrational              1.472              3.102              2.228
 Vibration     1          0.736              1.551              1.114
 Vibration     2          0.736              1.551              1.114

 Normal termination of Gaussian 16 at Fri Aug 22 17:13:31 2025.
