 Gaussian 16, Revision C.01,
 Gaussian 16:  ES64L-G16RevC.01  3-Jul-2019

 -----------------------------------------
 # sp b3lyp/6-311g** Force nosymm scf=(qc)
 -----------------------------------------

 -------------------
 Title Card Required
 -------------------
 Symbolic Z-matrix:
 Charge =  0 Multiplicity = 2

                          Input orientation:
 ---------------------------------------------------------------------
 Center     Atomic      Atomic             Coordinates (Angstroms)
 Number     Number       Type             X           Y           Z
 ---------------------------------------------------------------------
      1          1           0        0.000000    0.000000    0.000000
      2          1           0       -0.650000    0.000000    0.000000
      3          9           0        3.200000    0.000000    0.000000
 ---------------------------------------------------------------------

 SCF Done:  E(UB3LYP) =  -100.927012158     a.u. after   53 cycles

 Alpha  occ. eigenvalues --  -24.76491  -1.22312  -0.55509  -0.46776  -0.46660
 Alpha  occ. eigenvalues --   -0.45219
 Alpha virt. eigenvalues --    0.07784   0.19262   0.50094   0.85936   0.90809
 Alpha virt. eigenvalues --    0.93776   1.04343   1.09575   1.09580   1.59755
 Alpha virt. eigenvalues --    1.85953   1.89378   1.89384   2.37902   3.64732

  Beta  occ. eigenvalues --  -24.73330  -1.13228  -0.45345  -0.43492  -0.43478
  Beta virt. eigenvalues --   -0.26137   0.07822   0.19285   0.50193   0.92308
  Beta virt. eigenvalues --    0.95395   0.95500   1.08107   1.09574   1.09580
  Beta virt. eigenvalues --    1.59769   1.85992   1.89377   1.89384   2.37906

 Mulliken charges and spin densities:
               1          2
     1  H   -0.005195  -0.001042
     2  H   -0.002285   0.000097
     3  F    0.007480   1.000945
 Sum of Mulliken charges =   0.00000   1.00000

 Dipole moment (field-independent basis, Debye):
    X=              0.0740    Y=             -0.0000    Z=             -0.0000  Tot=              0.0740
 Quadrupole moment (field-independent basis, Debye-Ang):
   XX=             -6.0754   YY=             -6.7878   ZZ=             -5.9813
   XY=             -0.0000   XZ=              0.0000   YZ=             -0.1547

  Exact polarizability:       7.263       0.000       1.918       0.000      -0.083       2.349
 Approx polarizability:       7.979      -0.000       2.003       0.000      -0.104       2.544

 ******    2 imaginary frequencies (negative Signs) ******

                      1                      2                      3
                      A                      A                      A
 Frequencies --  -1949.1132             -1948.3086                54.0782
 Red. masses --      1.0087                 1.0087                 1.1085
 Frc consts  --      2.2578                 2.2559                 0.0019
 IR Inten    --      0.0150                 0.0133                 0.1720

                      4
                      A
 Frequencies --   5976.0550
 Red. masses --      1.0078
 Frc consts  --     21.2063
 IR Inten    --      0.1542

 - Thermochemistry -
 -------------------
 Temperature   298.150 Kelvin.  Pressure   1.00000 Atm.
 Atom     1 has atomic number  1 and mass   1.00783

 Molecular mass:    21.01405 amu.
 Principal axes and moments of inertia in atomic units:
                           1         2         3
     Eigenvalues --     0.00000  81.62116  81.62116
           X            1.00000  -0.00000   0.00000
           Y            0.00000   1.00000   0.00000
           Z            0.00000   0.00000   1.00000
 This molecule is a prolate symmetric top.
 Rotational symmetry number  1.
 Rotational temperature (Kelvin)      1.06117
 Rotational constant (GHZ):          22.111194
    2 imaginary frequencies ignored.
 Zero-point vibrational energy      36068.2 (Joules/Mol)
                                    8.62051 (Kcal/Mol)
 Warning -- explicit consideration of   1 degrees of freedom as
           vibrations may cause significant error
 Vibrational temperatures:     77.81  8598.21
          (Kelvin)

 Zero-point correction=                           0.013738 (Hartree/Particle)
 Thermal correction to Energy=                    0.016924
 Thermal correction to Enthalpy=                  0.017869
 Thermal correction to Gibbs Free Energy=        -0.007931
 Sum of electronic and zero-point Energies=           -100.913275
 Sum of electronic and thermal Energies=              -100.910088
 Sum of electronic and thermal Enthalpies=            -100.909144
 Sum of electronic and thermal Free Energies=         -100.934943

                     E (Thermal)             CV                S
                      KCal/Mol        Cal/Mol-Kelvin    Cal/Mol-Kelvin
 Total                   10.620              6.944             54.299
 Electronic               0.000              0.000              1.377
 Translational            0.889              2.981             35.068
 Rotational               0.592              1.987             13.192
 Vibrational              9.139              1.976              4.662
 Vibration     1          0.596              1.976              4.662

 Normal termination of Gaussian 16 at Fri Aug 22 20:13:49 2025.
