 Gaussian 16, Revision C.01,
 Gaussian 16:  ES64L-G16RevC.01  3-Jul-2019

 -----------------------------------------
 # sp b3lyp/6-311g** Force nosymm scf=(qc)
 -----------------------------------------

 -------------------
 Title Card Required
 -------------------
 Symbolic Z-matrix:
 Charge =  0 Multiplicity = 2

                          Input orientation:
 ---------------------------------------------------------------------
 Center     Atomic      Atomic             Coordinates (Angstroms)
 Number     Number       Type             X           Y           Z
 ---------------------------------------------------------------------
      1          1           0        0.000000    0.000000    0.000000
      2          1           0       -0.850000    0.000000    0.000000
      3          9           0        1.200000    0.000000    0.000000
 ---------------------------------------------------------------------

 SCF Done:  E(UB3LYP) =  -100.946913709     a.u. after    7 cycles

 Alpha  occ. eigenvalues --  -24.67169  -1.16431  -0.57898  -0.40299  -0.40299
 Alpha  occ. eigenvalues --   -0.38384
 Alpha virt. eigenvalues --    0.10288   0.19037   0.42984   0.88400   0.88400
 Alpha virt. eigenvalues --    0.97259   1.08336   1.08336   1.41122   1.64357
 Alpha virt. eigenvalues --    1.71769   1.71769   2.14824   2.32388   2.89449

  Beta  occ. eigenvalues --  -24.65336  -1.11676  -0.49919  -0.38589  -0.38589
  Beta virt. eigenvalues --   -0.20995   0.12314   0.20509   0.47344   0.89847
  Beta virt. eigenvalues --    0.89847   1.01235   1.12376   1.12376   1.44596
  Beta virt. eigenvalues --    1.69702   1.74833   1.74833   2.15063   2.40157

 Mulliken charges and spin densities:
               1          2
     1  H    0.247532  -0.046130
     2  H    0.013094   0.526312
     3  F   -0.260626   0.519818
 Sum of Mulliken charges =   0.00000   1.00000

 Dipole moment (field-independent basis, Debye):
    X=             -1.7824    Y=              0.0000    Z=              0.0000  Tot=              1.7824
 Quadrupole moment (field-independent basis, Debye-Ang):
   XX=             -7.4580   YY=             -6.7251   ZZ=             -6.7251
   XY=              0.0000   XZ=              0.0000   YZ=              0.0000

  Exact polarizability:      18.882       0.000       2.495      -0.000      -0.000       2.495
 Approx polarizability:      25.010       0.000       2.518       0.000      -0.000       2.518

 ******    3 imaginary frequencies (negative Signs) ******

                      1                      2                      3
                      A                      A                      A
 Frequencies --  -1001.7125              -285.2203              -285.2203
 Red. masses --      1.0834                 1.0143                 1.0143
 Frc consts  --      0.6405                 0.0486                 0.0486
 IR Inten    --    170.2665                15.9355                15.9355

                      4
                      A
 Frequencies --   2233.4951
 Red. masses --      1.0295
 Frc consts  --      3.0258
 IR Inten    --    330.4011

 - Thermochemistry -
 -------------------
 Temperature   298.150 Kelvin.  Pressure   1.00000 Atm.
 Atom     1 has atomic number  1 and mass   1.00783

 Molecular mass:    21.01405 amu.
 Principal axes and moments of inertia in atomic units:
                           1         2         3
     Eigenvalues --     0.00000  18.48425  18.48425
           X            1.00000  -0.00000   0.00000
           Y            0.00000   1.00000   0.00000
           Z            0.00000   0.00000   1.00000
 This molecule is a prolate symmetric top.
 Rotational symmetry number  1.
 Rotational temperature (Kelvin)      4.68582
 Rotational constant (GHZ):          97.636727
    3 imaginary frequencies ignored.
 Zero-point vibrational energy      13359.3 (Joules/Mol)
                                    3.19294 (Kcal/Mol)
 Vibrational temperatures:   3213.50
          (Kelvin)

 Zero-point correction=                           0.005088 (Hartree/Particle)
 Thermal correction to Energy=                    0.007449
 Thermal correction to Enthalpy=                  0.008393
 Thermal correction to Gibbs Free Energy=        -0.013789
 Sum of electronic and zero-point Energies=           -100.941825
 Sum of electronic and thermal Energies=              -100.939465
 Sum of electronic and thermal Enthalpies=            -100.938521
 Sum of electronic and thermal Free Energies=         -100.960703

                     E (Thermal)             CV                S
                      KCal/Mol        Cal/Mol-Kelvin    Cal/Mol-Kelvin
 Total                    4.674              4.973             46.686
 Electronic               0.000              0.000              1.377
 Translational            0.889              2.981             35.068
 Rotational               0.592              1.987             10.240
 Vibrational              3.193              0.005              0.000

 Normal termination of Gaussian 16 at Fri Aug 22 16:09:20 2025.
