 Gaussian 16, Revision C.01,
 Gaussian 16:  ES64L-G16RevC.01  3-Jul-2019

 -----------------------------------------
 # sp b3lyp/6-311g** Force nosymm scf=(qc)
 -----------------------------------------

 -------------------
 Title Card Required
 -------------------
 Symbolic Z-matrix:
 Charge =  0 Multiplicity = 2

                          Input orientation:
 ---------------------------------------------------------------------
 Center     Atomic      Atomic             Coordinates (Angstroms)
 Number     Number       Type             X           Y           Z
 ---------------------------------------------------------------------
      1          1           0        0.000000    0.000000    0.000000
      2          1           0       -2.700000    0.000000    0.000000
      3          9           0        2.550000    0.000000    0.000000
 ---------------------------------------------------------------------

 SCF Done:  E(UB3LYP) =  -100.768553791     a.u. after   21 cycles

 Alpha  occ. eigenvalues --  -24.72040  -1.18233  -0.51143  -0.42957  -0.42957
 Alpha  occ. eigenvalues --   -0.33431
 Alpha virt. eigenvalues --   -0.11273   0.24637   0.33712   0.90096   0.93462
 Alpha virt. eigenvalues --    0.93462   1.06417   1.24159   1.24159   1.26122
 Alpha virt. eigenvalues --    1.39222   1.39222   1.42888   2.15180   2.34739

  Beta  occ. eigenvalues --  -24.69172  -1.10062  -0.40096  -0.40096  -0.35145
  Beta virt. eigenvalues --   -0.23554  -0.08790   0.25375   0.35534   0.94846
  Beta virt. eigenvalues --    0.94846   0.97263   1.09289   1.22362   1.22362
  Beta virt. eigenvalues --    1.28786   1.43002   1.43002   1.43795   2.14659

 Mulliken charges and spin densities:
               1          2
     1  H    0.076037  -0.889897
     2  H    0.006378   0.983301
     3  F   -0.082415   0.906596
 Sum of Mulliken charges =  -0.00000   1.00000

 Dipole moment (field-independent basis, Debye):
    X=             -1.1532    Y=             -0.0000    Z=             -0.0000  Tot=              1.1532
 Quadrupole moment (field-independent basis, Debye-Ang):
   XX=             -8.9064   YY=             -7.6032   ZZ=             -7.6032
   XY=             -0.0000   XZ=             -0.0000   YZ=              0.0000

  Exact polarizability:      39.229      -0.000       2.018      -0.000      -0.000       2.018
 Approx polarizability:      43.637      -0.000       1.918      -0.000       0.000       1.918

 ******    2 imaginary frequencies (negative Signs) ******

                      1                      2                      3
                      A                      A                      A
 Frequencies --   -696.0090              -286.1914               273.5566
 Red. masses --      1.0290                 1.0840                 1.0187
 Frc consts  --      0.2937                 0.0523                 0.0449
 IR Inten    --     61.4894                12.7521                 5.0072

                      4
                      A
 Frequencies --    273.5566
 Red. masses --      1.0187
 Frc consts  --      0.0449
 IR Inten    --      5.0072

 - Thermochemistry -
 -------------------
 Temperature   298.150 Kelvin.  Pressure   1.00000 Atm.
 Atom     1 has atomic number  1 and mass   1.00783

 Molecular mass:    21.01405 amu.
 Principal axes and moments of inertia in atomic units:
                           1         2         3
     Eigenvalues --     0.00000 112.09882 112.09882
           X            1.00000  -0.00000   0.00000
           Y            0.00000   1.00000   0.00000
           Z            0.00000   0.00000   1.00000
 This molecule is a prolate symmetric top.
 Rotational symmetry number  1.
 Rotational temperature (Kelvin)      0.77266
 Rotational constant (GHZ):          16.099556
    2 imaginary frequencies ignored.
 Zero-point vibrational energy       3272.5 (Joules/Mol)
                                    0.78214 (Kcal/Mol)
 Warning -- explicit consideration of   2 degrees of freedom as
           vibrations may cause significant error
 Vibrational temperatures:    393.59   393.59
          (Kelvin)

 Zero-point correction=                           0.001246 (Hartree/Particle)
 Thermal correction to Energy=                    0.004515
 Thermal correction to Enthalpy=                  0.005460
 Thermal correction to Gibbs Free Energy=        -0.019919
 Sum of electronic and zero-point Energies=           -100.767307
 Sum of electronic and thermal Energies=              -100.764038
 Sum of electronic and thermal Enthalpies=            -100.763094
 Sum of electronic and thermal Free Energies=         -100.788473

                     E (Thermal)             CV                S
                      KCal/Mol        Cal/Mol-Kelvin    Cal/Mol-Kelvin
 Total                    2.833              8.412             53.415
 Electronic               0.000              0.000              1.377
 Translational            0.889              2.981             35.068
 Rotational               0.592              1.987             13.822
 Vibrational              1.352              3.444              3.147
 Vibration     1          0.676              1.722              1.574
 Vibration     2          0.676              1.722              1.574

 Normal termination of Gaussian 16 at Fri Aug 22 17:54:30 2025.
