 Gaussian 16, Revision C.01,
 Gaussian 16:  ES64L-G16RevC.01  3-Jul-2019

 -----------------------------------------
 # sp b3lyp/6-311g** Force nosymm scf=(qc)
 -----------------------------------------

 -------------------
 Title Card Required
 -------------------
 Symbolic Z-matrix:
 Charge =  0 Multiplicity = 2

                          Input orientation:
 ---------------------------------------------------------------------
 Center     Atomic      Atomic             Coordinates (Angstroms)
 Number     Number       Type             X           Y           Z
 ---------------------------------------------------------------------
      1          1           0        0.000000    0.000000    0.000000
      2          1           0       -3.050000    0.000000    0.000000
      3          9           0        0.700000    0.000000    0.000000
 ---------------------------------------------------------------------

 SCF Done:  E(UB3LYP) =  -100.874851846     a.u. after    6 cycles

 Alpha  occ. eigenvalues --  -24.63186  -1.28215  -0.58581  -0.41749  -0.41749
 Alpha  occ. eigenvalues --   -0.33795
 Alpha virt. eigenvalues --    0.06740   0.25422   0.52409   0.93496   0.93496
 Alpha virt. eigenvalues --    0.95784   1.22577   1.23730   1.23730   1.34412
 Alpha virt. eigenvalues --    1.44077   1.44077   1.98154   2.14923   2.86563

  Beta  occ. eigenvalues --  -24.63185  -1.28209  -0.58576  -0.41748  -0.41748
  Beta virt. eigenvalues --   -0.06041   0.07707   0.39304   0.52573   0.93495
  Beta virt. eigenvalues --    0.93495   0.95779   1.31581   1.44078   1.44078
  Beta virt. eigenvalues --    1.50911   1.50911   1.51649   1.98145   2.44573

 Mulliken charges and spin densities:
               1          2
     1  H    0.261020   0.001231
     2  H    0.001757   0.997630
     3  F   -0.262777   0.001138
 Sum of Mulliken charges =   0.00000   1.00000

 Dipole moment (field-independent basis, Debye):
    X=             -1.6064    Y=             -0.0000    Z=              0.0000  Tot=              1.6064
 Quadrupole moment (field-independent basis, Debye-Ang):
   XX=             -7.2218   YY=             -6.6623   ZZ=             -6.6623
   XY=             -0.0000   XZ=              0.0000   YZ=              0.0000

  Exact polarizability:       4.503      -0.000       2.456       0.000      -0.000       2.456
 Approx polarizability:       4.785       0.000       2.438       0.000      -0.000       2.438

 ******    3 imaginary frequencies (negative Signs) ******

                      1                      2                      3
                      A                      A                      A
 Frequencies --  -3549.5390             -3549.5390               -32.7052
 Red. masses --      1.0401                 1.0401                 1.0532
 Frc consts  --      7.7211                 7.7211                 0.0007
 IR Inten    --    210.0704               210.0704                 0.0893

                      4
                      A
 Frequencies --   9073.1552
 Red. masses --      1.0583
 Frc consts  --     51.3312
 IR Inten    --    110.3997

 - Thermochemistry -
 -------------------
 Temperature   298.150 Kelvin.  Pressure   1.00000 Atm.
 Atom     1 has atomic number  1 and mass   1.00783

 Molecular mass:    21.01405 amu.
 Principal axes and moments of inertia in atomic units:
                           1         2         3
     Eigenvalues --     0.00000  48.95652  48.95652
           X            1.00000  -0.00000   0.00000
           Y            0.00000   1.00000   0.00000
           Z            0.00000   0.00000   1.00000
 This molecule is a prolate symmetric top.
 Rotational symmetry number  1.
 Rotational temperature (Kelvin)      1.76920
 Rotational constant (GHZ):          36.864162
    3 imaginary frequencies ignored.
 Zero-point vibrational energy      54269.5 (Joules/Mol)
                                   12.97073 (Kcal/Mol)
 Vibrational temperatures:  13054.25
          (Kelvin)

 Zero-point correction=                           0.020670 (Hartree/Particle)
 Thermal correction to Energy=                    0.023031
 Thermal correction to Enthalpy=                  0.023975
 Thermal correction to Gibbs Free Energy=         0.000873
 Sum of electronic and zero-point Energies=           -100.854182
 Sum of electronic and thermal Energies=              -100.851821
 Sum of electronic and thermal Enthalpies=            -100.850877
 Sum of electronic and thermal Free Energies=         -100.873979

                     E (Thermal)             CV                S
                      KCal/Mol        Cal/Mol-Kelvin    Cal/Mol-Kelvin
 Total                   14.452              4.968             48.621
 Electronic               0.000              0.000              1.377
 Translational            0.889              2.981             35.068
 Rotational               0.592              1.987             12.176
 Vibrational             12.971              0.000              0.000

 Normal termination of Gaussian 16 at Fri Aug 22 15:47:06 2025.
