 Gaussian 16, Revision C.01,
 Gaussian 16:  ES64L-G16RevC.01  3-Jul-2019

 -----------------------------------------
 # sp b3lyp/6-311g** Force nosymm scf=(qc)
 -----------------------------------------

 -------------------
 Title Card Required
 -------------------
 Symbolic Z-matrix:
 Charge =  0 Multiplicity = 2

                          Input orientation:
 ---------------------------------------------------------------------
 Center     Atomic      Atomic             Coordinates (Angstroms)
 Number     Number       Type             X           Y           Z
 ---------------------------------------------------------------------
      1          1           0        0.000000    0.000000    0.000000
      2          1           0       -1.600000    0.000000    0.000000
      3          9           0        1.400000    0.000000    0.000000
 ---------------------------------------------------------------------

 SCF Done:  E(UB3LYP) =  -100.889671815     a.u. after   11 cycles

 Alpha  occ. eigenvalues --  -24.63834  -1.10685  -0.46884  -0.38003  -0.36431
 Alpha  occ. eigenvalues --   -0.36431
 Alpha virt. eigenvalues --   -0.05991   0.21215   0.28396   0.93699   0.93699
 Alpha virt. eigenvalues --    0.99232   1.03322   1.16490   1.16490   1.38258
 Alpha virt. eigenvalues --    1.38258   1.49099   1.79024   2.16477   2.38057

  Beta  occ. eigenvalues --  -24.62936  -1.08329  -0.42870  -0.35585  -0.35585
  Beta virt. eigenvalues --   -0.20226  -0.02306   0.25031   0.30571   0.93693
  Beta virt. eigenvalues --    0.93693   1.04480   1.05953   1.25632   1.25632
  Beta virt. eigenvalues --    1.40821   1.40821   1.54272   1.83397   2.22591

 Mulliken charges and spin densities:
               1          2
     1  H    0.286553  -0.131056
     2  H    0.064952   0.854855
     3  F   -0.351504   0.276201
 Sum of Mulliken charges =   0.00000   1.00000

 Dipole moment (field-independent basis, Debye):
    X=             -2.9632    Y=              0.0000    Z=              0.0000  Tot=              2.9632
 Quadrupole moment (field-independent basis, Debye-Ang):
   XX=             -8.2871   YY=             -7.1709   ZZ=             -7.1709
   XY=              0.0000   XZ=              0.0000   YZ=              0.0000

  Exact polarizability:      28.522       0.000       2.328       0.000      -0.000       2.328
 Approx polarizability:      39.256       0.000       2.277       0.000      -0.000       2.277

 ******    2 imaginary frequencies (negative Signs) ******

                      1                      2                      3
                      A                      A                      A
 Frequencies --  -2270.7629              -306.4929              1070.2151
 Red. masses --      1.0251                 1.0883                 1.0196
 Frc consts  --      3.1143                 0.0602                 0.6881
 IR Inten    --      2.1836                 9.5988                49.6116

                      4
                      A
 Frequencies --   1070.2151
 Red. masses --      1.0196
 Frc consts  --      0.6881
 IR Inten    --     49.6116

 - Thermochemistry -
 -------------------
 Temperature   298.150 Kelvin.  Pressure   1.00000 Atm.
 Atom     1 has atomic number  1 and mass   1.00783

 Molecular mass:    21.01405 amu.
 Principal axes and moments of inertia in atomic units:
                           1         2         3
     Eigenvalues --     0.00000  36.10346  36.10346
           X            1.00000  -0.00000   0.00000
           Y            0.00000   1.00000   0.00000
           Z            0.00000   0.00000   1.00000
 This molecule is a prolate symmetric top.
 Rotational symmetry number  1.
 Rotational temperature (Kelvin)      2.39905
 Rotational constant (GHZ):          49.988035
    2 imaginary frequencies ignored.
 Zero-point vibrational energy      12802.6 (Joules/Mol)
                                    3.05990 (Kcal/Mol)
 Vibrational temperatures:   1539.80  1539.80
          (Kelvin)

 Zero-point correction=                           0.004876 (Hartree/Particle)
 Thermal correction to Energy=                    0.007293
 Thermal correction to Enthalpy=                  0.008237
 Thermal correction to Gibbs Free Energy=        -0.014644
 Sum of electronic and zero-point Energies=           -100.884796
 Sum of electronic and thermal Energies=              -100.882379
 Sum of electronic and thermal Enthalpies=            -100.881435
 Sum of electronic and thermal Free Energies=         -100.904316

                     E (Thermal)             CV                S
                      KCal/Mol        Cal/Mol-Kelvin    Cal/Mol-Kelvin
 Total                    4.576              5.581             48.157
 Electronic               0.000              0.000              1.377
 Translational            0.889              2.981             35.068
 Rotational               0.592              1.987             11.571
 Vibrational              3.095              0.613              0.141

 Normal termination of Gaussian 16 at Fri Aug 22 16:19:52 2025.
