 Gaussian 16, Revision C.01,
 Gaussian 16:  ES64L-G16RevC.01  3-Jul-2019

 -----------------------------------------
 # sp b3lyp/6-311g** Force nosymm scf=(qc)
 -----------------------------------------

 -------------------
 Title Card Required
 -------------------
 Symbolic Z-matrix:
 Charge =  0 Multiplicity = 2

                          Input orientation:
 ---------------------------------------------------------------------
 Center     Atomic      Atomic             Coordinates (Angstroms)
 Number     Number       Type             X           Y           Z
 ---------------------------------------------------------------------
      1          1           0        0.000000    0.000000    0.000000
      2          1           0       -2.400000    0.000000    0.000000
      3          9           0        3.700000    0.000000    0.000000
 ---------------------------------------------------------------------

 SCF Done:  E(UB3LYP) =  -100.763928064     a.u. after   26 cycles

 Alpha  occ. eigenvalues --  -24.75722  -1.21660  -0.54846  -0.46051  -0.46051
 Alpha  occ. eigenvalues --   -0.32655
 Alpha virt. eigenvalues --   -0.09674   0.25841   0.34235   0.87046   0.91266
 Alpha virt. eigenvalues --    0.91266   1.01361   1.25047   1.25047   1.26272
 Alpha virt. eigenvalues --    1.40917   1.40917   1.43410   2.15453   2.36118

  Beta  occ. eigenvalues --  -24.72588  -1.12652  -0.42910  -0.42910  -0.32836
  Beta virt. eigenvalues --   -0.25670  -0.09371   0.25661   0.34684   0.92761
  Beta virt. eigenvalues --    0.92761   0.96328   1.05452   1.24836   1.24836
  Beta virt. eigenvalues --    1.26037   1.41366   1.41366   1.43840   2.15766

 Mulliken charges and spin densities:
               1          2
     1  H    0.003750  -0.952839
     2  H    0.001925   0.959289
     3  F   -0.005676   0.993550
 Sum of Mulliken charges =   0.00000   1.00000

 Dipole moment (field-independent basis, Debye):
    X=             -0.1298    Y=             -0.0000    Z=             -0.0000  Tot=              0.1298
 Quadrupole moment (field-independent basis, Debye-Ang):
   XX=             -6.8182   YY=             -7.6762   ZZ=             -7.6762
   XY=             -0.0000   XZ=             -0.0000   YZ=             -0.0000

  Exact polarizability:      28.732      -0.000       2.016       0.000       0.000       2.016
 Approx polarizability:      21.579      -0.000       1.930      -0.000       0.000       1.930

 ******    2 imaginary frequencies (negative Signs) ******

                      1                      2                      3
                      A                      A                      A
 Frequencies --   -765.8719              -108.2999               286.7084
 Red. masses --      1.0079                 1.1085                 1.0136
 Frc consts  --      0.3483                 0.0077                 0.0491
 IR Inten    --      2.5683                 2.8206                 0.0085

                      4
                      A
 Frequencies --    286.7084
 Red. masses --      1.0136
 Frc consts  --      0.0491
 IR Inten    --      0.0085

 - Thermochemistry -
 -------------------
 Temperature   298.150 Kelvin.  Pressure   1.00000 Atm.
 Atom     1 has atomic number  1 and mass   1.00783

 Molecular mass:    21.01405 amu.
 Principal axes and moments of inertia in atomic units:
                           1         2         3
     Eigenvalues --     0.00000 166.61237 166.61237
           X            1.00000  -0.00000   0.00000
           Y            0.00000   1.00000   0.00000
           Z            0.00000   0.00000   1.00000
 This molecule is a prolate symmetric top.
 Rotational symmetry number  1.
 Rotational temperature (Kelvin)      0.51985
 Rotational constant (GHZ):          10.831976
    2 imaginary frequencies ignored.
 Zero-point vibrational energy       3429.8 (Joules/Mol)
                                    0.81974 (Kcal/Mol)
 Warning -- explicit consideration of   2 degrees of freedom as
           vibrations may cause significant error
 Vibrational temperatures:    412.51   412.51
          (Kelvin)

 Zero-point correction=                           0.001306 (Hartree/Particle)
 Thermal correction to Energy=                    0.004541
 Thermal correction to Enthalpy=                  0.005485
 Thermal correction to Gibbs Free Energy=        -0.020192
 Sum of electronic and zero-point Energies=           -100.762622
 Sum of electronic and thermal Energies=              -100.759387
 Sum of electronic and thermal Enthalpies=            -100.758443
 Sum of electronic and thermal Free Energies=         -100.784120

                     E (Thermal)             CV                S
                      KCal/Mol        Cal/Mol-Kelvin    Cal/Mol-Kelvin
 Total                    2.849              8.365             54.042
 Electronic               0.000              0.000              1.377
 Translational            0.889              2.981             35.068
 Rotational               0.592              1.987             14.610
 Vibrational              1.368              3.397              2.987
 Vibration     1          0.684              1.698              1.493
 Vibration     2          0.684              1.698              1.493

 Normal termination of Gaussian 16 at Sat Aug 23 00:03:10 2025.
