 Gaussian 16, Revision C.01,
 Gaussian 16:  ES64L-G16RevC.01  3-Jul-2019

 -----------------------------------------
 # sp b3lyp/6-311g** Force nosymm scf=(qc)
 -----------------------------------------

 -------------------
 Title Card Required
 -------------------
 Symbolic Z-matrix:
 Charge =  0 Multiplicity = 2

                          Input orientation:
 ---------------------------------------------------------------------
 Center     Atomic      Atomic             Coordinates (Angstroms)
 Number     Number       Type             X           Y           Z
 ---------------------------------------------------------------------
      1          1           0        0.000000    0.000000    0.000000
      2          1           0       -3.000000    0.000000    0.000000
      3          9           0        3.700000    0.000000    0.000000
 ---------------------------------------------------------------------

 SCF Done:  E(UB3LYP) =  -100.759710212     a.u. after   33 cycles

 Alpha  occ. eigenvalues --  -24.75672  -1.21614  -0.54796  -0.46008  -0.46008
 Alpha  occ. eigenvalues --   -0.32388
 Alpha virt. eigenvalues --   -0.07845   0.25015   0.36240   0.87064   0.91301
 Alpha virt. eigenvalues --    0.91301   1.01396   1.25148   1.25148   1.25857
 Alpha virt. eigenvalues --    1.44142   1.44171   1.44171   2.15773   2.39541

  Beta  occ. eigenvalues --  -24.72540  -1.12611  -0.42868  -0.42868  -0.32679
  Beta virt. eigenvalues --   -0.25632  -0.07483   0.24814   0.36789   0.92796
  Beta virt. eigenvalues --    0.92796   0.96329   1.05475   1.24818   1.24818
  Beta virt. eigenvalues --    1.25499   1.44704   1.44734   1.44734   2.15932

 Mulliken charges and spin densities:
               1          2
     1  H    0.005843  -0.985404
     2  H    0.000443   0.992395
     3  F   -0.006286   0.993009
 Sum of Mulliken charges =  -0.00000   1.00000

 Dipole moment (field-independent basis, Debye):
    X=             -0.1262    Y=              0.0000    Z=             -0.0000  Tot=              0.1262
 Quadrupole moment (field-independent basis, Debye-Ang):
   XX=             -7.0662   YY=             -7.6358   ZZ=             -7.6358
   XY=             -0.0000   XZ=              0.0000   YZ=              0.0000

  Exact polarizability:      20.557       0.000       2.025       0.000       0.000       2.025
 Approx polarizability:      15.269      -0.000       1.933       0.000      -0.000       1.933

 ******    2 imaginary frequencies (negative Signs) ******

                      1                      2                      3
                      A                      A                      A
 Frequencies --   -346.2196              -105.8190               122.1963
 Red. masses --      1.0090                 1.1071                 1.0156
 Frc consts  --      0.0713                 0.0073                 0.0089
 IR Inten    --      3.0514                 2.2092                 0.0314

                      4
                      A
 Frequencies --    122.1963
 Red. masses --      1.0156
 Frc consts  --      0.0089
 IR Inten    --      0.0314

 - Thermochemistry -
 -------------------
 Temperature   298.150 Kelvin.  Pressure   1.00000 Atm.
 Atom     1 has atomic number  1 and mass   1.00783

 Molecular mass:    21.01405 amu.
 Principal axes and moments of inertia in atomic units:
                           1         2         3
     Eigenvalues --     0.00000 192.16076 192.16076
           X            1.00000  -0.00000   0.00000
           Y            0.00000   1.00000   0.00000
           Z            0.00000   0.00000   1.00000
 This molecule is a prolate symmetric top.
 Rotational symmetry number  1.
 Rotational temperature (Kelvin)      0.45074
 Rotational constant (GHZ):           9.391830
    2 imaginary frequencies ignored.
 Zero-point vibrational energy       1461.8 (Joules/Mol)
                                    0.34938 (Kcal/Mol)
 Warning -- explicit consideration of   2 degrees of freedom as
           vibrations may cause significant error
 Vibrational temperatures:    175.81   175.81
          (Kelvin)

 Zero-point correction=                           0.000557 (Hartree/Particle)
 Thermal correction to Energy=                    0.004303
 Thermal correction to Enthalpy=                  0.005247
 Thermal correction to Gibbs Free Energy=        -0.022058
 Sum of electronic and zero-point Energies=           -100.759153
 Sum of electronic and thermal Energies=              -100.755407
 Sum of electronic and thermal Enthalpies=            -100.754463
 Sum of electronic and thermal Free Energies=         -100.781768

                     E (Thermal)             CV                S
                      KCal/Mol        Cal/Mol-Kelvin    Cal/Mol-Kelvin
 Total                    2.700              8.829             57.469
 Electronic               0.000              0.000              1.377
 Translational            0.889              2.981             35.068
 Rotational               0.592              1.987             14.893
 Vibrational              1.219              3.861              6.131
 Vibration     1          0.610              1.931              3.065
 Vibration     2          0.610              1.931              3.065

 Normal termination of Gaussian 16 at Sat Aug 23 00:04:08 2025.
