 Gaussian 16, Revision C.01,
 Gaussian 16:  ES64L-G16RevC.01  3-Jul-2019

 -----------------------------------------
 # sp b3lyp/6-311g** Force nosymm scf=(qc)
 -----------------------------------------

 -------------------
 Title Card Required
 -------------------
 Symbolic Z-matrix:
 Charge =  0 Multiplicity = 2

                          Input orientation:
 ---------------------------------------------------------------------
 Center     Atomic      Atomic             Coordinates (Angstroms)
 Number     Number       Type             X           Y           Z
 ---------------------------------------------------------------------
      1          1           0        0.000000    0.000000    0.000000
      2          1           0       -1.950000    0.000000    0.000000
      3          9           0        1.650000    0.000000    0.000000
 ---------------------------------------------------------------------

 SCF Done:  E(UB3LYP) =  -100.835836025     a.u. after   16 cycles

 Alpha  occ. eigenvalues --  -24.65007  -1.11191  -0.44543  -0.37508  -0.37006
 Alpha  occ. eigenvalues --   -0.37006
 Alpha virt. eigenvalues --   -0.12620   0.23100   0.28557   0.94727   0.94727
 Alpha virt. eigenvalues --    0.95141   1.04916   1.19990   1.19990   1.31889
 Alpha virt. eigenvalues --    1.33996   1.33996   1.73017   2.11008   2.28800

  Beta  occ. eigenvalues --  -24.63528  -1.07179  -0.39928  -0.35578  -0.35578
  Beta virt. eigenvalues --   -0.19822  -0.09435   0.25491   0.31455   0.94567
  Beta virt. eigenvalues --    0.94567   0.97742   1.07778   1.27011   1.27011
  Beta virt. eigenvalues --    1.36280   1.36280   1.43153   1.72162   2.13589

 Mulliken charges and spin densities:
               1          2
     1  H    0.249560  -0.366027
     2  H    0.052598   0.901792
     3  F   -0.302158   0.464235
 Sum of Mulliken charges =   0.00000   1.00000

 Dipole moment (field-independent basis, Debye):
    X=             -2.9300    Y=              0.0000    Z=              0.0000  Tot=              2.9300
 Quadrupole moment (field-independent basis, Debye-Ang):
   XX=             -8.8241   YY=             -7.3947   ZZ=             -7.3947
   XY=             -0.0000   XZ=             -0.0000   YZ=              0.0000

  Exact polarizability:      38.212      -0.000       2.168      -0.000       0.000       2.168
 Approx polarizability:      50.766       0.000       2.083       0.000      -0.000       2.083

 ******    2 imaginary frequencies (negative Signs) ******

                      1                      2                      3
                      A                      A                      A
 Frequencies --  -2055.2468              -550.8554               859.2010
 Red. masses --      1.0341                 1.0784                 1.0201
 Frc consts  --      2.5736                 0.1928                 0.4437
 IR Inten    --     79.9011                 7.0083                41.5110

                      4
                      A
 Frequencies --    859.2010
 Red. masses --      1.0201
 Frc consts  --      0.4437
 IR Inten    --     41.5110

 - Thermochemistry -
 -------------------
 Temperature   298.150 Kelvin.  Pressure   1.00000 Atm.
 Atom     1 has atomic number  1 and mass   1.00783

 Molecular mass:    21.01405 amu.
 Principal axes and moments of inertia in atomic units:
                           1         2         3
     Eigenvalues --     0.00000  51.68397  51.68397
           X            1.00000  -0.00000   0.00000
           Y            0.00000   1.00000   0.00000
           Z            0.00000   0.00000   1.00000
 This molecule is a prolate symmetric top.
 Rotational symmetry number  1.
 Rotational temperature (Kelvin)      1.67584
 Rotational constant (GHZ):          34.918778
    2 imaginary frequencies ignored.
 Zero-point vibrational energy      10278.3 (Joules/Mol)
                                    2.45658 (Kcal/Mol)
 Vibrational temperatures:   1236.20  1236.20
          (Kelvin)

 Zero-point correction=                           0.003915 (Hartree/Particle)
 Thermal correction to Energy=                    0.006401
 Thermal correction to Enthalpy=                  0.007345
 Thermal correction to Gibbs Free Energy=        -0.015963
 Sum of electronic and zero-point Energies=           -100.831921
 Sum of electronic and thermal Energies=              -100.829435
 Sum of electronic and thermal Enthalpies=            -100.828491
 Sum of electronic and thermal Free Energies=         -100.851799

                     E (Thermal)             CV                S
                      KCal/Mol        Cal/Mol-Kelvin    Cal/Mol-Kelvin
 Total                    4.017              6.084             49.057
 Electronic               0.000              0.000              1.377
 Translational            0.889              2.981             35.068
 Rotational               0.592              1.987             12.283
 Vibrational              2.536              1.116              0.328

 Normal termination of Gaussian 16 at Fri Aug 22 16:34:15 2025.
