 Gaussian 16, Revision C.01,
 Gaussian 16:  ES64L-G16RevC.01  3-Jul-2019

 -----------------------------------------
 # sp b3lyp/6-311g** Force nosymm scf=(qc)
 -----------------------------------------

 -------------------
 Title Card Required
 -------------------
 Symbolic Z-matrix:
 Charge =  0 Multiplicity = 2

                          Input orientation:
 ---------------------------------------------------------------------
 Center     Atomic      Atomic             Coordinates (Angstroms)
 Number     Number       Type             X           Y           Z
 ---------------------------------------------------------------------
      1          1           0        0.000000    0.000000    0.000000
      2          1           0       -2.350000    0.000000    0.000000
      3          9           0        2.050000    0.000000    0.000000
 ---------------------------------------------------------------------

 SCF Done:  E(UB3LYP) =  -100.789294808     a.u. after   16 cycles

 Alpha  occ. eigenvalues --  -24.68499  -1.14820  -0.47520  -0.39970  -0.39970
 Alpha  occ. eigenvalues --   -0.35142
 Alpha virt. eigenvalues --   -0.13716   0.24194   0.31165   0.89238   0.94918
 Alpha virt. eigenvalues --    0.94918   1.06177   1.22577   1.22577   1.26724
 Alpha virt. eigenvalues --    1.34925   1.34925   1.57328   2.12902   2.29104

  Beta  occ. eigenvalues --  -24.66052  -1.07962  -0.37554  -0.37554  -0.37345
  Beta virt. eigenvalues --   -0.21202  -0.10496   0.25434   0.33892   0.91938
  Beta virt. eigenvalues --    0.95720   0.95720   1.08820   1.22306   1.22306
  Beta virt. eigenvalues --    1.39888   1.39888   1.42574   1.50692   2.12792

 Mulliken charges and spin densities:
               1          2
     1  H    0.154824  -0.724775
     2  H    0.023596   0.955223
     3  F   -0.178421   0.769552
 Sum of Mulliken charges =   0.00000   1.00000

 Dipole moment (field-independent basis, Debye):
    X=             -2.0823    Y=              0.0000    Z=             -0.0000  Tot=              2.0823
 Quadrupole moment (field-independent basis, Debye-Ang):
   XX=             -9.1974   YY=             -7.5432   ZZ=             -7.5432
   XY=             -0.0000   XZ=             -0.0000   YZ=             -0.0000

  Exact polarizability:      41.948      -0.000       2.050      -0.000       0.000       2.050
 Approx polarizability:      49.085       0.000       1.946      -0.000       0.000       1.946

 ******    2 imaginary frequencies (negative Signs) ******

                      1                      2                      3
                      A                      A                      A
 Frequencies --  -1212.5175              -454.6561               506.5328
 Red. masses --      1.0340                 1.0785                 1.0197
 Frc consts  --      0.8957                 0.1314                 0.1541
 IR Inten    --     83.4580                24.8656                18.6985

                      4
                      A
 Frequencies --    506.5328
 Red. masses --      1.0197
 Frc consts  --      0.1541
 IR Inten    --     18.6985

 - Thermochemistry -
 -------------------
 Temperature   298.150 Kelvin.  Pressure   1.00000 Atm.
 Atom     1 has atomic number  1 and mass   1.00783

 Molecular mass:    21.01405 amu.
 Principal axes and moments of inertia in atomic units:
                           1         2         3
     Eigenvalues --     0.00000  77.62076  77.62076
           X            1.00000  -0.00000   0.00000
           Y            0.00000   1.00000   0.00000
           Z            0.00000   0.00000   1.00000
 This molecule is a prolate symmetric top.
 Rotational symmetry number  1.
 Rotational temperature (Kelvin)      1.11586
 Rotational constant (GHZ):          23.250754
    2 imaginary frequencies ignored.
 Zero-point vibrational energy       6059.5 (Joules/Mol)
                                    1.44825 (Kcal/Mol)
 Warning -- explicit consideration of   2 degrees of freedom as
           vibrations may cause significant error
 Vibrational temperatures:    728.79   728.79
          (Kelvin)

 Zero-point correction=                           0.002308 (Hartree/Particle)
 Thermal correction to Energy=                    0.005107
 Thermal correction to Enthalpy=                  0.006051
 Thermal correction to Gibbs Free Energy=        -0.018096
 Sum of electronic and zero-point Energies=           -100.786987
 Sum of electronic and thermal Energies=              -100.784188
 Sum of electronic and thermal Enthalpies=            -100.783244
 Sum of electronic and thermal Free Energies=         -100.807390

                     E (Thermal)             CV                S
                      KCal/Mol        Cal/Mol-Kelvin    Cal/Mol-Kelvin
 Total                    3.205              7.439             50.821
 Electronic               0.000              0.000              1.377
 Translational            0.889              2.981             35.068
 Rotational               0.592              1.987             13.092
 Vibrational              1.723              2.471              1.284
 Vibration     1          0.862              1.236              0.642
 Vibration     2          0.862              1.236              0.642

 Normal termination of Gaussian 16 at Fri Aug 22 17:00:26 2025.
