 Gaussian 16, Revision C.01,
 Gaussian 16:  ES64L-G16RevC.01  3-Jul-2019

 -----------------------------------------
 # sp b3lyp/6-311g** Force nosymm scf=(qc)
 -----------------------------------------

 -------------------
 Title Card Required
 -------------------
 Symbolic Z-matrix:
 Charge =  0 Multiplicity = 2

                          Input orientation:
 ---------------------------------------------------------------------
 Center     Atomic      Atomic             Coordinates (Angstroms)
 Number     Number       Type             X           Y           Z
 ---------------------------------------------------------------------
      1          1           0        0.000000    0.000000    0.000000
      2          1           0       -3.950000    0.000000    0.000000
      3          9           0        2.150000    0.000000    0.000000
 ---------------------------------------------------------------------

 SCF Done:  E(UB3LYP) =  -100.778627040     a.u. after   17 cycles

 Alpha  occ. eigenvalues --  -24.69403  -1.15721  -0.48446  -0.40756  -0.40756
 Alpha  occ. eigenvalues --   -0.33029
 Alpha virt. eigenvalues --   -0.12649   0.22862   0.32783   0.88214   0.94609
 Alpha virt. eigenvalues --    0.94609   1.05799   1.24471   1.24473   1.24473
 Alpha virt. eigenvalues --    1.37029   1.37029   1.53711   2.13769   2.31792

  Beta  occ. eigenvalues --  -24.66830  -1.08474  -0.38208  -0.38208  -0.37050
  Beta virt. eigenvalues --   -0.21676  -0.06215   0.22926   0.38073   0.90675
  Beta virt. eigenvalues --    0.95604   0.95604   1.08108   1.21517   1.21517
  Beta virt. eigenvalues --    1.44581   1.46502   1.46605   1.46605   2.11300

 Mulliken charges and spin densities:
               1          2
     1  H    0.155139  -0.809439
     2  H    0.000431   0.999281
     3  F   -0.155569   0.810158
 Sum of Mulliken charges =  -0.00000   1.00000

 Dipole moment (field-independent basis, Debye):
    X=             -1.6776    Y=             -0.0000    Z=              0.0000  Tot=              1.6776
 Quadrupole moment (field-independent basis, Debye-Ang):
   XX=             -9.9257   YY=             -7.5153   ZZ=             -7.5153
   XY=             -0.0000   XZ=              0.0000   YZ=              0.0000

  Exact polarizability:      26.510      -0.000       2.045       0.000       0.000       2.045
 Approx polarizability:      37.523      -0.000       1.932       0.000       0.000       1.932

 ******    2 imaginary frequencies (negative Signs) ******

                      1                      2                      3
                      A                      A                      A
 Frequencies --   -919.0552               -71.0668               387.8506
 Red. masses --      1.0576                 1.0539                 1.0267
 Frc consts  --      0.5264                 0.0031                 0.0910
 IR Inten    --    110.3625                 0.0345                23.2664

                      4
                      A
 Frequencies --    387.8506
 Red. masses --      1.0267
 Frc consts  --      0.0910
 IR Inten    --     23.2664

 - Thermochemistry -
 -------------------
 Temperature   298.150 Kelvin.  Pressure   1.00000 Atm.
 Atom     1 has atomic number  1 and mass   1.00783

 Molecular mass:    21.01405 amu.
 Principal axes and moments of inertia in atomic units:
                           1         2         3
     Eigenvalues --     0.00000 138.80747 138.80747
           X            1.00000  -0.00000   0.00000
           Y            0.00000   1.00000   0.00000
           Z            0.00000   0.00000   1.00000
 This molecule is a prolate symmetric top.
 Rotational symmetry number  1.
 Rotational temperature (Kelvin)      0.62399
 Rotational constant (GHZ):          13.001759
    2 imaginary frequencies ignored.
 Zero-point vibrational energy       4639.7 (Joules/Mol)
                                    1.10892 (Kcal/Mol)
 Warning -- explicit consideration of   2 degrees of freedom as
           vibrations may cause significant error
 Vibrational temperatures:    558.03   558.03
          (Kelvin)

 Zero-point correction=                           0.001767 (Hartree/Particle)
 Thermal correction to Energy=                    0.004770
 Thermal correction to Enthalpy=                  0.005715
 Thermal correction to Gibbs Free Energy=        -0.019329
 Sum of electronic and zero-point Energies=           -100.776860
 Sum of electronic and thermal Energies=              -100.773857
 Sum of electronic and thermal Enthalpies=            -100.772912
 Sum of electronic and thermal Free Energies=         -100.797956

                     E (Thermal)             CV                S
                      KCal/Mol        Cal/Mol-Kelvin    Cal/Mol-Kelvin
 Total                    2.993              7.960             52.709
 Electronic               0.000              0.000              1.377
 Translational            0.889              2.981             35.068
 Rotational               0.592              1.987             14.247
 Vibrational              1.512              2.992              2.017
 Vibration     1          0.756              1.496              1.008
 Vibration     2          0.756              1.496              1.008

 Normal termination of Gaussian 16 at Fri Aug 22 17:09:30 2025.
