 Gaussian 16, Revision C.01,
 Gaussian 16:  ES64L-G16RevC.01  3-Jul-2019

 -----------------------------------------
 # sp b3lyp/6-311g** Force nosymm scf=(qc)
 -----------------------------------------

 -------------------
 Title Card Required
 -------------------
 Symbolic Z-matrix:
 Charge =  0 Multiplicity = 2

                          Input orientation:
 ---------------------------------------------------------------------
 Center     Atomic      Atomic             Coordinates (Angstroms)
 Number     Number       Type             X           Y           Z
 ---------------------------------------------------------------------
      1          1           0        0.000000    0.000000    0.000000
      2          1           0       -2.450000    0.000000    0.000000
      3          9           0        3.300000    0.000000    0.000000
 ---------------------------------------------------------------------

 SCF Done:  E(UB3LYP) =  -100.764016222     a.u. after   26 cycles

 Alpha  occ. eigenvalues --  -24.75062  -1.21048  -0.54183  -0.45494  -0.45494
 Alpha  occ. eigenvalues --   -0.32840
 Alpha virt. eigenvalues --   -0.09993   0.25625   0.33834   0.88334   0.91679
 Alpha virt. eigenvalues --    0.91679   1.02428   1.24835   1.24835   1.26381
 Alpha virt. eigenvalues --    1.40549   1.40549   1.42580   2.15451   2.36468

  Beta  occ. eigenvalues --  -24.71971  -1.12172  -0.42397  -0.42397  -0.33246
  Beta virt. eigenvalues --   -0.25330  -0.09303   0.25509   0.34771   0.93161
  Beta virt. eigenvalues --    0.93161   0.97374   1.06413   1.24338   1.24338
  Beta virt. eigenvalues --    1.25764   1.41639   1.41639   1.43666   2.16259

 Mulliken charges and spin densities:
               1          2
     1  H    0.014143  -0.945396
     2  H    0.003781   0.965436
     3  F   -0.017923   0.979960
 Sum of Mulliken charges =   0.00000   1.00000

 Dipole moment (field-independent basis, Debye):
    X=             -0.3477    Y=              0.0000    Z=             -0.0000  Tot=              0.3477
 Quadrupole moment (field-independent basis, Debye-Ang):
   XX=             -7.3657   YY=             -7.6665   ZZ=             -7.6665
   XY=              0.0000   XZ=             -0.0000   YZ=              0.0000

  Exact polarizability:      40.014       0.000       2.018      -0.000       0.000       2.018
 Approx polarizability:      31.729       0.000       1.926      -0.000      -0.000       1.926

 ******    2 imaginary frequencies (negative Signs) ******

                      1                      2                      3
                      A                      A                      A
 Frequencies --   -727.3897              -176.7397               269.3432
 Red. masses --      1.0083                 1.1080                 1.0147
 Frc consts  --      0.3143                 0.0204                 0.0434
 IR Inten    --     11.5419                11.4939                 0.1395

                      4
                      A
 Frequencies --    269.3432
 Red. masses --      1.0147
 Frc consts  --      0.0434
 IR Inten    --      0.1395

 - Thermochemistry -
 -------------------
 Temperature   298.150 Kelvin.  Pressure   1.00000 Atm.
 Atom     1 has atomic number  1 and mass   1.00783

 Molecular mass:    21.01405 amu.
 Principal axes and moments of inertia in atomic units:
                           1         2         3
     Eigenvalues --     0.00000 144.04849 144.04849
           X            1.00000  -0.00000   0.00000
           Y            0.00000   1.00000   0.00000
           Z            0.00000   0.00000   1.00000
 This molecule is a prolate symmetric top.
 Rotational symmetry number  1.
 Rotational temperature (Kelvin)      0.60128
 Rotational constant (GHZ):          12.528707
    2 imaginary frequencies ignored.
 Zero-point vibrational energy       3222.1 (Joules/Mol)
                                    0.77009 (Kcal/Mol)
 Warning -- explicit consideration of   2 degrees of freedom as
           vibrations may cause significant error
 Vibrational temperatures:    387.52   387.52
          (Kelvin)

 Zero-point correction=                           0.001227 (Hartree/Particle)
 Thermal correction to Energy=                    0.004507
 Thermal correction to Enthalpy=                  0.005452
 Thermal correction to Gibbs Free Energy=        -0.020190
 Sum of electronic and zero-point Energies=           -100.762789
 Sum of electronic and thermal Energies=              -100.759509
 Sum of electronic and thermal Enthalpies=            -100.758565
 Sum of electronic and thermal Free Energies=         -100.784206

                     E (Thermal)             CV                S
                      KCal/Mol        Cal/Mol-Kelvin    Cal/Mol-Kelvin
 Total                    2.828              8.427             53.967
 Electronic               0.000              0.000              1.377
 Translational            0.889              2.981             35.068
 Rotational               0.592              1.987             14.320
 Vibrational              1.347              3.459              3.201
 Vibration     1          0.674              1.730              1.600
 Vibration     2          0.674              1.730              1.600

 Normal termination of Gaussian 16 at Fri Aug 22 20:48:47 2025.
