 Gaussian 16, Revision C.01,
 Gaussian 16:  ES64L-G16RevC.01  3-Jul-2019

 -----------------------------------------
 # sp b3lyp/6-311g** Force nosymm scf=(qc)
 -----------------------------------------

 -------------------
 Title Card Required
 -------------------
 Symbolic Z-matrix:
 Charge =  0 Multiplicity = 2

                          Input orientation:
 ---------------------------------------------------------------------
 Center     Atomic      Atomic             Coordinates (Angstroms)
 Number     Number       Type             X           Y           Z
 ---------------------------------------------------------------------
      1          1           0        0.000000    0.000000    0.000000
      2          1           0       -0.500000    0.000000    0.000000
      3          9           0        3.400000    0.000000    0.000000
 ---------------------------------------------------------------------

 SCF Done:  E(UB3LYP) =  -100.861878504     a.u. after  143 cycles

 Alpha  occ. eigenvalues --  -24.76379  -1.22215  -0.55416  -0.49257  -0.46590
 Alpha  occ. eigenvalues --   -0.46568
 Alpha virt. eigenvalues --    0.10030   0.18326   0.55642   0.86011   0.90886
 Alpha virt. eigenvalues --    0.93649   1.03490   1.12088   1.12092   1.61491
 Alpha virt. eigenvalues --    1.85631   1.99619   1.99624   2.36284   3.64820

  Beta  occ. eigenvalues --  -24.73219  -1.13133  -0.49250  -0.43427  -0.43400
  Beta virt. eigenvalues --   -0.26048   0.10065   0.18343   0.55746   0.92385
  Beta virt. eigenvalues --    0.95299   0.95473   1.07332   1.12088   1.12092
  Beta virt. eigenvalues --    1.61506   1.85663   1.99618   1.99624   2.36286

 Mulliken charges and spin densities:
               1          2
     1  H   -0.005206  -0.000975
     2  H   -0.000709   0.000261
     3  F    0.005915   1.000714
 Sum of Mulliken charges =   0.00000   1.00000

 Dipole moment (field-independent basis, Debye):
    X=              0.0584    Y=              0.0000    Z=             -0.0000  Tot=              0.0584
 Quadrupole moment (field-independent basis, Debye-Ang):
   XX=             -6.0502   YY=             -5.7275   ZZ=             -6.5915
   XY=              0.0000   XZ=             -0.0000   YZ=             -0.0042

  Exact polarizability:       5.579       0.000       2.264       0.000      -0.002       1.800
 Approx polarizability:       5.875       0.000       2.463      -0.000      -0.003       1.882

 ******    2 imaginary frequencies (negative Signs) ******

                      1                      2                      3
                      A                      A                      A
 Frequencies --  -4828.9886             -4828.7218                31.4501
 Red. masses --      1.0083                 1.0083                 1.1085
 Frc consts  --     13.8532                13.8517                 0.0006
 IR Inten    --      0.0220                 0.0201                 0.1368

                      4
                      A
 Frequencies --   9960.5288
 Red. masses --      1.0078
 Frc consts  --     58.9115
 IR Inten    --      0.0896

 - Thermochemistry -
 -------------------
 Temperature   298.150 Kelvin.  Pressure   1.00000 Atm.
 Atom     1 has atomic number  1 and mass   1.00783

 Molecular mass:    21.01405 amu.
 Principal axes and moments of inertia in atomic units:
                           1         2         3
     Eigenvalues --     0.00000  87.14724  87.14724
           X            1.00000  -0.00000   0.00000
           Y            0.00000   1.00000   0.00000
           Z            0.00000   0.00000   1.00000
 This molecule is a prolate symmetric top.
 Rotational symmetry number  1.
 Rotational temperature (Kelvin)      0.99388
 Rotational constant (GHZ):          20.709104
    2 imaginary frequencies ignored.
 Zero-point vibrational energy      59765.3 (Joules/Mol)
                                   14.28425 (Kcal/Mol)
 Warning -- explicit consideration of   1 degrees of freedom as
           vibrations may cause significant error
 Vibrational temperatures:     45.25 14330.98
          (Kelvin)

 Zero-point correction=                           0.022763 (Hartree/Particle)
 Thermal correction to Energy=                    0.025998
 Thermal correction to Enthalpy=                  0.026942
 Thermal correction to Gibbs Free Energy=         0.000571
 Sum of electronic and zero-point Energies=           -100.839115
 Sum of electronic and thermal Energies=              -100.835880
 Sum of electronic and thermal Enthalpies=            -100.834936
 Sum of electronic and thermal Free Energies=         -100.861307

                     E (Thermal)             CV                S
                      KCal/Mol        Cal/Mol-Kelvin    Cal/Mol-Kelvin
 Total                   16.314              6.951             55.503
 Electronic               0.000              0.000              1.377
 Translational            0.889              2.981             35.068
 Rotational               0.592              1.987             13.322
 Vibrational             14.833              1.983              5.736
 Vibration     1          0.594              1.983              5.736

 Normal termination of Gaussian 16 at Fri Aug 22 21:04:16 2025.
