 Gaussian 16, Revision C.01,
 Gaussian 16:  ES64L-G16RevC.01  3-Jul-2019

 -----------------------------------------
 # sp b3lyp/6-311g** Force nosymm scf=(qc)
 -----------------------------------------

 -------------------
 Title Card Required
 -------------------
 Symbolic Z-matrix:
 Charge =  0 Multiplicity = 2

                          Input orientation:
 ---------------------------------------------------------------------
 Center     Atomic      Atomic             Coordinates (Angstroms)
 Number     Number       Type             X           Y           Z
 ---------------------------------------------------------------------
      1          1           0        0.000000    0.000000    0.000000
      2          1           0       -3.850000    0.000000    0.000000
      3          9           0        3.800000    0.000000    0.000000
 ---------------------------------------------------------------------

 SCF Done:  E(UB3LYP) =  -100.758538999     a.u. after   30 cycles

 Alpha  occ. eigenvalues --  -24.75749  -1.21686  -0.54873  -0.46072  -0.46072
 Alpha  occ. eigenvalues --   -0.32250
 Alpha virt. eigenvalues --   -0.06184   0.24185   0.37691   0.86853   0.91254
 Alpha virt. eigenvalues --    0.91254   1.01266   1.25246   1.25246   1.25285
 Alpha virt. eigenvalues --    1.46258   1.46258   1.46382   2.14682   2.42173

  Beta  occ. eigenvalues --  -24.72612  -1.12666  -0.42927  -0.42927  -0.32535
  Beta virt. eigenvalues --   -0.25666  -0.05957   0.23982   0.38199   0.92750
  Beta virt. eigenvalues --    0.92750   0.96155   1.05360   1.24931   1.24931
  Beta virt. eigenvalues --    1.24954   1.46528   1.46662   1.46662   2.14705

 Mulliken charges and spin densities:
               1          2
     1  H    0.004733  -0.993822
     2  H    0.000038   0.999094
     3  F   -0.004771   0.994728
 Sum of Mulliken charges =  -0.00000   1.00000

 Dipole moment (field-independent basis, Debye):
    X=             -0.0943    Y=             -0.0000    Z=             -0.0000  Tot=              0.0943
 Quadrupole moment (field-independent basis, Debye-Ang):
   XX=             -7.0666   YY=             -7.6196   ZZ=             -7.6196
   XY=             -0.0000   XZ=             -0.0000   YZ=              0.0000

  Exact polarizability:      14.797      -0.000       2.033      -0.000      -0.000       2.033
 Approx polarizability:      10.917      -0.000       1.936      -0.000      -0.000       1.936

 ******    2 imaginary frequencies (negative Signs) ******

                      1                      2                      3
                      A                      A                      A
 Frequencies --   -165.3993               -69.4266                51.3816
 Red. masses --      1.0283                 1.0847                 1.0181
 Frc consts  --      0.0166                 0.0031                 0.0016
 IR Inten    --      3.0444                 0.3420                 0.0221

                      4
                      A
 Frequencies --     51.3816
 Red. masses --      1.0181
 Frc consts  --      0.0016
 IR Inten    --      0.0221

 - Thermochemistry -
 -------------------
 Temperature   298.150 Kelvin.  Pressure   1.00000 Atm.
 Atom     1 has atomic number  1 and mass   1.00783

 Molecular mass:    21.01405 amu.
 Principal axes and moments of inertia in atomic units:
                           1         2         3
     Eigenvalues --     0.00000 239.96346 239.96346
           X            1.00000  -0.00000   0.00000
           Y            0.00000   1.00000   0.00000
           Z            0.00000   0.00000   1.00000
 This molecule is a prolate symmetric top.
 Rotational symmetry number  1.
 Rotational temperature (Kelvin)      0.36095
 Rotational constant (GHZ):           7.520900
    2 imaginary frequencies ignored.
 Zero-point vibrational energy        614.7 (Joules/Mol)
                                    0.14691 (Kcal/Mol)
 Warning -- explicit consideration of   2 degrees of freedom as
           vibrations may cause significant error
 Vibrational temperatures:     73.93    73.93
          (Kelvin)

 Zero-point correction=                           0.000234 (Hartree/Particle)
 Thermal correction to Energy=                    0.004258
 Thermal correction to Enthalpy=                  0.005203
 Thermal correction to Gibbs Free Energy=        -0.023926
 Sum of electronic and zero-point Energies=           -100.758305
 Sum of electronic and thermal Energies=              -100.754281
 Sum of electronic and thermal Enthalpies=            -100.753336
 Sum of electronic and thermal Free Energies=         -100.782465

                     E (Thermal)             CV                S
                      KCal/Mol        Cal/Mol-Kelvin    Cal/Mol-Kelvin
 Total                    2.672              8.922             61.307
 Electronic               0.000              0.000              1.377
 Translational            0.889              2.981             35.068
 Rotational               0.592              1.987             15.335
 Vibrational              1.191              3.954              9.527
 Vibration     1          0.596              1.977              4.763
 Vibration     2          0.596              1.977              4.763

 Normal termination of Gaussian 16 at Sat Aug 23 00:52:51 2025.
