 Gaussian 16, Revision C.01,
 Gaussian 16:  ES64L-G16RevC.01  3-Jul-2019

 -----------------------------------------
 # sp b3lyp/6-311g** Force nosymm scf=(qc)
 -----------------------------------------

 -------------------
 Title Card Required
 -------------------
 Symbolic Z-matrix:
 Charge =  0 Multiplicity = 2

                          Input orientation:
 ---------------------------------------------------------------------
 Center     Atomic      Atomic             Coordinates (Angstroms)
 Number     Number       Type             X           Y           Z
 ---------------------------------------------------------------------
      1          1           0        0.000000    0.000000    0.000000
      2          1           0       -3.650000    0.000000    0.000000
      3          9           0        2.200000    0.000000    0.000000
 ---------------------------------------------------------------------

 SCF Done:  E(UB3LYP) =  -100.776142477     a.u. after   17 cycles

 Alpha  occ. eigenvalues --  -24.67094  -1.08632  -0.38418  -0.38418  -0.36786
 Alpha  occ. eigenvalues --   -0.33049
 Alpha virt. eigenvalues --   -0.21924   0.20576   0.27759   0.91340   0.95609
 Alpha virt. eigenvalues --    0.95609   1.08193   1.21507   1.21507   1.24413
 Alpha virt. eigenvalues --    1.24413   1.24437   1.42063   2.10496   2.15692

  Beta  occ. eigenvalues --  -24.69714  -1.16026  -0.48770  -0.41017  -0.41017
  Beta virt. eigenvalues --   -0.12531  -0.04586   0.30921   0.40164   0.88412
  Beta virt. eigenvalues --    0.94528   0.94528   1.06015   1.37584   1.37584
  Beta virt. eigenvalues --    1.47938   1.47938   1.48058   1.51908   2.32207

 Mulliken charges and spin densities:
               1          2
     1  H    0.144620   0.826180
     2  H    0.000771   0.999247
     3  F   -0.145390  -0.825426
 Sum of Mulliken charges =   0.00000   1.00000

 Dipole moment (field-independent basis, Debye):
    X=             -1.6157    Y=              0.0000    Z=             -0.0000  Tot=              1.6157
 Quadrupole moment (field-independent basis, Debye-Ang):
   XX=             -9.8699   YY=             -7.5177   ZZ=             -7.5177
   XY=             -0.0000   XZ=             -0.0000   YZ=              0.0000

  Exact polarizability:      28.015       0.000       2.041       0.000       0.000       2.041
 Approx polarizability:      39.057       0.000       1.929       0.000      -0.000       1.929

 ******    1 imaginary frequencies (negative Signs) ******

                      1                      2                      3
                      A                      A                      A
 Frequencies --   -854.6373                61.0243               357.9270
 Red. masses --      1.0591                 1.0525                 1.0251
 Frc consts  --      0.4558                 0.0023                 0.0774
 IR Inten    --    101.0215                 0.0933                19.9858

                      4
                      A
 Frequencies --    357.9270
 Red. masses --      1.0251
 Frc consts  --      0.0774
 IR Inten    --     19.9858

 - Thermochemistry -
 -------------------
 Temperature   298.150 Kelvin.  Pressure   1.00000 Atm.
 Atom     1 has atomic number  1 and mass   1.00783

 Molecular mass:    21.01405 amu.
 Principal axes and moments of inertia in atomic units:
                           1         2         3
     Eigenvalues --     0.00000 129.40091 129.40091
           X            1.00000  -0.00000   0.00000
           Y            0.00000   1.00000   0.00000
           Z            0.00000   0.00000   1.00000
 This molecule is a prolate symmetric top.
 Rotational symmetry number  1.
 Rotational temperature (Kelvin)      0.66935
 Rotational constant (GHZ):          13.946897
    1 imaginary frequencies ignored.
 Zero-point vibrational energy       4646.8 (Joules/Mol)
                                    1.11060 (Kcal/Mol)
 Warning -- explicit consideration of   3 degrees of freedom as
           vibrations may cause significant error
 Vibrational temperatures:     87.80   514.98   514.98
          (Kelvin)

 Zero-point correction=                           0.001770 (Hartree/Particle)
 Thermal correction to Energy=                    0.005648
 Thermal correction to Enthalpy=                  0.006592
 Thermal correction to Gibbs Free Energy=        -0.020604
 Sum of electronic and zero-point Energies=           -100.774373
 Sum of electronic and thermal Energies=              -100.770495
 Sum of electronic and thermal Enthalpies=            -100.769551
 Sum of electronic and thermal Free Energies=         -100.796747

                     E (Thermal)             CV                S
                      KCal/Mol        Cal/Mol-Kelvin    Cal/Mol-Kelvin
 Total                    3.544             10.059             57.239
 Electronic               0.000              0.000              1.377
 Translational            0.889              2.981             35.068
 Rotational               0.592              1.987             14.107
 Vibrational              2.063              5.091              6.686
 Vibration     1          0.597              1.973              4.424
 Vibration     2          0.733              1.559              1.131
 Vibration     3          0.733              1.559              1.131

 Normal termination of Gaussian 16 at Fri Aug 22 17:13:12 2025.
