 Gaussian 16, Revision C.01,
 Gaussian 16:  ES64L-G16RevC.01  3-Jul-2019

 -----------------------------------------
 # sp b3lyp/6-311g** Force nosymm scf=(qc)
 -----------------------------------------

 -------------------
 Title Card Required
 -------------------
 Symbolic Z-matrix:
 Charge =  0 Multiplicity = 2

                          Input orientation:
 ---------------------------------------------------------------------
 Center     Atomic      Atomic             Coordinates (Angstroms)
 Number     Number       Type             X           Y           Z
 ---------------------------------------------------------------------
      1          1           0        0.000000    0.000000    0.000000
      2          1           0       -2.200000    0.000000    0.000000
      3          9           0        3.950000    0.000000    0.000000
 ---------------------------------------------------------------------

 SCF Done:  E(UB3LYP) =  -100.767545209     a.u. after  327 cycles

 Alpha  occ. eigenvalues --  -24.75922  -1.21847  -0.55047  -0.46222  -0.46222
 Alpha  occ. eigenvalues --   -0.32726
 Alpha virt. eigenvalues --   -0.10199   0.26011   0.33665   0.86589   0.91134
 Alpha virt. eigenvalues --    0.91134   1.01066   1.23622   1.25119   1.25119
 Alpha virt. eigenvalues --    1.39640   1.39640   1.45661   2.14228   2.35374

  Beta  occ. eigenvalues --  -24.72776  -1.12802  -0.43069  -0.43069  -0.32809
  Beta virt. eigenvalues --   -0.25775  -0.10047   0.25874   0.33887   0.92633
  Beta virt. eigenvalues --    0.92633   0.95969   1.05197   1.23559   1.25029
  Beta virt. eigenvalues --    1.25029   1.39846   1.39846   1.45822   2.14371

 Mulliken charges and spin densities:
               1          2
     1  H    0.000463  -0.921632
     2  H    0.001794   0.924275
     3  F   -0.002257   0.997357
 Sum of Mulliken charges =   0.00000   1.00000

 Dipole moment (field-independent basis, Debye):
    X=             -0.0643    Y=              0.0000    Z=              0.0000  Tot=              0.0643
 Quadrupole moment (field-independent basis, Debye-Ang):
   XX=             -6.4923   YY=             -7.7004   ZZ=             -7.7004
   XY=              0.0001   XZ=              0.0024   YZ=              0.0000

  Exact polarizability:      25.790       0.000       2.014       0.001       0.000       2.014
 Approx polarizability:      21.945       0.000       1.932       0.002       0.000       1.932

 ******    2 imaginary frequencies (negative Signs) ******

                      1                      2                      3
                      A                      A                      A
 Frequencies --  -1019.0816               -74.4207               397.0412
 Red. masses --      1.0078                 1.1085                 1.0124
 Frc consts  --      0.6167                 0.0036                 0.0940
 IR Inten    --      0.7053                 0.7729                 0.0000

                      4
                      A
 Frequencies --    397.0413
 Red. masses --      1.0124
 Frc consts  --      0.0940
 IR Inten    --      0.0000

 - Thermochemistry -
 -------------------
 Temperature   298.150 Kelvin.  Pressure   1.00000 Atm.
 Atom     1 has atomic number  1 and mass   1.00783

 Molecular mass:    21.01405 amu.
 Principal axes and moments of inertia in atomic units:
                           1         2         3
     Eigenvalues --     0.00000 174.66940 174.66940
           X            1.00000  -0.00000   0.00000
           Y            0.00000   1.00000   0.00000
           Z            0.00000   0.00000   1.00000
 This molecule is a prolate symmetric top.
 Rotational symmetry number  1.
 Rotational temperature (Kelvin)      0.49587
 Rotational constant (GHZ):          10.332326
    2 imaginary frequencies ignored.
 Zero-point vibrational energy       4749.7 (Joules/Mol)
                                    1.13520 (Kcal/Mol)
 Warning -- explicit consideration of   2 degrees of freedom as
           vibrations may cause significant error
 Vibrational temperatures:    571.25   571.25
          (Kelvin)

 Zero-point correction=                           0.001809 (Hartree/Particle)
 Thermal correction to Energy=                    0.004794
 Thermal correction to Enthalpy=                  0.005738
 Thermal correction to Gibbs Free Energy=        -0.019489
 Sum of electronic and zero-point Energies=           -100.765736
 Sum of electronic and thermal Energies=              -100.762751
 Sum of electronic and thermal Enthalpies=            -100.761807
 Sum of electronic and thermal Free Energies=         -100.787035

                     E (Thermal)             CV                S
                      KCal/Mol        Cal/Mol-Kelvin    Cal/Mol-Kelvin
 Total                    3.008              7.921             53.096
 Electronic               0.000              0.000              1.377
 Translational            0.889              2.981             35.068
 Rotational               0.592              1.987             14.703
 Vibrational              1.527              2.953              1.947
 Vibration     1          0.764              1.476              0.974
 Vibration     2          0.764              1.476              0.974

 Normal termination of Gaussian 16 at Sat Aug 23 01:38:39 2025.
