 Gaussian 16, Revision C.01,
 Gaussian 16:  ES64L-G16RevC.01  3-Jul-2019

 -----------------------------------------
 # sp b3lyp/6-311g** Force nosymm scf=(qc)
 -----------------------------------------

 -------------------
 Title Card Required
 -------------------
 Symbolic Z-matrix:
 Charge =  0 Multiplicity = 2

                          Input orientation:
 ---------------------------------------------------------------------
 Center     Atomic      Atomic             Coordinates (Angstroms)
 Number     Number       Type             X           Y           Z
 ---------------------------------------------------------------------
      1          1           0        0.000000    0.000000    0.000000
      2          1           0       -1.100000    0.000000    0.000000
      3          9           0        3.200000    0.000000    0.000000
 ---------------------------------------------------------------------

 SCF Done:  E(UB3LYP) =  -100.890108483     a.u. after  185 cycles

 Alpha  occ. eigenvalues --  -24.76539  -1.22378  -0.55572  -0.46794  -0.46724
 Alpha  occ. eigenvalues --   -0.37421
 Alpha virt. eigenvalues --   -0.01741   0.22211   0.36340   0.85862   0.90736
 Alpha virt. eigenvalues --    0.93126   1.02761   1.10872   1.10877   1.29832
 Alpha virt. eigenvalues --    1.59987   1.59992   2.17303   2.34677   2.55745

  Beta  occ. eigenvalues --  -24.73379  -1.13295  -0.43633  -0.43557  -0.37412
  Beta virt. eigenvalues --   -0.26204  -0.01727   0.22228   0.36404   0.92236
  Beta virt. eigenvalues --    0.94727   0.95323   1.06722   1.10871   1.10876
  Beta virt. eigenvalues --    1.29842   1.59986   1.59991   2.17313   2.34682

 Mulliken charges and spin densities:
               1          2
     1  H   -0.001360  -0.000410
     2  H   -0.004532  -0.000324
     3  F    0.005892   1.000735
 Sum of Mulliken charges =   0.00000   1.00000

 Dipole moment (field-independent basis, Debye):
    X=              0.0771    Y=              0.0000    Z=              0.0000  Tot=              0.0771
 Quadrupole moment (field-independent basis, Debye-Ang):
   XX=             -6.1851   YY=             -7.2130   ZZ=             -6.7097
   XY=             -0.0000   XZ=             -0.0000   YZ=              0.3511

  Exact polarizability:      14.305      -0.000       2.172      -0.000       0.188       2.441
 Approx polarizability:      19.887      -0.000       2.236      -0.000       0.236       2.575

                      1                      2                      3
                      A                      A                      A
 Frequencies --     44.0192              1027.9758              1527.7753
 Red. masses --      1.1085                 1.0078                 1.0100
 Frc consts  --      0.0013                 0.6275                 1.3889
 IR Inten    --      0.2963                 0.4104                 0.0002

                      4
                      A
 Frequencies --   1528.6183
 Red. masses --      1.0100
 Frc consts  --      1.3904
 IR Inten    --      0.0004

 - Thermochemistry -
 -------------------
 Temperature   298.150 Kelvin.  Pressure   1.00000 Atm.
 Atom     1 has atomic number  1 and mass   1.00783

 Molecular mass:    21.01405 amu.
 Principal axes and moments of inertia in atomic units:
                           1         2         3
     Eigenvalues --     0.00000  93.69038  93.69038
           X            1.00000  -0.00000   0.00000
           Y            0.00000   1.00000   0.00000
           Z            0.00000   0.00000   1.00000
 This molecule is a prolate symmetric top.
 Rotational symmetry number  1.
 Rotational temperature (Kelvin)      0.92447
 Rotational constant (GHZ):          19.262824
 Zero-point vibrational energy      24693.2 (Joules/Mol)
                                    5.90183 (Kcal/Mol)
 Warning -- explicit consideration of   1 degrees of freedom as
           vibrations may cause significant error
 Vibrational temperatures:     63.33  1479.03  2198.13  2199.34
          (Kelvin)

 Zero-point correction=                           0.009405 (Hartree/Particle)
 Thermal correction to Energy=                    0.012655
 Thermal correction to Enthalpy=                  0.013599
 Thermal correction to Gibbs Free Energy=        -0.012574
 Sum of electronic and zero-point Energies=           -100.880703
 Sum of electronic and thermal Energies=              -100.877454
 Sum of electronic and thermal Enthalpies=            -100.876509
 Sum of electronic and thermal Free Energies=         -100.902682

                     E (Thermal)             CV                S
                      KCal/Mol        Cal/Mol-Kelvin    Cal/Mol-Kelvin
 Total                    7.941              7.431             55.085
 Electronic               0.000              0.000              1.377
 Translational            0.889              2.981             35.068
 Rotational               0.592              1.987             13.466
 Vibrational              6.460              2.463              5.174
 Vibration     1          0.595              1.980              5.069

 Normal termination of Gaussian 16 at Fri Aug 22 20:18:04 2025.
