 Gaussian 16, Revision C.01,
 Gaussian 16:  ES64L-G16RevC.01  3-Jul-2019

 -----------------------------------------
 # sp b3lyp/6-311g** Force nosymm scf=(qc)
 -----------------------------------------

 -------------------
 Title Card Required
 -------------------
 Symbolic Z-matrix:
 Charge =  0 Multiplicity = 2

                          Input orientation:
 ---------------------------------------------------------------------
 Center     Atomic      Atomic             Coordinates (Angstroms)
 Number     Number       Type             X           Y           Z
 ---------------------------------------------------------------------
      1          1           0        0.000000    0.000000    0.000000
      2          1           0       -1.400000    0.000000    0.000000
      3          9           0        1.300000    0.000000    0.000000
 ---------------------------------------------------------------------

 SCF Done:  E(UB3LYP) =  -100.915802871     a.u. after    7 cycles

 Alpha  occ. eigenvalues --  -24.64024  -1.11729  -0.49422  -0.38048  -0.36983
 Alpha  occ. eigenvalues --   -0.36983
 Alpha virt. eigenvalues --   -0.00821   0.20198   0.29596   0.92950   0.92950
 Alpha virt. eigenvalues --    1.01541   1.07622   1.13140   1.13140   1.43815
 Alpha virt. eigenvalues --    1.43815   1.54862   1.92250   2.23711   2.42661

  Beta  occ. eigenvalues --  -24.63074  -1.09266  -0.44625  -0.36097  -0.36097
  Beta virt. eigenvalues --   -0.20658   0.02681   0.23749   0.32090   0.93207
  Beta virt. eigenvalues --    0.93207   1.03806   1.13786   1.20857   1.20857
  Beta virt. eigenvalues --    1.47094   1.47094   1.57944   1.99448   2.28508

 Mulliken charges and spin densities:
               1          2
     1  H    0.283814  -0.094794
     2  H    0.064179   0.809051
     3  F   -0.347993   0.285743
 Sum of Mulliken charges =   0.00000   1.00000

 Dipole moment (field-independent basis, Debye):
    X=             -2.7575    Y=              0.0000    Z=             -0.0000  Tot=              2.7575
 Quadrupole moment (field-independent basis, Debye-Ang):
   XX=             -8.0252   YY=             -7.0477   ZZ=             -7.0477
   XY=              0.0000   XZ=             -0.0000   YZ=              0.0000

  Exact polarizability:      25.257       0.000       2.416      -0.000      -0.000       2.416
 Approx polarizability:      34.124       0.000       2.382      -0.000      -0.000       2.382

 ******    1 imaginary frequencies (negative Signs) ******

                      1                      2                      3
                      A                      A                      A
 Frequencies --  -2354.5106               404.6076              1118.2416
 Red. masses --      1.0220                 1.0919                 1.0189
 Frc consts  --      3.3381                 0.1053                 0.7507
 IR Inten    --     23.9966                26.6102                45.8911

                      4
                      A
 Frequencies --   1118.2416
 Red. masses --      1.0189
 Frc consts  --      0.7507
 IR Inten    --     45.8911

 - Thermochemistry -
 -------------------
 Temperature   298.150 Kelvin.  Pressure   1.00000 Atm.
 Atom     1 has atomic number  1 and mass   1.00783

 Molecular mass:    21.01405 amu.
 Principal axes and moments of inertia in atomic units:
                           1         2         3
     Eigenvalues --     0.00000  29.55739  29.55739
           X            1.00000  -0.00000   0.00000
           Y            0.00000   1.00000   0.00000
           Z            0.00000   0.00000   1.00000
 This molecule is a prolate symmetric top.
 Rotational symmetry number  1.
 Rotational temperature (Kelvin)      2.93036
 Rotational constant (GHZ):          61.058891
    1 imaginary frequencies ignored.
 Zero-point vibrational energy      15797.2 (Joules/Mol)
                                    3.77563 (Kcal/Mol)
 Warning -- explicit consideration of   1 degrees of freedom as
           vibrations may cause significant error
 Vibrational temperatures:    582.14  1608.90  1608.90
          (Kelvin)

 Zero-point correction=                           0.006017 (Hartree/Particle)
 Thermal correction to Energy=                    0.008729
 Thermal correction to Enthalpy=                  0.009673
 Thermal correction to Gibbs Free Energy=        -0.013457
 Sum of electronic and zero-point Energies=           -100.909786
 Sum of electronic and thermal Energies=              -100.907074
 Sum of electronic and thermal Enthalpies=            -100.906130
 Sum of electronic and thermal Free Energies=         -100.929260

                     E (Thermal)             CV                S
                      KCal/Mol        Cal/Mol-Kelvin    Cal/Mol-Kelvin
 Total                    5.477              6.958             48.680
 Electronic               0.000              0.000              1.377
 Translational            0.889              2.981             35.068
 Rotational               0.592              1.987             11.173
 Vibrational              3.996              1.990              1.062
 Vibration     1          0.770              1.460              0.946

 Normal termination of Gaussian 16 at Fri Aug 22 16:14:37 2025.
