 Gaussian 16, Revision C.01,
 Gaussian 16:  ES64L-G16RevC.01  3-Jul-2019

 -----------------------------------------
 # sp b3lyp/6-311g** Force nosymm scf=(qc)
 -----------------------------------------

 -------------------
 Title Card Required
 -------------------
 Symbolic Z-matrix:
 Charge =  0 Multiplicity = 2

                          Input orientation:
 ---------------------------------------------------------------------
 Center     Atomic      Atomic             Coordinates (Angstroms)
 Number     Number       Type             X           Y           Z
 ---------------------------------------------------------------------
      1          1           0        0.000000    0.000000    0.000000
      2          1           0       -3.400000    0.000000    0.000000
      3          9           0        1.800000    0.000000    0.000000
 ---------------------------------------------------------------------

 SCF Done:  E(UB3LYP) =  -100.804305888     a.u. after   18 cycles

 Alpha  occ. eigenvalues --  -24.64622  -1.07488  -0.39365  -0.36426  -0.36426
 Alpha  occ. eigenvalues --   -0.33728
 Alpha virt. eigenvalues --   -0.19201   0.19637   0.27354   0.93447   0.94820
 Alpha virt. eigenvalues --    0.94820   1.07952   1.23743   1.23743   1.23746
 Alpha virt. eigenvalues --    1.23746   1.23839   1.64820   2.11788   2.14556

  Beta  occ. eigenvalues --  -24.66508  -1.12684  -0.45278  -0.38267  -0.38267
  Beta virt. eigenvalues --   -0.15285  -0.05508   0.26801   0.39081   0.92910
  Beta virt. eigenvalues --    0.94819   0.94819   1.05931   1.33683   1.33683
  Beta virt. eigenvalues --    1.46632   1.46632   1.46747   1.69810   2.25706

 Mulliken charges and spin densities:
               1          2
     1  H    0.257060   0.595561
     2  H    0.002128   0.997946
     3  F   -0.259188  -0.593507
 Sum of Mulliken charges =   0.00000   1.00000

 Dipole moment (field-independent basis, Debye):
    X=             -2.3138    Y=              0.0000    Z=              0.0000  Tot=              2.3138
 Quadrupole moment (field-independent basis, Debye-Ang):
   XX=            -10.2059   YY=             -7.4311   ZZ=             -7.4311
   XY=             -0.0000   XZ=              0.0000   YZ=             -0.0000

  Exact polarizability:      24.032      -0.000       2.097       0.000      -0.000       2.097
 Approx polarizability:      37.401      -0.000       1.988       0.000      -0.000       1.988

 ******    1 imaginary frequencies (negative Signs) ******

                      1                      2                      3
                      A                      A                      A
 Frequencies --  -1509.5942                31.9643               654.8221
 Red. masses --      1.0588                 1.0528                 1.0271
 Frc consts  --      1.4216                 0.0006                 0.2595
 IR Inten    --    124.6535                 0.5501                61.1113

                      4
                      A
 Frequencies --    654.8221
 Red. masses --      1.0271
 Frc consts  --      0.2595
 IR Inten    --     61.1113

 - Thermochemistry -
 -------------------
 Temperature   298.150 Kelvin.  Pressure   1.00000 Atm.
 Atom     1 has atomic number  1 and mass   1.00783

 Molecular mass:    21.01405 amu.
 Principal axes and moments of inertia in atomic units:
                           1         2         3
     Eigenvalues --     0.00000 100.52024 100.52024
           X            1.00000  -0.00000   0.00000
           Y            0.00000   1.00000   0.00000
           Z            0.00000   0.00000   1.00000
 This molecule is a prolate symmetric top.
 Rotational symmetry number  1.
 Rotational temperature (Kelvin)      0.86166
 Rotational constant (GHZ):          17.954008
    1 imaginary frequencies ignored.
 Zero-point vibrational energy       8024.6 (Joules/Mol)
                                    1.91793 (Kcal/Mol)
 Warning -- explicit consideration of   1 degrees of freedom as
           vibrations may cause significant error
 Vibrational temperatures:     45.99   942.14   942.14
          (Kelvin)

 Zero-point correction=                           0.003056 (Hartree/Particle)
 Thermal correction to Energy=                    0.006554
 Thermal correction to Enthalpy=                  0.007499
 Thermal correction to Gibbs Free Energy=        -0.019338
 Sum of electronic and zero-point Energies=           -100.801249
 Sum of electronic and thermal Energies=              -100.797751
 Sum of electronic and thermal Enthalpies=            -100.796807
 Sum of electronic and thermal Free Energies=         -100.823644

                     E (Thermal)             CV                S
                      KCal/Mol        Cal/Mol-Kelvin    Cal/Mol-Kelvin
 Total                    4.113              8.788             56.483
 Electronic               0.000              0.000              1.377
 Translational            0.889              2.981             35.068
 Rotational               0.592              1.987             13.605
 Vibrational              2.632              3.820              6.432
 Vibration     1          0.594              1.983              5.704

 Normal termination of Gaussian 16 at Fri Aug 22 16:44:54 2025.
