 Gaussian 16, Revision C.01,
 Gaussian 16:  ES64L-G16RevC.01  3-Jul-2019

 -----------------------------------------
 # sp b3lyp/6-311g** Force nosymm scf=(qc)
 -----------------------------------------

 -------------------
 Title Card Required
 -------------------
 Symbolic Z-matrix:
 Charge =  0 Multiplicity = 2

                          Input orientation:
 ---------------------------------------------------------------------
 Center     Atomic      Atomic             Coordinates (Angstroms)
 Number     Number       Type             X           Y           Z
 ---------------------------------------------------------------------
      1          1           0        0.000000    0.000000    0.000000
      2          1           0       -3.050000    0.000000    0.000000
      3          9           0        2.000000    0.000000    0.000000
 ---------------------------------------------------------------------

 SCF Done:  E(UB3LYP) =  -100.787918077     a.u. after   17 cycles

 Alpha  occ. eigenvalues --  -24.68220  -1.14537  -0.47200  -0.39750  -0.39750
 Alpha  occ. eigenvalues --   -0.33876
 Alpha virt. eigenvalues --   -0.13715   0.22877   0.31700   0.89202   0.94869
 Alpha virt. eigenvalues --    0.94869   1.05920   1.23664   1.23664   1.24309
 Alpha virt. eigenvalues --    1.35366   1.35366   1.60462   2.14294   2.29601

  Beta  occ. eigenvalues --  -24.65848  -1.07908  -0.37899  -0.37413  -0.37413
  Beta virt. eigenvalues --   -0.20764  -0.08039   0.23360   0.36910   0.90789
  Beta virt. eigenvalues --    0.95508   0.95508   1.08316   1.22034   1.22034
  Beta virt. eigenvalues --    1.43933   1.44483   1.44483   1.53859   2.12620

 Mulliken charges and spin densities:
               1          2
     1  H    0.188400  -0.738464
     2  H    0.004975   0.992620
     3  F   -0.193375   0.745843
 Sum of Mulliken charges =   0.00000   1.00000

 Dipole moment (field-independent basis, Debye):
    X=             -1.9842    Y=              0.0000    Z=              0.0000  Tot=              1.9842
 Quadrupole moment (field-independent basis, Debye-Ang):
   XX=             -9.8491   YY=             -7.4986   ZZ=             -7.4986
   XY=              0.0000   XZ=             -0.0000   YZ=             -0.0000

  Exact polarizability:      28.976      -0.000       2.060      -0.000       0.000       2.060
 Approx polarizability:      39.431      -0.000       1.948      -0.000       0.000       1.948

 ******    2 imaginary frequencies (negative Signs) ******

                      1                      2                      3
                      A                      A                      A
 Frequencies --  -1143.2794              -205.9989               481.2333
 Red. masses --      1.0547                 1.0569                 1.0238
 Frc consts  --      0.8122                 0.0264                 0.1397
 IR Inten    --    116.0368                 1.8631                32.0977

                      4
                      A
 Frequencies --    481.2333
 Red. masses --      1.0238
 Frc consts  --      0.1397
 IR Inten    --     32.0977

 - Thermochemistry -
 -------------------
 Temperature   298.150 Kelvin.  Pressure   1.00000 Atm.
 Atom     1 has atomic number  1 and mass   1.00783

 Molecular mass:    21.01405 amu.
 Principal axes and moments of inertia in atomic units:
                           1         2         3
     Eigenvalues --     0.00000  97.60075  97.60075
           X            1.00000  -0.00000   0.00000
           Y            0.00000   1.00000   0.00000
           Z            0.00000   0.00000   1.00000
 This molecule is a prolate symmetric top.
 Rotational symmetry number  1.
 Rotational temperature (Kelvin)      0.88743
 Rotational constant (GHZ):          18.491058
    2 imaginary frequencies ignored.
 Zero-point vibrational energy       5756.8 (Joules/Mol)
                                    1.37592 (Kcal/Mol)
 Warning -- explicit consideration of   2 degrees of freedom as
           vibrations may cause significant error
 Vibrational temperatures:    692.39   692.39
          (Kelvin)

 Zero-point correction=                           0.002193 (Hartree/Particle)
 Thermal correction to Energy=                    0.005030
 Thermal correction to Enthalpy=                  0.005974
 Thermal correction to Gibbs Free Energy=        -0.018450
 Sum of electronic and zero-point Energies=           -100.785725
 Sum of electronic and thermal Energies=              -100.782888
 Sum of electronic and thermal Enthalpies=            -100.781944
 Sum of electronic and thermal Free Energies=         -100.806369

                     E (Thermal)             CV                S
                      KCal/Mol        Cal/Mol-Kelvin    Cal/Mol-Kelvin
 Total                    3.156              7.551             51.406
 Electronic               0.000              0.000              1.377
 Translational            0.889              2.981             35.068
 Rotational               0.592              1.987             13.547
 Vibrational              1.675              2.583              1.413
 Vibration     1          0.838              1.292              0.707
 Vibration     2          0.838              1.292              0.707

 Normal termination of Gaussian 16 at Fri Aug 22 16:57:24 2025.
