 Gaussian 16, Revision C.01,
 Gaussian 16:  ES64L-G16RevC.01  3-Jul-2019

 -----------------------------------------
 # sp b3lyp/6-311g** Force nosymm scf=(qc)
 -----------------------------------------

 -------------------
 Title Card Required
 -------------------
 Symbolic Z-matrix:
 Charge =  0 Multiplicity = 2

                          Input orientation:
 ---------------------------------------------------------------------
 Center     Atomic      Atomic             Coordinates (Angstroms)
 Number     Number       Type             X           Y           Z
 ---------------------------------------------------------------------
      1          1           0        0.000000    0.000000    0.000000
      2          1           0       -1.050000    0.000000    0.000000
      3          9           0        2.800000    0.000000    0.000000
 ---------------------------------------------------------------------

 SCF Done:  E(UB3LYP) =  -100.899214889     a.u. after   56 cycles

 Alpha  occ. eigenvalues --  -24.76824  -1.22620  -0.55803  -0.47105  -0.46951
 Alpha  occ. eigenvalues --   -0.37911
 Alpha virt. eigenvalues --   -0.00314   0.22108   0.38203   0.85680   0.90550
 Alpha virt. eigenvalues --    0.93541   1.06536   1.10130   1.10140   1.33866
 Alpha virt. eigenvalues --    1.63040   1.63050   2.21703   2.36279   2.57002

  Beta  occ. eigenvalues --  -24.73661  -1.13531  -0.43967  -0.43780  -0.37874
  Beta virt. eigenvalues --   -0.26420  -0.00279   0.22138   0.38302   0.92048
  Beta virt. eigenvalues --    0.95133   0.95372   1.10131   1.10139   1.10228
  Beta virt. eigenvalues --    1.33868   1.63038   1.63049   2.21712   2.36285

 Mulliken charges and spin densities:
               1          2
     1  H   -0.003068  -0.000735
     2  H   -0.007865  -0.000786
     3  F    0.010933   1.001521
 Sum of Mulliken charges =   0.00000   1.00000

 Dipole moment (field-independent basis, Debye):
    X=              0.1322    Y=             -0.0000    Z=              0.0000  Tot=              0.1322
 Quadrupole moment (field-independent basis, Debye-Ang):
   XX=             -6.1058   YY=             -6.6526   ZZ=             -7.1676
   XY=             -0.0000   XZ=              0.0000   YZ=             -0.3464

  Exact polarizability:      13.728      -0.000       2.440       0.000      -0.183       2.168
 Approx polarizability:      18.281      -0.000       2.583       0.000      -0.231       2.240

                      1                      2                      3
                      A                      A                      A
 Frequencies --     74.3041              1411.0293              1539.3212
 Red. masses --      1.1085                 1.0078                 1.0103
 Frc consts  --      0.0036                 1.1822                 1.4104
 IR Inten    --      0.7237                 1.7959                 0.0009

                      4
                      A
 Frequencies --   1542.6818
 Red. masses --      1.0103
 Frc consts  --      1.4166
 IR Inten    --      0.0007

 - Thermochemistry -
 -------------------
 Temperature   298.150 Kelvin.  Pressure   1.00000 Atm.
 Atom     1 has atomic number  1 and mass   1.00783

 Molecular mass:    21.01405 amu.
 Principal axes and moments of inertia in atomic units:
                           1         2         3
     Eigenvalues --     0.00000  73.92942  73.92942
           X            1.00000  -0.00000   0.00000
           Y            0.00000   1.00000   0.00000
           Z            0.00000   0.00000   1.00000
 This molecule is a prolate symmetric top.
 Rotational symmetry number  1.
 Rotational temperature (Kelvin)      1.17158
 Rotational constant (GHZ):          24.411678
 Zero-point vibrational energy      27318.7 (Joules/Mol)
                                    6.52934 (Kcal/Mol)
 Warning -- explicit consideration of   1 degrees of freedom as
           vibrations may cause significant error
 Vibrational temperatures:    106.91  2030.16  2214.74  2219.58
          (Kelvin)

 Zero-point correction=                           0.010405 (Hartree/Particle)
 Thermal correction to Energy=                    0.013566
 Thermal correction to Enthalpy=                  0.014510
 Thermal correction to Gibbs Free Energy=        -0.010916
 Sum of electronic and zero-point Energies=           -100.888810
 Sum of electronic and thermal Energies=              -100.885649
 Sum of electronic and thermal Enthalpies=            -100.884705
 Sum of electronic and thermal Free Energies=         -100.910131

                     E (Thermal)             CV                S
                      KCal/Mol        Cal/Mol-Kelvin    Cal/Mol-Kelvin
 Total                    8.513              7.166             53.513
 Electronic               0.000              0.000              1.377
 Translational            0.889              2.981             35.068
 Rotational               0.592              1.987             12.995
 Vibrational              7.032              2.198              4.073
 Vibration     1          0.599              1.966              4.036

 Normal termination of Gaussian 16 at Fri Aug 22 18:39:10 2025.
