 Gaussian 16, Revision C.01,
 Gaussian 16:  ES64L-G16RevC.01  3-Jul-2019

 -----------------------------------------
 # sp b3lyp/6-311g** Force nosymm scf=(qc)
 -----------------------------------------

 -------------------
 Title Card Required
 -------------------
 Symbolic Z-matrix:
 Charge =  0 Multiplicity = 2

                          Input orientation:
 ---------------------------------------------------------------------
 Center     Atomic      Atomic             Coordinates (Angstroms)
 Number     Number       Type             X           Y           Z
 ---------------------------------------------------------------------
      1          1           0        0.000000    0.000000    0.000000
      2          1           0       -3.750000    0.000000    0.000000
      3          9           0        1.700000    0.000000    0.000000
 ---------------------------------------------------------------------

 SCF Done:  E(UB3LYP) =  -100.814467862     a.u. after   10 cycles

 Alpha  occ. eigenvalues --  -24.64251  -1.08868  -0.40974  -0.36015  -0.36015
 Alpha  occ. eigenvalues --   -0.33814
 Alpha virt. eigenvalues --   -0.18802   0.19867   0.27099   0.94854   0.94854
 Alpha virt. eigenvalues --    0.96428   1.07300   1.23670   1.23692   1.23692
 Alpha virt. eigenvalues --    1.27609   1.27609   1.70141   2.12355   2.16763

  Beta  occ. eigenvalues --  -24.64260  -1.08892  -0.40986  -0.36024  -0.36024
  Beta virt. eigenvalues --   -0.18843  -0.06549   0.22538   0.38129   0.94860
  Beta virt. eigenvalues --    0.94860   0.96450   1.07302   1.27681   1.27681
  Beta virt. eigenvalues --    1.45923   1.46317   1.46317   1.70199   2.15469

 Mulliken charges and spin densities:
               1          2
     1  H    0.326680   0.004207
     2  H    0.001341   0.998603
     3  F   -0.328022  -0.002810
 Sum of Mulliken charges =  -0.00000   1.00000

 Dipole moment (field-independent basis, Debye):
    X=             -2.7713    Y=              0.0000    Z=              0.0000  Tot=              2.7713
 Quadrupole moment (field-independent basis, Debye-Ang):
   XX=            -10.6767   YY=             -7.4182   ZZ=             -7.4182
   XY=              0.0000   XZ=              0.0000   YZ=              0.0000

  Exact polarizability:      19.619       0.000       2.103      -0.000      -0.000       2.103
 Approx polarizability:      46.395       0.000       2.015       0.000      -0.000       2.015

 ******    2 imaginary frequencies (negative Signs) ******

                      1                      2                      3
                      A                      A                      A
 Frequencies --  -1182.6443               -68.9993               869.8054
 Red. masses --      1.0578                 1.0538                 1.0296
 Frc consts  --      0.8717                 0.0030                 0.4590
 IR Inten    --     32.9324                 0.1672               102.9394

                      4
                      A
 Frequencies --    869.8054
 Red. masses --      1.0296
 Frc consts  --      0.4590
 IR Inten    --    102.9394

 - Thermochemistry -
 -------------------
 Temperature   298.150 Kelvin.  Pressure   1.00000 Atm.
 Atom     1 has atomic number  1 and mass   1.00783

 Molecular mass:    21.01405 amu.
 Principal axes and moments of inertia in atomic units:
                           1         2         3
     Eigenvalues --     0.00000 108.47659 108.47659
           X            1.00000  -0.00000   0.00000
           Y            0.00000   1.00000   0.00000
           Z            0.00000   0.00000   1.00000
 This molecule is a prolate symmetric top.
 Rotational symmetry number  1.
 Rotational temperature (Kelvin)      0.79846
 Rotational constant (GHZ):          16.637149
    2 imaginary frequencies ignored.
 Zero-point vibrational energy      10405.2 (Joules/Mol)
                                    2.48690 (Kcal/Mol)
 Vibrational temperatures:   1251.46  1251.46
          (Kelvin)

 Zero-point correction=                           0.003963 (Hartree/Particle)
 Thermal correction to Energy=                    0.006445
 Thermal correction to Enthalpy=                  0.007389
 Thermal correction to Gibbs Free Energy=        -0.016614
 Sum of electronic and zero-point Energies=           -100.810505
 Sum of electronic and thermal Energies=              -100.808023
 Sum of electronic and thermal Enthalpies=            -100.807079
 Sum of electronic and thermal Free Energies=         -100.831081

                     E (Thermal)             CV                S
                      KCal/Mol        Cal/Mol-Kelvin    Cal/Mol-Kelvin
 Total                    4.044              6.053             50.517
 Electronic               0.000              0.000              1.377
 Translational            0.889              2.981             35.068
 Rotational               0.592              1.987             13.757
 Vibrational              2.563              1.085              0.315

 Normal termination of Gaussian 16 at Fri Aug 22 16:38:57 2025.
