 Gaussian 16, Revision C.01,
 Gaussian 16:  ES64L-G16RevC.01  3-Jul-2019

 -----------------------------------------
 # sp b3lyp/6-311g** Force nosymm scf=(qc)
 -----------------------------------------

 -------------------
 Title Card Required
 -------------------
 Symbolic Z-matrix:
 Charge =  0 Multiplicity = 2

                          Input orientation:
 ---------------------------------------------------------------------
 Center     Atomic      Atomic             Coordinates (Angstroms)
 Number     Number       Type             X           Y           Z
 ---------------------------------------------------------------------
      1          1           0        0.000000    0.000000    0.000000
      2          1           0       -3.500000    0.000000    0.000000
      3          9           0        2.250000    0.000000    0.000000
 ---------------------------------------------------------------------

 SCF Done:  E(UB3LYP) =  -100.774107454     a.u. after   17 cycles

 Alpha  occ. eigenvalues --  -24.67380  -1.08814  -0.38648  -0.38648  -0.36542
 Alpha  occ. eigenvalues --   -0.33043
 Alpha virt. eigenvalues --   -0.22175   0.20737   0.27985   0.92124   0.95568
 Alpha virt. eigenvalues --    0.95568   1.08272   1.21538   1.21538   1.24392
 Alpha virt. eigenvalues --    1.24392   1.24460   1.39575   2.11011   2.15541

  Beta  occ. eigenvalues --  -24.70045  -1.16346  -0.49112  -0.41294  -0.41294
  Beta virt. eigenvalues --   -0.12236  -0.04574   0.31502   0.40218   0.88647
  Beta virt. eigenvalues --    0.94414   0.94414   1.06191   1.38099   1.38099
  Beta virt. eigenvalues --    1.47945   1.47945   1.47979   1.50277   2.33192

 Mulliken charges and spin densities:
               1          2
     1  H    0.134203   0.840955
     2  H    0.001107   0.998916
     3  F   -0.135309  -0.839872
 Sum of Mulliken charges =  -0.00000   1.00000

 Dipole moment (field-independent basis, Debye):
    X=             -1.5483    Y=             -0.0000    Z=             -0.0000  Tot=              1.5483
 Quadrupole moment (field-independent basis, Debye-Ang):
   XX=             -9.7927   YY=             -7.5250   ZZ=             -7.5250
   XY=             -0.0000   XZ=             -0.0000   YZ=              0.0000

  Exact polarizability:      29.304      -0.000       2.037      -0.000       0.000       2.037
 Approx polarizability:      40.140      -0.000       1.927      -0.000      -0.000       1.927

 ******    1 imaginary frequencies (negative Signs) ******

                      1                      2                      3
                      A                      A                      A
 Frequencies --   -800.3091                76.6799               332.1710
 Red. masses --      1.0596                 1.0519                 1.0241
 Frc consts  --      0.3999                 0.0036                 0.0666
 IR Inten    --     94.4866                 0.1709                17.0935

                      4
                      A
 Frequencies --    332.1710
 Red. masses --      1.0241
 Frc consts  --      0.0666
 IR Inten    --     17.0935

 - Thermochemistry -
 -------------------
 Temperature   298.150 Kelvin.  Pressure   1.00000 Atm.
 Atom     1 has atomic number  1 and mass   1.00783

 Molecular mass:    21.01405 amu.
 Principal axes and moments of inertia in atomic units:
                           1         2         3
     Eigenvalues --     0.00000 126.16536 126.16536
           X            1.00000  -0.00000   0.00000
           Y            0.00000   1.00000   0.00000
           Z            0.00000   0.00000   1.00000
 This molecule is a prolate symmetric top.
 Rotational symmetry number  1.
 Rotational temperature (Kelvin)      0.68651
 Rotational constant (GHZ):          14.304570
    1 imaginary frequencies ignored.
 Zero-point vibrational energy       4432.3 (Joules/Mol)
                                    1.05934 (Kcal/Mol)
 Warning -- explicit consideration of   3 degrees of freedom as
           vibrations may cause significant error
 Vibrational temperatures:    110.33   477.92   477.92
          (Kelvin)

 Zero-point correction=                           0.001688 (Hartree/Particle)
 Thermal correction to Energy=                    0.005592
 Thermal correction to Enthalpy=                  0.006536
 Thermal correction to Gibbs Free Energy=        -0.020535
 Sum of electronic and zero-point Energies=           -100.772419
 Sum of electronic and thermal Energies=              -100.768516
 Sum of electronic and thermal Enthalpies=            -100.767571
 Sum of electronic and thermal Free Energies=         -100.794642

                     E (Thermal)             CV                S
                      KCal/Mol        Cal/Mol-Kelvin    Cal/Mol-Kelvin
 Total                    3.509             10.155             56.975
 Electronic               0.000              0.000              1.377
 Translational            0.889              2.981             35.068
 Rotational               0.592              1.987             14.057
 Vibrational              2.028              5.187              6.473
 Vibration     1          0.599              1.965              3.974
 Vibration     2          0.714              1.611              1.250
 Vibration     3          0.714              1.611              1.250

 Normal termination of Gaussian 16 at Fri Aug 22 17:17:49 2025.
