 Gaussian 16, Revision C.01,
 Gaussian 16:  ES64L-G16RevC.01  3-Jul-2019

 -----------------------------------------
 # sp b3lyp/6-311g** Force nosymm scf=(qc)
 -----------------------------------------

 -------------------
 Title Card Required
 -------------------
 Symbolic Z-matrix:
 Charge =  0 Multiplicity = 2

                          Input orientation:
 ---------------------------------------------------------------------
 Center     Atomic      Atomic             Coordinates (Angstroms)
 Number     Number       Type             X           Y           Z
 ---------------------------------------------------------------------
      1          1           0        0.000000    0.000000    0.000000
      2          1           0       -3.000000    0.000000    0.000000
      3          9           0        2.900000    0.000000    0.000000
 ---------------------------------------------------------------------

 SCF Done:  E(UB3LYP) =  -100.762683075     a.u. after   22 cycles

 Alpha  occ. eigenvalues --  -24.73724  -1.19809  -0.52841  -0.44371  -0.44371
 Alpha  occ. eigenvalues --   -0.32795
 Alpha virt. eigenvalues --   -0.09341   0.24578   0.34971   0.89762   0.92492
 Alpha virt. eigenvalues --    0.92492   1.04539   1.24744   1.24744   1.25571
 Alpha virt. eigenvalues --    1.42122   1.42122   1.42769   2.15417   2.38426

  Beta  occ. eigenvalues --  -24.70723  -1.11216  -0.41369  -0.41369  -0.34017
  Beta virt. eigenvalues --   -0.24571  -0.07677   0.24702   0.36687   0.93944
  Beta virt. eigenvalues --    0.93944   0.98318   1.08239   1.23342   1.23342
  Beta virt. eigenvalues --    1.24622   1.44602   1.44629   1.44629   2.15707

 Mulliken charges and spin densities:
               1          2
     1  H    0.042782  -0.943278
     2  H    0.001880   0.992630
     3  F   -0.044663   0.950647
 Sum of Mulliken charges =  -0.00000   1.00000

 Dipole moment (field-independent basis, Debye):
    X=             -0.6916    Y=              0.0000    Z=             -0.0000  Tot=              0.6916
 Quadrupole moment (field-independent basis, Debye-Ang):
   XX=             -8.3942   YY=             -7.6170   ZZ=             -7.6170
   XY=              0.0000   XZ=             -0.0000   YZ=              0.0000

  Exact polarizability:      35.529       0.000       2.021      -0.000       0.000       2.021
 Approx polarizability:      36.384       0.000       1.923      -0.000      -0.000       1.923

 ******    2 imaginary frequencies (negative Signs) ******

                      1                      2                      3
                      A                      A                      A
 Frequencies --   -473.5078              -194.6536               175.8743
 Red. masses --      1.0299                 1.0830                 1.0184
 Frc consts  --      0.1361                 0.0242                 0.0186
 IR Inten    --     42.1658                 5.2872                 1.6404

                      4
                      A
 Frequencies --    175.8743
 Red. masses --      1.0184
 Frc consts  --      0.0186
 IR Inten    --      1.6404

 - Thermochemistry -
 -------------------
 Temperature   298.150 Kelvin.  Pressure   1.00000 Atm.
 Atom     1 has atomic number  1 and mass   1.00783

 Molecular mass:    21.01405 amu.
 Principal axes and moments of inertia in atomic units:
                           1         2         3
     Eigenvalues --     0.00000 142.18247 142.18247
           X            1.00000  -0.00000   0.00000
           Y            0.00000   1.00000   0.00000
           Z            0.00000   0.00000   1.00000
 This molecule is a prolate symmetric top.
 Rotational symmetry number  1.
 Rotational temperature (Kelvin)      0.60917
 Rotational constant (GHZ):          12.693134
    2 imaginary frequencies ignored.
 Zero-point vibrational energy       2103.9 (Joules/Mol)
                                    0.50285 (Kcal/Mol)
 Warning -- explicit consideration of   2 degrees of freedom as
           vibrations may cause significant error
 Vibrational temperatures:    253.04   253.04
          (Kelvin)

 Zero-point correction=                           0.000801 (Hartree/Particle)
 Thermal correction to Energy=                    0.004361
 Thermal correction to Enthalpy=                  0.005305
 Thermal correction to Gibbs Free Energy=        -0.021057
 Sum of electronic and zero-point Energies=           -100.761882
 Sum of electronic and thermal Energies=              -100.758322
 Sum of electronic and thermal Enthalpies=            -100.757378
 Sum of electronic and thermal Free Energies=         -100.783740

                     E (Thermal)             CV                S
                      KCal/Mol        Cal/Mol-Kelvin    Cal/Mol-Kelvin
 Total                    2.736              8.712             55.483
 Electronic               0.000              0.000              1.377
 Translational            0.889              2.981             35.068
 Rotational               0.592              1.987             14.294
 Vibrational              1.255              3.744              4.744
 Vibration     1          0.628              1.872              2.372
 Vibration     2          0.628              1.872              2.372

 Normal termination of Gaussian 16 at Fri Aug 22 19:04:16 2025.
