 Gaussian 16, Revision C.01,
 Gaussian 16:  ES64L-G16RevC.01  3-Jul-2019

 -----------------------------------------
 # sp b3lyp/6-311g** Force nosymm scf=(qc)
 -----------------------------------------

 -------------------
 Title Card Required
 -------------------
 Symbolic Z-matrix:
 Charge =  0 Multiplicity = 2

                          Input orientation:
 ---------------------------------------------------------------------
 Center     Atomic      Atomic             Coordinates (Angstroms)
 Number     Number       Type             X           Y           Z
 ---------------------------------------------------------------------
      1          1           0        0.000000    0.000000    0.000000
      2          1           0       -1.450000    0.000000    0.000000
      3          9           0        0.950000    0.000000    0.000000
 ---------------------------------------------------------------------

 SCF Done:  E(UB3LYP) =  -100.970219312     a.u. after    6 cycles

 Alpha  occ. eigenvalues --  -24.63568  -1.17265  -0.54108  -0.38838  -0.38838
 Alpha  occ. eigenvalues --   -0.36978
 Alpha virt. eigenvalues --    0.09724   0.20804   0.37135   0.94115   0.94115
 Alpha virt. eigenvalues --    0.98394   1.14835   1.14835   1.22139   1.43230
 Alpha virt. eigenvalues --    1.43230   1.53422   2.05624   2.28025   2.56441

  Beta  occ. eigenvalues --  -24.63285  -1.16554  -0.52218  -0.38592  -0.38592
  Beta virt. eigenvalues --   -0.15644   0.11844   0.26559   0.41095   0.94368
  Beta virt. eigenvalues --    0.94368   0.98991   1.25209   1.25209   1.30318
  Beta virt. eigenvalues --    1.48677   1.48677   1.56959   2.18955   2.30419

 Mulliken charges and spin densities:
               1          2
     1  H    0.282413   0.001738
     2  H    0.030227   0.927007
     3  F   -0.312640   0.071255
 Sum of Mulliken charges =   0.00000   1.00000

 Dipole moment (field-independent basis, Debye):
    X=             -2.1812    Y=              0.0000    Z=             -0.0000  Tot=              2.1812
 Quadrupole moment (field-independent basis, Debye-Ang):
   XX=             -7.5643   YY=             -6.7833   ZZ=             -6.7833
   XY=             -0.0000   XZ=             -0.0000   YZ=              0.0000

  Exact polarizability:      11.934       0.000       2.535      -0.000      -0.000       2.535
 Approx polarizability:      12.760      -0.000       2.536      -0.000      -0.000       2.536

                      1                      2                      3
                      A                      A                      A
 Frequencies --    450.6260               450.6260               529.1399
 Red. masses --      1.0238                 1.0238                 1.0495
 Frc consts  --      0.1225                 0.1225                 0.1731
 IR Inten    --    104.2972               104.2972                 0.3351

                      4
                      A
 Frequencies --   3482.9128
 Red. masses --      1.0621
 Frc consts  --      7.5909
 IR Inten    --    191.0557

 - Thermochemistry -
 -------------------
 Temperature   298.150 Kelvin.  Pressure   1.00000 Atm.
 Atom     1 has atomic number  1 and mass   1.00783

 Molecular mass:    21.01405 amu.
 Principal axes and moments of inertia in atomic units:
                           1         2         3
     Eigenvalues --     0.00000  22.04131  22.04131
           X            1.00000  -0.00000   0.00000
           Y            0.00000   1.00000   0.00000
           Z            0.00000   0.00000   1.00000
 This molecule is a prolate symmetric top.
 Rotational symmetry number  1.
 Rotational temperature (Kelvin)      3.92962
 Rotational constant (GHZ):          81.879931
 Zero-point vibrational energy      29388.1 (Joules/Mol)
                                    7.02392 (Kcal/Mol)
 Warning -- explicit consideration of   3 degrees of freedom as
           vibrations may cause significant error
 Vibrational temperatures:    648.35   648.35   761.31  5011.13
          (Kelvin)

 Zero-point correction=                           0.011193 (Hartree/Particle)
 Thermal correction to Energy=                    0.014284
 Thermal correction to Enthalpy=                  0.015228
 Thermal correction to Gibbs Free Energy=        -0.008154
 Sum of electronic and zero-point Energies=           -100.959026
 Sum of electronic and thermal Energies=              -100.955936
 Sum of electronic and thermal Enthalpies=            -100.954991
 Sum of electronic and thermal Free Energies=         -100.978374

                     E (Thermal)             CV                S
                      KCal/Mol        Cal/Mol-Kelvin    Cal/Mol-Kelvin
 Total                    8.963              8.873             49.212
 Electronic               0.000              0.000              1.377
 Translational            0.889              2.981             35.068
 Rotational               0.592              1.987             10.590
 Vibrational              7.482              3.905              2.177
 Vibration     1          0.809              1.360              0.794
 Vibration     2          0.809              1.360              0.794
 Vibration     3          0.884              1.186              0.589

 Normal termination of Gaussian 16 at Fri Aug 22 15:57:47 2025.
