 Gaussian 16, Revision C.01,
 Gaussian 16:  ES64L-G16RevC.01  3-Jul-2019

 -----------------------------------------
 # sp b3lyp/6-311g** Force nosymm scf=(qc)
 -----------------------------------------

 -------------------
 Title Card Required
 -------------------
 Symbolic Z-matrix:
 Charge =  0 Multiplicity = 2

                          Input orientation:
 ---------------------------------------------------------------------
 Center     Atomic      Atomic             Coordinates (Angstroms)
 Number     Number       Type             X           Y           Z
 ---------------------------------------------------------------------
      1          1           0        0.000000    0.000000    0.000000
      2          1           0       -1.700000    0.000000    0.000000
      3          9           0        2.650000    0.000000    0.000000
 ---------------------------------------------------------------------

 SCF Done:  E(UB3LYP) =  -100.798829241     a.u. after   21 cycles

 Alpha  occ. eigenvalues --  -24.73311  -1.19423  -0.52446  -0.44028  -0.44028
 Alpha  occ. eigenvalues --   -0.34993
 Alpha virt. eigenvalues --   -0.11981   0.24542   0.30817   0.89930   0.92705
 Alpha virt. eigenvalues --    0.92705   1.03787   1.10994   1.21843   1.21843
 Alpha virt. eigenvalues --    1.36275   1.36275   1.65755   2.14927   2.41214

  Beta  occ. eigenvalues --  -24.70356  -1.10975  -0.41075  -0.41075  -0.34744
  Beta virt. eigenvalues --   -0.24602  -0.11436   0.25923   0.30583   0.94130
  Beta virt. eigenvalues --    0.94130   0.97226   1.06072   1.14156   1.22210
  Beta virt. eigenvalues --    1.22210   1.36841   1.36841   1.66363   2.15962

 Mulliken charges and spin densities:
               1          2
     1  H    0.023575  -0.585442
     2  H    0.031942   0.650369
     3  F   -0.055516   0.935073
 Sum of Mulliken charges =  -0.00000   1.00000

 Dipole moment (field-independent basis, Debye):
    X=             -1.0096    Y=             -0.0000    Z=             -0.0000  Tot=              1.0096
 Quadrupole moment (field-independent basis, Debye-Ang):
   XX=             -7.2597   YY=             -7.7085   ZZ=             -7.7085
   XY=             -0.0000   XZ=             -0.0000   YZ=             -0.0000

  Exact polarizability:      63.212      -0.000       2.018      -0.000      -0.000       2.018
 Approx polarizability:      76.365      -0.000       1.971      -0.000       0.000       1.971

 ******    2 imaginary frequencies (negative Signs) ******

                      1                      2                      3
                      A                      A                      A
 Frequencies --  -1917.1225              -314.6953               879.5280
 Red. masses --      1.0081                 1.1081                 1.0135
 Frc consts  --      2.1831                 0.0647                 0.4619
 IR Inten    --    209.1348                42.3838                 0.0802

                      4
                      A
 Frequencies --    879.5280
 Red. masses --      1.0135
 Frc consts  --      0.4619
 IR Inten    --      0.0802

 - Thermochemistry -
 -------------------
 Temperature   298.150 Kelvin.  Pressure   1.00000 Atm.
 Atom     1 has atomic number  1 and mass   1.00783

 Molecular mass:    21.01405 amu.
 Principal axes and moments of inertia in atomic units:
                           1         2         3
     Eigenvalues --     0.00000  84.91854  84.91854
           X            1.00000  -0.00000   0.00000
           Y            0.00000   1.00000   0.00000
           Z            0.00000   0.00000   1.00000
 This molecule is a prolate symmetric top.
 Rotational symmetry number  1.
 Rotational temperature (Kelvin)      1.01996
 Rotational constant (GHZ):          21.252618
    2 imaginary frequencies ignored.
 Zero-point vibrational energy      10521.5 (Joules/Mol)
                                    2.51470 (Kcal/Mol)
 Vibrational temperatures:   1265.44  1265.44
          (Kelvin)

 Zero-point correction=                           0.004007 (Hartree/Particle)
 Thermal correction to Energy=                    0.006485
 Thermal correction to Enthalpy=                  0.007429
 Thermal correction to Gibbs Free Energy=        -0.016337
 Sum of electronic and zero-point Energies=           -100.794822
 Sum of electronic and thermal Energies=              -100.792345
 Sum of electronic and thermal Enthalpies=            -100.791401
 Sum of electronic and thermal Free Energies=         -100.815166

                     E (Thermal)             CV                S
                      KCal/Mol        Cal/Mol-Kelvin    Cal/Mol-Kelvin
 Total                    4.069              6.025             50.019
 Electronic               0.000              0.000              1.377
 Translational            0.889              2.981             35.068
 Rotational               0.592              1.987             13.270
 Vibrational              2.588              1.057              0.303

 Normal termination of Gaussian 16 at Fri Aug 22 18:13:59 2025.
