 Gaussian 16, Revision C.01,
 Gaussian 16:  ES64L-G16RevC.01  3-Jul-2019

 -----------------------------------------
 # sp b3lyp/6-311g** Force nosymm scf=(qc)
 -----------------------------------------

 -------------------
 Title Card Required
 -------------------
 Symbolic Z-matrix:
 Charge =  0 Multiplicity = 2

                          Input orientation:
 ---------------------------------------------------------------------
 Center     Atomic      Atomic             Coordinates (Angstroms)
 Number     Number       Type             X           Y           Z
 ---------------------------------------------------------------------
      1          1           0        0.000000    0.000000    0.000000
      2          1           0       -3.300000    0.000000    0.000000
      3          9           0        3.500000    0.000000    0.000000
 ---------------------------------------------------------------------

 SCF Done:  E(UB3LYP) =  -100.759365680     a.u. after   28 cycles

 Alpha  occ. eigenvalues --  -24.75390  -1.21352  -0.54512  -0.45769  -0.45769
 Alpha  occ. eigenvalues --   -0.32374
 Alpha virt. eigenvalues --   -0.07379   0.24504   0.36686   0.87606   0.91479
 Alpha virt. eigenvalues --    0.91479   1.01816   1.25139   1.25139   1.25439
 Alpha virt. eigenvalues --    1.44662   1.44804   1.44804   2.15304   2.40565

  Beta  occ. eigenvalues --  -24.72276  -1.12405  -0.42648  -0.42648  -0.32842
  Beta virt. eigenvalues --   -0.25486  -0.06836   0.24279   0.37584   0.92968
  Beta virt. eigenvalues --    0.92968   0.96745   1.05828   1.24601   1.24601
  Beta virt. eigenvalues --    1.24876   1.45449   1.45678   1.45678   2.15543

 Mulliken charges and spin densities:
               1          2
     1  H    0.011175  -0.983867
     2  H    0.000306   0.996515
     3  F   -0.011480   0.987353
 Sum of Mulliken charges =  -0.00000   1.00000

 Dipole moment (field-independent basis, Debye):
    X=             -0.2115    Y=             -0.0000    Z=              0.0000  Tot=              0.2115
 Quadrupole moment (field-independent basis, Debye-Ang):
   XX=             -7.3719   YY=             -7.6254   ZZ=             -7.6254
   XY=             -0.0000   XZ=              0.0000   YZ=             -0.0000

  Exact polarizability:      24.390      -0.000       2.033       0.000       0.000       2.033
 Approx polarizability:      19.206      -0.000       1.933       0.000       0.000       1.933

 ******    2 imaginary frequencies (negative Signs) ******

                      1                      2                      3
                      A                      A                      A
 Frequencies --   -276.5512              -116.7641                89.9653
 Red. masses --      1.0187                 1.0956                 1.0172
 Frc consts  --      0.0459                 0.0088                 0.0049
 IR Inten    --      9.2926                 2.3305                 0.1077

                      4
                      A
 Frequencies --     89.9653
 Red. masses --      1.0172
 Frc consts  --      0.0049
 IR Inten    --      0.1077

 - Thermochemistry -
 -------------------
 Temperature   298.150 Kelvin.  Pressure   1.00000 Atm.
 Atom     1 has atomic number  1 and mass   1.00783

 Molecular mass:    21.01405 amu.
 Principal axes and moments of inertia in atomic units:
                           1         2         3
     Eigenvalues --     0.00000 192.19414 192.19414
           X            1.00000  -0.00000   0.00000
           Y            0.00000   1.00000   0.00000
           Z            0.00000   0.00000   1.00000
 This molecule is a prolate symmetric top.
 Rotational symmetry number  1.
 Rotational temperature (Kelvin)      0.45066
 Rotational constant (GHZ):           9.390199
    2 imaginary frequencies ignored.
 Zero-point vibrational energy       1076.2 (Joules/Mol)
                                    0.25722 (Kcal/Mol)
 Warning -- explicit consideration of   2 degrees of freedom as
           vibrations may cause significant error
 Vibrational temperatures:    129.44   129.44
          (Kelvin)

 Zero-point correction=                           0.000410 (Hartree/Particle)
 Thermal correction to Energy=                    0.004278
 Thermal correction to Enthalpy=                  0.005223
 Thermal correction to Gibbs Free Energy=        -0.022649
 Sum of electronic and zero-point Energies=           -100.758956
 Sum of electronic and thermal Energies=              -100.755087
 Sum of electronic and thermal Enthalpies=            -100.754143
 Sum of electronic and thermal Free Energies=         -100.782015

                     E (Thermal)             CV                S
                      KCal/Mol        Cal/Mol-Kelvin    Cal/Mol-Kelvin
 Total                    2.685              8.881             58.660
 Electronic               0.000              0.000              1.377
 Translational            0.889              2.981             35.068
 Rotational               0.592              1.987             14.893
 Vibrational              1.204              3.913              7.322
 Vibration     1          0.602              1.956              3.661
 Vibration     2          0.602              1.956              3.661

 Normal termination of Gaussian 16 at Fri Aug 22 22:11:01 2025.
