 Gaussian 16, Revision C.01,
 Gaussian 16:  ES64L-G16RevC.01  3-Jul-2019

 -----------------------------------------
 # sp b3lyp/6-311g** Force nosymm scf=(qc)
 -----------------------------------------

 -------------------
 Title Card Required
 -------------------
 Symbolic Z-matrix:
 Charge =  0 Multiplicity = 2

                          Input orientation:
 ---------------------------------------------------------------------
 Center     Atomic      Atomic             Coordinates (Angstroms)
 Number     Number       Type             X           Y           Z
 ---------------------------------------------------------------------
      1          1           0        0.000000    0.000000    0.000000
      2          1           0       -2.300000    0.000000    0.000000
      3          9           0        3.050000    0.000000    0.000000
 ---------------------------------------------------------------------

 SCF Done:  E(UB3LYP) =  -100.767342092     a.u. after   24 cycles

 Alpha  occ. eigenvalues --  -24.74376  -1.20410  -0.53493  -0.44915  -0.44915
 Alpha  occ. eigenvalues --   -0.33237
 Alpha virt. eigenvalues --   -0.10942   0.25542   0.33060   0.89378   0.92102
 Alpha virt. eigenvalues --    0.92102   1.03660   1.24526   1.24526   1.25156
 Alpha virt. eigenvalues --    1.38843   1.38843   1.42862   2.14326   2.35581

  Beta  occ. eigenvalues --  -24.71331  -1.11680  -0.41867  -0.41867  -0.33711
  Beta virt. eigenvalues --   -0.24966  -0.10012   0.25735   0.34054   0.93569
  Beta virt. eigenvalues --    0.93569   0.98206   1.07598   1.23928   1.23928
  Beta virt. eigenvalues --    1.24467   1.40338   1.40338   1.44257   2.15466

 Mulliken charges and spin densities:
               1          2
     1  H    0.023203  -0.911077
     2  H    0.008121   0.946196
     3  F   -0.031324   0.964881
 Sum of Mulliken charges =  -0.00000   1.00000

 Dipole moment (field-independent basis, Debye):
    X=             -0.5792    Y=              0.0000    Z=             -0.0000  Tot=              0.5792
 Quadrupole moment (field-independent basis, Debye-Ang):
   XX=             -7.6567   YY=             -7.6741   ZZ=             -7.6741
   XY=              0.0000   XZ=             -0.0000   YZ=              0.0000

  Exact polarizability:      49.154       0.000       2.011      -0.000       0.000       2.011
 Approx polarizability:      42.302       0.000       1.923      -0.000      -0.000       1.923

 ******    2 imaginary frequencies (negative Signs) ******

                      1                      2                      3
                      A                      A                      A
 Frequencies --   -907.5260              -230.0165               345.1376
 Red. masses --      1.0084                 1.1078                 1.0149
 Frc consts  --      0.4893                 0.0345                 0.0712
 IR Inten    --     20.8107                21.9608                 0.3531

                      4
                      A
 Frequencies --    345.1376
 Red. masses --      1.0149
 Frc consts  --      0.0712
 IR Inten    --      0.3531

 - Thermochemistry -
 -------------------
 Temperature   298.150 Kelvin.  Pressure   1.00000 Atm.
 Atom     1 has atomic number  1 and mass   1.00783

 Molecular mass:    21.01405 amu.
 Principal axes and moments of inertia in atomic units:
                           1         2         3
     Eigenvalues --     0.00000 124.31325 124.31325
           X            1.00000  -0.00000   0.00000
           Y            0.00000   1.00000   0.00000
           Z            0.00000   0.00000   1.00000
 This molecule is a prolate symmetric top.
 Rotational symmetry number  1.
 Rotational temperature (Kelvin)      0.69674
 Rotational constant (GHZ):          14.517689
    2 imaginary frequencies ignored.
 Zero-point vibrational energy       4128.8 (Joules/Mol)
                                    0.98680 (Kcal/Mol)
 Warning -- explicit consideration of   2 degrees of freedom as
           vibrations may cause significant error
 Vibrational temperatures:    496.58   496.58
          (Kelvin)

 Zero-point correction=                           0.001573 (Hartree/Particle)
 Thermal correction to Energy=                    0.004666
 Thermal correction to Enthalpy=                  0.005611
 Thermal correction to Gibbs Free Energy=        -0.019500
 Sum of electronic and zero-point Energies=           -100.765770
 Sum of electronic and thermal Energies=              -100.762676
 Sum of electronic and thermal Enthalpies=            -100.761731
 Sum of electronic and thermal Free Energies=         -100.786842

                     E (Thermal)             CV                S
                      KCal/Mol        Cal/Mol-Kelvin    Cal/Mol-Kelvin
 Total                    2.928              8.138             52.850
 Electronic               0.000              0.000              1.377
 Translational            0.889              2.981             35.068
 Rotational               0.592              1.987             14.028
 Vibrational              1.447              3.170              2.377
 Vibration     1          0.724              1.585              1.188
 Vibration     2          0.724              1.585              1.188

 Normal termination of Gaussian 16 at Fri Aug 22 19:43:59 2025.
