 Gaussian 16, Revision C.01,
 Gaussian 16:  ES64L-G16RevC.01  3-Jul-2019

 -----------------------------------------
 # sp b3lyp/6-311g** Force nosymm scf=(qc)
 -----------------------------------------

 -------------------
 Title Card Required
 -------------------
 Symbolic Z-matrix:
 Charge =  0 Multiplicity = 2

                          Input orientation:
 ---------------------------------------------------------------------
 Center     Atomic      Atomic             Coordinates (Angstroms)
 Number     Number       Type             X           Y           Z
 ---------------------------------------------------------------------
      1          1           0        0.000000    0.000000    0.000000
      2          1           0       -1.500000    0.000000    0.000000
      3          9           0        0.700000    0.000000    0.000000
 ---------------------------------------------------------------------

 SCF Done:  E(UB3LYP) =  -100.869190425     a.u. after    6 cycles

 Alpha  occ. eigenvalues --  -24.63197  -1.28453  -0.59443  -0.41810  -0.41810
 Alpha  occ. eigenvalues --   -0.35998
 Alpha virt. eigenvalues --    0.13346   0.21679   0.52774   0.93144   0.93144
 Alpha virt. eigenvalues --    0.95216   1.17423   1.17423   1.34595   1.48347
 Alpha virt. eigenvalues --    1.48347   1.58547   2.01000   2.17940   3.12715

  Beta  occ. eigenvalues --  -24.63070  -1.28091  -0.58701  -0.41712  -0.41712
  Beta virt. eigenvalues --   -0.12460   0.14618   0.29725   0.56951   0.93303
  Beta virt. eigenvalues --    0.93303   0.95504   1.30766   1.30766   1.40039
  Beta virt. eigenvalues --    1.52833   1.52833   1.67176   2.01346   2.39895

 Mulliken charges and spin densities:
               1          2
     1  H    0.245699   0.013970
     2  H    0.013513   0.966256
     3  F   -0.259212   0.019774
 Sum of Mulliken charges =   0.00000   1.00000

 Dipole moment (field-independent basis, Debye):
    X=             -1.6421    Y=             -0.0000    Z=             -0.0000  Tot=              1.6421
 Quadrupole moment (field-independent basis, Debye-Ang):
   XX=             -7.0780   YY=             -6.5724   ZZ=             -6.5724
   XY=             -0.0000   XZ=             -0.0000   YZ=             -0.0000

  Exact polarizability:       7.339       0.000       2.537      -0.000       0.000       2.537
 Approx polarizability:       7.150      -0.000       2.549       0.000       0.000       2.549

 ******    2 imaginary frequencies (negative Signs) ******

                      1                      2                      3
                      A                      A                      A
 Frequencies --  -3475.3045             -3475.3045               824.4647
 Red. masses --      1.0292                 1.0292                 1.0535
 Frc consts  --      7.3236                 7.3236                 0.4219
 IR Inten    --    151.4916               151.4916                 3.4578

                      4
                      A
 Frequencies --   9052.1332
 Red. masses --      1.0581
 Frc consts  --     51.0816
 IR Inten    --    145.6557

 - Thermochemistry -
 -------------------
 Temperature   298.150 Kelvin.  Pressure   1.00000 Atm.
 Atom     1 has atomic number  1 and mass   1.00783

 Molecular mass:    21.01405 amu.
 Principal axes and moments of inertia in atomic units:
                           1         2         3
     Eigenvalues --     0.00000  17.73109  17.73109
           X            1.00000  -0.00000   0.00000
           Y            0.00000   1.00000   0.00000
           Z            0.00000   0.00000   1.00000
 This molecule is a prolate symmetric top.
 Rotational symmetry number  1.
 Rotational temperature (Kelvin)      4.88486
 Rotational constant (GHZ):         101.783989
    2 imaginary frequencies ignored.
 Zero-point vibrational energy      59075.2 (Joules/Mol)
                                   14.11931 (Kcal/Mol)
 Vibrational temperatures:   1186.22 13024.00
          (Kelvin)

 Zero-point correction=                           0.022501 (Hartree/Particle)
 Thermal correction to Energy=                    0.024933
 Thermal correction to Enthalpy=                  0.025877
 Thermal correction to Gibbs Free Energy=         0.003645
 Sum of electronic and zero-point Energies=           -100.846690
 Sum of electronic and thermal Energies=              -100.844258
 Sum of electronic and thermal Enthalpies=            -100.843314
 Sum of electronic and thermal Free Energies=         -100.865546

                     E (Thermal)             CV                S
                      KCal/Mol        Cal/Mol-Kelvin    Cal/Mol-Kelvin
 Total                   15.645              5.579             46.791
 Electronic               0.000              0.000              1.377
 Translational            0.889              2.981             35.068
 Rotational               0.592              1.987             10.158
 Vibrational             14.164              0.611              0.188

 Normal termination of Gaussian 16 at Fri Aug 22 15:46:04 2025.
