 Gaussian 16, Revision C.01,
 Gaussian 16:  ES64L-G16RevC.01  3-Jul-2019

 -----------------------------------------
 # sp b3lyp/6-311g** Force nosymm scf=(qc)
 -----------------------------------------

 -------------------
 Title Card Required
 -------------------
 Symbolic Z-matrix:
 Charge =  0 Multiplicity = 2

                          Input orientation:
 ---------------------------------------------------------------------
 Center     Atomic      Atomic             Coordinates (Angstroms)
 Number     Number       Type             X           Y           Z
 ---------------------------------------------------------------------
      1          1           0        0.000000    0.000000    0.000000
      2          1           0       -1.050000    0.000000    0.000000
      3          9           0        1.650000    0.000000    0.000000
 ---------------------------------------------------------------------

 SCF Done:  E(UB3LYP) =  -100.911322788     a.u. after   11 cycles

 Alpha  occ. eigenvalues --  -24.70180  -1.16863  -0.51992  -0.41683  -0.41683
 Alpha  occ. eigenvalues --   -0.40920
 Alpha virt. eigenvalues --    0.00783   0.20495   0.34357   0.90732   0.90732
 Alpha virt. eigenvalues --    0.96703   1.07861   1.07861   1.11476   1.59112
 Alpha virt. eigenvalues --    1.60389   1.60389   2.19277   2.29934   2.54856

  Beta  occ. eigenvalues --  -24.67672  -1.09908  -0.42443  -0.39226  -0.39226
  Beta virt. eigenvalues --   -0.23988   0.03012   0.21878   0.35590   0.91717
  Beta virt. eigenvalues --    0.91717   1.03279   1.10333   1.10333   1.14235
  Beta virt. eigenvalues --    1.61820   1.61820   1.62668   2.21460   2.33360

 Mulliken charges and spin densities:
               1          2
     1  H    0.111252  -0.108565
     2  H    0.054310   0.334525
     3  F   -0.165563   0.774040
 Sum of Mulliken charges =   0.00000   1.00000

 Dipole moment (field-independent basis, Debye):
    X=             -1.5860    Y=              0.0000    Z=              0.0000  Tot=              1.5860
 Quadrupole moment (field-independent basis, Debye-Ang):
   XX=             -7.2024   YY=             -7.1289   ZZ=             -7.1289
   XY=              0.0000   XZ=              0.0000   YZ=              0.0000

  Exact polarizability:      31.870       0.000       2.300       0.000       0.000       2.300
 Approx polarizability:      46.419      -0.000       2.294      -0.000      -0.000       2.294

 ******    1 imaginary frequencies (negative Signs) ******

                      1                      2                      3
                      A                      A                      A
 Frequencies --  -1509.4918               801.1696              1341.6466
 Red. masses --      1.0441                 1.0677                 1.0134
 Frc consts  --      1.4017                 0.4038                 1.0747
 IR Inten    --    994.9701               152.0972                 1.7094

                      4
                      A
 Frequencies --   1341.6466
 Red. masses --      1.0134
 Frc consts  --      1.0747
 IR Inten    --      1.7094

 - Thermochemistry -
 -------------------
 Temperature   298.150 Kelvin.  Pressure   1.00000 Atm.
 Atom     1 has atomic number  1 and mass   1.00783

 Molecular mass:    21.01405 amu.
 Principal axes and moments of inertia in atomic units:
                           1         2         3
     Eigenvalues --     0.00000  32.76892  32.76892
           X            1.00000  -0.00000   0.00000
           Y            0.00000   1.00000   0.00000
           Z            0.00000   0.00000   1.00000
 This molecule is a prolate symmetric top.
 Rotational symmetry number  1.
 Rotational temperature (Kelvin)      2.64317
 Rotational constant (GHZ):          55.074787
    1 imaginary frequencies ignored.
 Zero-point vibrational energy      20841.7 (Joules/Mol)
                                    4.98129 (Kcal/Mol)
 Vibrational temperatures:   1152.70  1930.33  1930.33
          (Kelvin)

 Zero-point correction=                           0.007938 (Hartree/Particle)
 Thermal correction to Energy=                    0.010396
 Thermal correction to Enthalpy=                  0.011340
 Thermal correction to Gibbs Free Energy=        -0.011502
 Sum of electronic and zero-point Energies=           -100.903385
 Sum of electronic and thermal Energies=              -100.900927
 Sum of electronic and thermal Enthalpies=            -100.899983
 Sum of electronic and thermal Free Energies=         -100.922825

                     E (Thermal)             CV                S
                      KCal/Mol        Cal/Mol-Kelvin    Cal/Mol-Kelvin
 Total                    6.523              5.875             48.076
 Electronic               0.000              0.000              1.377
 Translational            0.889              2.981             35.068
 Rotational               0.592              1.987             11.378
 Vibrational              5.042              0.907              0.252

 Normal termination of Gaussian 16 at Fri Aug 22 16:33:24 2025.
