 Gaussian 16, Revision C.01,
 Gaussian 16:  ES64L-G16RevC.01  3-Jul-2019

 -----------------------------------------
 # sp b3lyp/6-311g** Force nosymm scf=(qc)
 -----------------------------------------

 -------------------
 Title Card Required
 -------------------
 Symbolic Z-matrix:
 Charge =  0 Multiplicity = 2

                          Input orientation:
 ---------------------------------------------------------------------
 Center     Atomic      Atomic             Coordinates (Angstroms)
 Number     Number       Type             X           Y           Z
 ---------------------------------------------------------------------
      1          1           0        0.000000    0.000000    0.000000
      2          1           0       -3.900000    0.000000    0.000000
      3          9           0        2.600000    0.000000    0.000000
 ---------------------------------------------------------------------

 SCF Done:  E(UB3LYP) =  -100.765353338     a.u. after   19 cycles

 Alpha  occ. eigenvalues --  -24.72291  -1.18475  -0.51401  -0.43174  -0.43174
 Alpha  occ. eigenvalues --   -0.32689
 Alpha virt. eigenvalues --   -0.09574   0.23550   0.35517   0.89832   0.93315
 Alpha virt. eigenvalues --    0.93315   1.05938   1.24811   1.24811   1.24834
 Alpha virt. eigenvalues --    1.41330   1.41330   1.44369   2.14172   2.38345

  Beta  occ. eigenvalues --  -24.69401  -1.10233  -0.40289  -0.40289  -0.34962
  Beta virt. eigenvalues --   -0.23694  -0.06112   0.23768   0.38111   0.94715
  Beta virt. eigenvalues --    0.94715   0.96970   1.08597   1.22400   1.22400
  Beta virt. eigenvalues --    1.27227   1.46451   1.46620   1.46620   2.12839

 Mulliken charges and spin densities:
               1          2
     1  H    0.076683  -0.913335
     2  H    0.000280   0.999232
     3  F   -0.076963   0.914103
 Sum of Mulliken charges =  -0.00000   1.00000

 Dipole moment (field-independent basis, Debye):
    X=             -1.0261    Y=             -0.0000    Z=              0.0000  Tot=              1.0261
 Quadrupole moment (field-independent basis, Debye-Ang):
   XX=             -9.1612   YY=             -7.5777   ZZ=             -7.5777
   XY=             -0.0000   XZ=              0.0000   YZ=              0.0000

  Exact polarizability:      30.586      -0.000       2.025       0.000       0.000       2.025
 Approx polarizability:      37.763      -0.000       1.921       0.000      -0.000       1.921

 ******    2 imaginary frequencies (negative Signs) ******

                      1                      2                      3
                      A                      A                      A
 Frequencies --   -550.4347               -76.6378               210.8540
 Red. masses --      1.0563                 1.0553                 1.0235
 Frc consts  --      0.1886                 0.0037                 0.0268
 IR Inten    --     71.8725                 0.0539                 5.7386

                      4
                      A
 Frequencies --    210.8540
 Red. masses --      1.0235
 Frc consts  --      0.0268
 IR Inten    --      5.7386

 - Thermochemistry -
 -------------------
 Temperature   298.150 Kelvin.  Pressure   1.00000 Atm.
 Atom     1 has atomic number  1 and mass   1.00783

 Molecular mass:    21.01405 amu.
 Principal axes and moments of inertia in atomic units:
                           1         2         3
     Eigenvalues --     0.00000 162.09383 162.09383
           X            1.00000  -0.00000   0.00000
           Y            0.00000   1.00000   0.00000
           Z            0.00000   0.00000   1.00000
 This molecule is a prolate symmetric top.
 Rotational symmetry number  1.
 Rotational temperature (Kelvin)      0.53434
 Rotational constant (GHZ):          11.133929
    2 imaginary frequencies ignored.
 Zero-point vibrational energy       2522.4 (Joules/Mol)
                                    0.60286 (Kcal/Mol)
 Warning -- explicit consideration of   2 degrees of freedom as
           vibrations may cause significant error
 Vibrational temperatures:    303.37   303.37
          (Kelvin)

 Zero-point correction=                           0.000961 (Hartree/Particle)
 Thermal correction to Energy=                    0.004409
 Thermal correction to Enthalpy=                  0.005353
 Thermal correction to Gibbs Free Energy=        -0.020814
 Sum of electronic and zero-point Energies=           -100.764393
 Sum of electronic and thermal Energies=              -100.760944
 Sum of electronic and thermal Enthalpies=            -100.760000
 Sum of electronic and thermal Free Energies=         -100.786167

                     E (Thermal)             CV                S
                      KCal/Mol        Cal/Mol-Kelvin    Cal/Mol-Kelvin
 Total                    2.767              8.617             55.073
 Electronic               0.000              0.000              1.377
 Translational            0.889              2.981             35.068
 Rotational               0.592              1.987             14.555
 Vibrational              1.285              3.649              4.073
 Vibration     1          0.643              1.824              2.036
 Vibration     2          0.643              1.824              2.036

 Normal termination of Gaussian 16 at Fri Aug 22 18:05:34 2025.
