 Gaussian 16, Revision C.01,
 Gaussian 16:  ES64L-G16RevC.01  3-Jul-2019

 -----------------------------------------
 # sp b3lyp/6-311g** Force nosymm scf=(qc)
 -----------------------------------------

 -------------------
 Title Card Required
 -------------------
 Symbolic Z-matrix:
 Charge =  0 Multiplicity = 2

                          Input orientation:
 ---------------------------------------------------------------------
 Center     Atomic      Atomic             Coordinates (Angstroms)
 Number     Number       Type             X           Y           Z
 ---------------------------------------------------------------------
      1          1           0        0.000000    0.000000    0.000000
      2          1           0       -1.400000    0.000000    0.000000
      3          9           0        3.200000    0.000000    0.000000
 ---------------------------------------------------------------------

 SCF Done:  E(UB3LYP) =  -100.836878178     a.u. after   72 cycles

 Alpha  occ. eigenvalues --  -24.76562  -1.22409  -0.55603  -0.46824  -0.46755
 Alpha  occ. eigenvalues --   -0.34286
 Alpha virt. eigenvalues --   -0.08008   0.24332   0.31464   0.85827   0.90701
 Alpha virt. eigenvalues --    0.92785   1.02250   1.10806   1.17995   1.17999
 Alpha virt. eigenvalues --    1.45192   1.45197   1.90533   2.25874   2.50516

  Beta  occ. eigenvalues --  -24.73403  -1.13327  -0.43660  -0.43588  -0.34280
  Beta virt. eigenvalues --   -0.26236  -0.08000   0.24348   0.31516   0.92200
  Beta virt. eigenvalues --    0.94350   0.95287   1.06256   1.10820   1.17994
  Beta virt. eigenvalues --    1.17998   1.45192   1.45196   1.90541   2.25876

 Mulliken charges and spin densities:
               1          2
     1  H   -0.000232   0.000709
     2  H   -0.005016  -0.001380
     3  F    0.005248   1.000671
 Sum of Mulliken charges =   0.00000   1.00000

 Dipole moment (field-independent basis, Debye):
    X=              0.0820    Y=              0.0000    Z=             -0.0000  Tot=              0.0820
 Quadrupole moment (field-independent basis, Debye-Ang):
   XX=             -6.1884   YY=             -7.6594   ZZ=             -6.8509
   XY=             -0.0000   XZ=              0.0000   YZ=             -0.1523

  Exact polarizability:      20.779       0.000       2.074       0.000      -0.082       2.508
 Approx polarizability:      36.323      -0.000       2.084       0.000      -0.102       2.628

 ******    1 imaginary frequencies (negative Signs) ******

                      1                      2                      3
                      A                      A                      A
 Frequencies --  -1166.5437                32.9014              1307.8603
 Red. masses --      1.0078                 1.1085                 1.0110
 Frc consts  --      0.8080                 0.0007                 1.0189
 IR Inten    --      0.5820                 0.4007                 0.0039

                      4
                      A
 Frequencies --   1309.5227
 Red. masses --      1.0110
 Frc consts  --      1.0215
 IR Inten    --      0.0033

 - Thermochemistry -
 -------------------
 Temperature   298.150 Kelvin.  Pressure   1.00000 Atm.
 Atom     1 has atomic number  1 and mass   1.00783

 Molecular mass:    21.01405 amu.
 Principal axes and moments of inertia in atomic units:
                           1         2         3
     Eigenvalues --     0.00000 102.50746 102.50746
           X            1.00000  -0.00000   0.00000
           Y            0.00000   1.00000   0.00000
           Z            0.00000   0.00000   1.00000
 This molecule is a prolate symmetric top.
 Rotational symmetry number  1.
 Rotational temperature (Kelvin)      0.84495
 Rotational constant (GHZ):          17.605949
    1 imaginary frequencies ignored.
 Zero-point vibrational energy      15852.2 (Joules/Mol)
                                    3.78877 (Kcal/Mol)
 Warning -- explicit consideration of   1 degrees of freedom as
           vibrations may cause significant error
 Vibrational temperatures:     47.34  1881.72  1884.11
          (Kelvin)

 Zero-point correction=                           0.006038 (Hartree/Particle)
 Thermal correction to Energy=                    0.009291
 Thermal correction to Enthalpy=                  0.010235
 Thermal correction to Gibbs Free Energy=        -0.016272
 Sum of electronic and zero-point Energies=           -100.830840
 Sum of electronic and thermal Energies=              -100.827587
 Sum of electronic and thermal Enthalpies=            -100.826643
 Sum of electronic and thermal Free Energies=         -100.853150

                     E (Thermal)             CV                S
                      KCal/Mol        Cal/Mol-Kelvin    Cal/Mol-Kelvin
 Total                    5.830              7.239             55.789
 Electronic               0.000              0.000              1.377
 Translational            0.889              2.981             35.068
 Rotational               0.592              1.987             13.644
 Vibrational              4.349              2.271              5.699
 Vibration     1          0.594              1.983              5.646

 Normal termination of Gaussian 16 at Fri Aug 22 20:21:10 2025.
