 Gaussian 16, Revision C.01,
 Gaussian 16:  ES64L-G16RevC.01  3-Jul-2019

 -----------------------------------------
 # sp b3lyp/6-311g** Force nosymm scf=(qc)
 -----------------------------------------

 -------------------
 Title Card Required
 -------------------
 Symbolic Z-matrix:
 Charge =  0 Multiplicity = 2

                          Input orientation:
 ---------------------------------------------------------------------
 Center     Atomic      Atomic             Coordinates (Angstroms)
 Number     Number       Type             X           Y           Z
 ---------------------------------------------------------------------
      1          1           0        0.000000    0.000000    0.000000
      2          1           0       -3.950000    0.000000    0.000000
      3          9           0        3.950000    0.000000    0.000000
 ---------------------------------------------------------------------

 SCF Done:  E(UB3LYP) =  -100.758407648     a.u. after   46 cycles

 Alpha  occ. eigenvalues --  -24.75852  -1.21781  -0.54976  -0.46159  -0.46159
 Alpha  occ. eigenvalues --   -0.32229
 Alpha virt. eigenvalues --   -0.05990   0.24194   0.37880   0.86620   0.91189
 Alpha virt. eigenvalues --    0.91189   1.01119   1.25265   1.25265   1.25291
 Alpha virt. eigenvalues --    1.46494   1.46494   1.46615   2.14620   2.42359

  Beta  occ. eigenvalues --  -24.72708  -1.12741  -0.43007  -0.43007  -0.32448
  Beta virt. eigenvalues --   -0.25716  -0.05835   0.24020   0.38223   0.92687
  Beta virt. eigenvalues --    0.92687   0.95983   1.05239   1.25030   1.25030
  Beta virt. eigenvalues --    1.25041   1.46680   1.46775   1.46775   2.14595

 Mulliken charges and spin densities:
               1          2
     1  H    0.002879  -0.996070
     2  H    0.000021   0.999287
     3  F   -0.002900   0.996783
 Sum of Mulliken charges =  -0.00000   1.00000

 Dipole moment (field-independent basis, Debye):
    X=             -0.0598    Y=              0.0000    Z=              0.0000  Tot=              0.0598
 Quadrupole moment (field-independent basis, Debye-Ang):
   XX=             -6.9552   YY=             -7.6192   ZZ=             -7.6192
   XY=              0.0000   XZ=              0.0000   YZ=              0.0000

  Exact polarizability:      11.104       0.000       2.035       0.000       0.000       2.035
 Approx polarizability:       8.224       0.000       1.937       0.000       0.000       1.937

 ******    2 imaginary frequencies (negative Signs) ******

                      1                      2                      3
                      A                      A                      A
 Frequencies --   -139.2844               -59.4547                43.8340
 Red. masses --      1.0242                 1.0894                 1.0179
 Frc consts  --      0.0117                 0.0023                 0.0012
 IR Inten    --      1.3189                 0.2088                 0.0081

                      4
                      A
 Frequencies --     43.8340
 Red. masses --      1.0179
 Frc consts  --      0.0012
 IR Inten    --      0.0081

 - Thermochemistry -
 -------------------
 Temperature   298.150 Kelvin.  Pressure   1.00000 Atm.
 Atom     1 has atomic number  1 and mass   1.00783

 Molecular mass:    21.01405 amu.
 Principal axes and moments of inertia in atomic units:
                           1         2         3
     Eigenvalues --     0.00000 256.52976 256.52976
           X            1.00000  -0.00000   0.00000
           Y            0.00000   1.00000   0.00000
           Z            0.00000   0.00000   1.00000
 This molecule is a prolate symmetric top.
 Rotational symmetry number  1.
 Rotational temperature (Kelvin)      0.33764
 Rotational constant (GHZ):           7.035212
    2 imaginary frequencies ignored.
 Zero-point vibrational energy        524.4 (Joules/Mol)
                                    0.12533 (Kcal/Mol)
 Warning -- explicit consideration of   2 degrees of freedom as
           vibrations may cause significant error
 Vibrational temperatures:     63.07    63.07
          (Kelvin)

 Zero-point correction=                           0.000200 (Hartree/Particle)
 Thermal correction to Energy=                    0.004256
 Thermal correction to Enthalpy=                  0.005200
 Thermal correction to Gibbs Free Energy=        -0.024291
 Sum of electronic and zero-point Energies=           -100.758208
 Sum of electronic and thermal Energies=              -100.754152
 Sum of electronic and thermal Enthalpies=            -100.753208
 Sum of electronic and thermal Free Energies=         -100.782698

                     E (Thermal)             CV                S
                      KCal/Mol        Cal/Mol-Kelvin    Cal/Mol-Kelvin
 Total                    2.671              8.928             62.068
 Electronic               0.000              0.000              1.377
 Translational            0.889              2.981             35.068
 Rotational               0.592              1.987             15.467
 Vibrational              1.189              3.960             10.156
 Vibration     1          0.595              1.980              5.078
 Vibration     2          0.595              1.980              5.078

 Normal termination of Gaussian 16 at Sat Aug 23 01:42:46 2025.
