 Gaussian 16, Revision C.01,
 Gaussian 16:  ES64L-G16RevC.01  3-Jul-2019

 -----------------------------------------
 # sp b3lyp/6-311g** Force nosymm scf=(qc)
 -----------------------------------------

 -------------------
 Title Card Required
 -------------------
 Symbolic Z-matrix:
 Charge =  0 Multiplicity = 2

                          Input orientation:
 ---------------------------------------------------------------------
 Center     Atomic      Atomic             Coordinates (Angstroms)
 Number     Number       Type             X           Y           Z
 ---------------------------------------------------------------------
      1          1           0        0.000000    0.000000    0.000000
      2          1           0       -2.300000    0.000000    0.000000
      3          9           0        1.300000    0.000000    0.000000
 ---------------------------------------------------------------------

 SCF Done:  E(UB3LYP) =  -100.902777415     a.u. after    7 cycles

 Alpha  occ. eigenvalues --  -24.63971  -1.10859  -0.46046  -0.36743  -0.36743
 Alpha  occ. eigenvalues --   -0.35961
 Alpha virt. eigenvalues --   -0.07583   0.24145   0.27327   0.93337   0.93337
 Alpha virt. eigenvalues --    1.02249   1.16631   1.21508   1.21508   1.31983
 Alpha virt. eigenvalues --    1.34272   1.34272   1.71944   2.11948   2.26516

  Beta  occ. eigenvalues --  -24.63856  -1.10565  -0.45555  -0.36637  -0.36637
  Beta virt. eigenvalues --   -0.13752  -0.04053   0.27119   0.35331   0.93322
  Beta virt. eigenvalues --    0.93322   1.02526   1.21659   1.33923   1.33923
  Beta virt. eigenvalues --    1.41713   1.41713   1.46092   1.72164   2.24289

 Mulliken charges and spin densities:
               1          2
     1  H    0.344234  -0.011255
     2  H    0.019030   0.975973
     3  F   -0.363264   0.035282
 Sum of Mulliken charges =  -0.00000   1.00000

 Dipole moment (field-independent basis, Debye):
    X=             -2.6272    Y=             -0.0000    Z=              0.0000  Tot=              2.6272
 Quadrupole moment (field-independent basis, Debye-Ang):
   XX=             -8.6865   YY=             -7.1882   ZZ=             -7.1882
   XY=             -0.0000   XZ=              0.0000   YZ=             -0.0000

  Exact polarizability:      16.628       0.000       2.310      -0.000       0.000       2.310
 Approx polarizability:      22.458      -0.000       2.259      -0.000       0.000       2.259

 ******    2 imaginary frequencies (negative Signs) ******

                      1                      2                      3
                      A                      A                      A
 Frequencies --   -832.9272              -168.8304              1130.0904
 Red. masses --      1.0351                 1.0773                 1.0261
 Frc consts  --      0.4231                 0.0181                 0.7721
 IR Inten    --    166.2806                 0.3309               112.0947

                      4
                      A
 Frequencies --   1130.0904
 Red. masses --      1.0261
 Frc consts  --      0.7721
 IR Inten    --    112.0947

 - Thermochemistry -
 -------------------
 Temperature   298.150 Kelvin.  Pressure   1.00000 Atm.
 Atom     1 has atomic number  1 and mass   1.00783

 Molecular mass:    21.01405 amu.
 Principal axes and moments of inertia in atomic units:
                           1         2         3
     Eigenvalues --     0.00000  48.58118  48.58118
           X            1.00000  -0.00000   0.00000
           Y            0.00000   1.00000   0.00000
           Z            0.00000   0.00000   1.00000
 This molecule is a prolate symmetric top.
 Rotational symmetry number  1.
 Rotational temperature (Kelvin)      1.78287
 Rotational constant (GHZ):          37.148976
    2 imaginary frequencies ignored.
 Zero-point vibrational energy      13518.9 (Joules/Mol)
                                    3.23109 (Kcal/Mol)
 Vibrational temperatures:   1625.95  1625.95
          (Kelvin)

 Zero-point correction=                           0.005149 (Hartree/Particle)
 Thermal correction to Energy=                    0.007554
 Thermal correction to Enthalpy=                  0.008498
 Thermal correction to Gibbs Free Energy=        -0.014649
 Sum of electronic and zero-point Energies=           -100.897628
 Sum of electronic and thermal Energies=              -100.895224
 Sum of electronic and thermal Enthalpies=            -100.894279
 Sum of electronic and thermal Free Energies=         -100.917426

                     E (Thermal)             CV                S
                      KCal/Mol        Cal/Mol-Kelvin    Cal/Mol-Kelvin
 Total                    4.740              5.478             48.716
 Electronic               0.000              0.000              1.377
 Translational            0.889              2.981             35.068
 Rotational               0.592              1.987             12.160
 Vibrational              3.259              0.510              0.110

 Normal termination of Gaussian 16 at Fri Aug 22 16:15:16 2025.
