 Gaussian 16, Revision C.01,
 Gaussian 16:  ES64L-G16RevC.01  3-Jul-2019

 -----------------------------------------
 # sp b3lyp/6-311g** Force nosymm scf=(qc)
 -----------------------------------------

 -------------------
 Title Card Required
 -------------------
 Symbolic Z-matrix:
 Charge =  0 Multiplicity = 2

                          Input orientation:
 ---------------------------------------------------------------------
 Center     Atomic      Atomic             Coordinates (Angstroms)
 Number     Number       Type             X           Y           Z
 ---------------------------------------------------------------------
      1          1           0        0.000000    0.000000    0.000000
      2          1           0       -1.850000    0.000000    0.000000
      3          9           0        1.100000    0.000000    0.000000
 ---------------------------------------------------------------------

 SCF Done:  E(UB3LYP) =  -100.950441073     a.u. after    6 cycles

 Alpha  occ. eigenvalues --  -24.63653  -1.13448  -0.49846  -0.37591  -0.37591
 Alpha  occ. eigenvalues --   -0.36769
 Alpha virt. eigenvalues --    0.01434   0.23177   0.30649   0.94024   0.94024
 Alpha virt. eigenvalues --    0.99794   1.11483   1.19985   1.19985   1.36443
 Alpha virt. eigenvalues --    1.36443   1.50663   1.79039   2.19263   2.34557

  Beta  occ. eigenvalues --  -24.63490  -1.13042  -0.48901  -0.37446  -0.37446
  Beta virt. eigenvalues --   -0.14540   0.04319   0.29610   0.33734   0.94044
  Beta virt. eigenvalues --    0.94044   1.00331   1.20583   1.33555   1.33555
  Beta virt. eigenvalues --    1.40994   1.40994   1.56688   1.83494   2.32160

 Mulliken charges and spin densities:
               1          2
     1  H    0.318487  -0.002586
     2  H    0.027709   0.956317
     3  F   -0.346195   0.046269
 Sum of Mulliken charges =   0.00000   1.00000

 Dipole moment (field-independent basis, Debye):
    X=             -2.4477    Y=              0.0000    Z=             -0.0000  Tot=              2.4477
 Quadrupole moment (field-independent basis, Debye-Ang):
   XX=             -7.9383   YY=             -6.9861   ZZ=             -6.9861
   XY=              0.0000   XZ=             -0.0000   YZ=             -0.0000

  Exact polarizability:      13.763       0.000       2.437      -0.000       0.000       2.437
 Approx polarizability:      15.869       0.000       2.413       0.000       0.000       2.413

 ******    1 imaginary frequencies (negative Signs) ******

                      1                      2                      3
                      A                      A                      A
 Frequencies --   -266.2256              1124.7828              1124.7828
 Red. masses --      1.0444                 1.0253                 1.0253
 Frc consts  --      0.0436                 0.7642                 0.7642
 IR Inten    --     11.8130               112.0708               112.0708

                      4
                      A
 Frequencies --   1772.6639
 Red. masses --      1.0674
 Frc consts  --      1.9762
 IR Inten    --    214.2153

 - Thermochemistry -
 -------------------
 Temperature   298.150 Kelvin.  Pressure   1.00000 Atm.
 Atom     1 has atomic number  1 and mass   1.00783

 Molecular mass:    21.01405 amu.
 Principal axes and moments of inertia in atomic units:
                           1         2         3
     Eigenvalues --     0.00000  32.84399  32.84399
           X            1.00000  -0.00000   0.00000
           Y            0.00000   1.00000   0.00000
           Z            0.00000   0.00000   1.00000
 This molecule is a prolate symmetric top.
 Rotational symmetry number  1.
 Rotational temperature (Kelvin)      2.63713
 Rotational constant (GHZ):          54.948907
    1 imaginary frequencies ignored.
 Zero-point vibrational energy      24058.3 (Joules/Mol)
                                    5.75007 (Kcal/Mol)
 Vibrational temperatures:   1618.31  1618.31  2550.47
          (Kelvin)

 Zero-point correction=                           0.009163 (Hartree/Particle)
 Thermal correction to Energy=                    0.011571
 Thermal correction to Enthalpy=                  0.012515
 Thermal correction to Gibbs Free Energy=        -0.010265
 Sum of electronic and zero-point Energies=           -100.941278
 Sum of electronic and thermal Energies=              -100.938871
 Sum of electronic and thermal Enthalpies=            -100.937926
 Sum of electronic and thermal Free Energies=         -100.960706

                     E (Thermal)             CV                S
                      KCal/Mol        Cal/Mol-Kelvin    Cal/Mol-Kelvin
 Total                    7.261              5.515             47.944
 Electronic               0.000              0.000              1.377
 Translational            0.889              2.981             35.068
 Rotational               0.592              1.987             11.383
 Vibrational              5.779              0.547              0.116

 Normal termination of Gaussian 16 at Fri Aug 22 16:05:13 2025.
