 Gaussian 16, Revision C.01,
 Gaussian 16:  ES64L-G16RevC.01  3-Jul-2019

 -----------------------------------------
 # sp b3lyp/6-311g** Force nosymm scf=(qc)
 -----------------------------------------

 -------------------
 Title Card Required
 -------------------
 Symbolic Z-matrix:
 Charge =  0 Multiplicity = 2

                          Input orientation:
 ---------------------------------------------------------------------
 Center     Atomic      Atomic             Coordinates (Angstroms)
 Number     Number       Type             X           Y           Z
 ---------------------------------------------------------------------
      1          1           0        0.000000    0.000000    0.000000
      2          1           0       -2.100000    0.000000    0.000000
      3          9           0        3.250000    0.000000    0.000000
 ---------------------------------------------------------------------

 SCF Done:  E(UB3LYP) =  -100.771407348     a.u. after   24 cycles

 Alpha  occ. eigenvalues --  -24.75049  -1.21035  -0.54169  -0.45484  -0.45484
 Alpha  occ. eigenvalues --   -0.33233
 Alpha virt. eigenvalues --   -0.11115   0.25737   0.32491   0.88561   0.91683
 Alpha virt. eigenvalues --    0.91683   1.02614   1.20512   1.24688   1.24688
 Alpha virt. eigenvalues --    1.38030   1.38030   1.47346   2.13142   2.35913

  Beta  occ. eigenvalues --  -24.71961  -1.12169  -0.42390  -0.42390  -0.33413
  Beta virt. eigenvalues --   -0.25350  -0.10624   0.25776   0.33151   0.93163
  Beta virt. eigenvalues --    0.93163   0.97561   1.06600   1.20351   1.24442
  Beta virt. eigenvalues --    1.24442   1.38775   1.38775   1.47940   2.14094

 Mulliken charges and spin densities:
               1          2
     1  H    0.010242  -0.876902
     2  H    0.008354   0.898050
     3  F   -0.018596   0.978852
 Sum of Mulliken charges =   0.00000   1.00000

 Dipole moment (field-independent basis, Debye):
    X=             -0.3934    Y=              0.0000    Z=              0.0000  Tot=              0.3934
 Quadrupole moment (field-independent basis, Debye-Ang):
   XX=             -7.0758   YY=             -7.7066   ZZ=             -7.7066
   XY=             -0.0000   XZ=             -0.0000   YZ=             -0.0000

  Exact polarizability:      50.504      -0.000       2.010      -0.000       0.000       2.010
 Approx polarizability:      42.150      -0.000       1.930      -0.000       0.000       1.930

 ******    2 imaginary frequencies (negative Signs) ******

                      1                      2                      3
                      A                      A                      A
 Frequencies --  -1187.1530              -184.6031               467.5420
 Red. masses --      1.0079                 1.1084                 1.0135
 Frc consts  --      0.8369                 0.0223                 0.1305
 IR Inten    --     18.1058                15.6351                 0.0401

                      4
                      A
 Frequencies --    467.5420
 Red. masses --      1.0135
 Frc consts  --      0.1305
 IR Inten    --      0.0401

 - Thermochemistry -
 -------------------
 Temperature   298.150 Kelvin.  Pressure   1.00000 Atm.
 Atom     1 has atomic number  1 and mass   1.00783

 Molecular mass:    21.01405 amu.
 Principal axes and moments of inertia in atomic units:
                           1         2         3
     Eigenvalues --     0.00000 128.26114 128.26114
           X            1.00000  -0.00000   0.00000
           Y            0.00000   1.00000   0.00000
           Z            0.00000   0.00000   1.00000
 This molecule is a prolate symmetric top.
 Rotational symmetry number  1.
 Rotational temperature (Kelvin)      0.67529
 Rotational constant (GHZ):          14.070834
    2 imaginary frequencies ignored.
 Zero-point vibrational energy       5593.0 (Joules/Mol)
                                    1.33677 (Kcal/Mol)
 Warning -- explicit consideration of   2 degrees of freedom as
           vibrations may cause significant error
 Vibrational temperatures:    672.69   672.69
          (Kelvin)

 Zero-point correction=                           0.002130 (Hartree/Particle)
 Thermal correction to Energy=                    0.004989
 Thermal correction to Enthalpy=                  0.005933
 Thermal correction to Gibbs Free Energy=        -0.018785
 Sum of electronic and zero-point Energies=           -100.769277
 Sum of electronic and thermal Energies=              -100.766418
 Sum of electronic and thermal Enthalpies=            -100.765474
 Sum of electronic and thermal Free Energies=         -100.790192

                     E (Thermal)             CV                S
                      KCal/Mol        Cal/Mol-Kelvin    Cal/Mol-Kelvin
 Total                    3.131              7.612             52.024
 Electronic               0.000              0.000              1.377
 Translational            0.889              2.981             35.068
 Rotational               0.592              1.987             14.090
 Vibrational              1.650              2.644              1.489
 Vibration     1          0.825              1.322              0.744
 Vibration     2          0.825              1.322              0.744

 Normal termination of Gaussian 16 at Fri Aug 22 20:34:32 2025.
