 Gaussian 16, Revision C.01,
 Gaussian 16:  ES64L-G16RevC.01  3-Jul-2019

 -----------------------------------------
 # sp b3lyp/6-311g** Force nosymm scf=(qc)
 -----------------------------------------

 -------------------
 Title Card Required
 -------------------
 Symbolic Z-matrix:
 Charge =  0 Multiplicity = 2

                          Input orientation:
 ---------------------------------------------------------------------
 Center     Atomic      Atomic             Coordinates (Angstroms)
 Number     Number       Type             X           Y           Z
 ---------------------------------------------------------------------
      1          1           0        0.000000    0.000000    0.000000
      2          1           0       -3.000000    0.000000    0.000000
      3          9           0        0.600000    0.000000    0.000000
 ---------------------------------------------------------------------

 SCF Done:  E(UB3LYP) =  -100.687991369     a.u. after    6 cycles

 Alpha  occ. eigenvalues --  -24.62721  -1.34714  -0.61020  -0.42967  -0.42967
 Alpha  occ. eigenvalues --   -0.33726
 Alpha virt. eigenvalues --    0.07742   0.25547   0.58212   0.92137   0.92137
 Alpha virt. eigenvalues --    0.93153   1.22415   1.23799   1.23799   1.37759
 Alpha virt. eigenvalues --    1.50279   1.50279   1.95656   2.15054   3.36514

  Beta  occ. eigenvalues --  -24.62720  -1.34708  -0.61017  -0.42967  -0.42967
  Beta virt. eigenvalues --   -0.05948   0.08710   0.39329   0.58312   0.92133
  Beta virt. eigenvalues --    0.92133   0.93165   1.33765   1.50281   1.50281
  Beta virt. eigenvalues --    1.50726   1.50726   1.52553   1.95482   2.44868

 Mulliken charges and spin densities:
               1          2
     1  H    0.236475   0.001224
     2  H    0.001866   0.997571
     3  F   -0.238341   0.001204
 Sum of Mulliken charges =   0.00000   1.00000

 Dipole moment (field-independent basis, Debye):
    X=             -1.4571    Y=             -0.0000    Z=             -0.0000  Tot=              1.4571
 Quadrupole moment (field-independent basis, Debye-Ang):
   XX=             -6.9006   YY=             -6.5513   ZZ=             -6.5513
   XY=              0.0000   XZ=             -0.0000   YZ=              0.0000

  Exact polarizability:       3.990      -0.000       2.447      -0.000      -0.000       2.447
 Approx polarizability:       4.145      -0.000       2.428       0.000       0.000       2.428

 ******    2 imaginary frequencies (negative Signs) ******

                      1                      2                      3
                      A                      A                      A
 Frequencies --  -5867.1127             -5867.1127                 7.2563
 Red. masses --      1.0420                 1.0420                 1.0532
 Frc consts  --     21.1326                21.1326                 0.0000
 IR Inten    --    235.2028               235.2028                 0.0826

                      4
                      A
 Frequencies --  13070.7240
 Red. masses --      1.0583
 Frc consts  --    106.5279
 IR Inten    --    101.5865

 - Thermochemistry -
 -------------------
 Temperature   298.150 Kelvin.  Pressure   1.00000 Atm.
 Atom     1 has atomic number  1 and mass   1.00783

 Molecular mass:    21.01405 amu.
 Principal axes and moments of inertia in atomic units:
                           1         2         3
     Eigenvalues --     0.00000  44.89401  44.89401
           X            1.00000  -0.00000   0.00000
           Y            0.00000   1.00000   0.00000
           Z            0.00000   0.00000   1.00000
 This molecule is a prolate symmetric top.
 Rotational symmetry number  1.
 Rotational temperature (Kelvin)      1.92930
 Rotational constant (GHZ):          40.200047
    2 imaginary frequencies ignored.
 Zero-point vibrational energy      78223.7 (Joules/Mol)
                                   18.69591 (Kcal/Mol)
 Warning -- explicit consideration of   1 degrees of freedom as
           vibrations may cause significant error
 Vibrational temperatures:     10.44 18805.86
          (Kelvin)

 Zero-point correction=                           0.029794 (Hartree/Particle)
 Thermal correction to Energy=                    0.033082
 Thermal correction to Enthalpy=                  0.034026
 Thermal correction to Gibbs Free Energy=         0.006897
 Sum of electronic and zero-point Energies=           -100.658198
 Sum of electronic and thermal Energies=              -100.654909
 Sum of electronic and thermal Enthalpies=            -100.653965
 Sum of electronic and thermal Free Energies=         -100.681094

                     E (Thermal)             CV                S
                      KCal/Mol        Cal/Mol-Kelvin    Cal/Mol-Kelvin
 Total                   20.759              6.955             57.097
 Electronic               0.000              0.000              1.377
 Translational            0.889              2.981             35.068
 Rotational               0.592              1.987             12.004
 Vibrational             19.278              1.987              8.648
 Vibration     1          0.593              1.987              8.648

 Normal termination of Gaussian 16 at Fri Aug 22 15:42:21 2025.
