 Gaussian 16, Revision C.01,
 Gaussian 16:  ES64L-G16RevC.01  3-Jul-2019

 -----------------------------------------
 # sp b3lyp/6-311g** Force nosymm scf=(qc)
 -----------------------------------------

 -------------------
 Title Card Required
 -------------------
 Symbolic Z-matrix:
 Charge =  0 Multiplicity = 2

                          Input orientation:
 ---------------------------------------------------------------------
 Center     Atomic      Atomic             Coordinates (Angstroms)
 Number     Number       Type             X           Y           Z
 ---------------------------------------------------------------------
      1          1           0        0.000000    0.000000    0.000000
      2          1           0       -2.000000    0.000000    0.000000
      3          9           0        4.000000    0.000000    0.000000
 ---------------------------------------------------------------------

 SCF Done:  E(UB3LYP) =  -100.774230836     a.u. after  144 cycles

 Alpha  occ. eigenvalues --  -24.76116  -1.22025  -0.55231  -0.46397  -0.46388
 Alpha  occ. eigenvalues --   -0.32718
 Alpha virt. eigenvalues --   -0.10458   0.26138   0.32898   0.86125   0.91003
 Alpha virt. eigenvalues --    0.91266   1.00908   1.17532   1.25270   1.25270
 Alpha virt. eigenvalues --    1.38490   1.38493   1.51661   2.13541   2.36575

  Beta  occ. eigenvalues --  -24.72962  -1.12954  -0.43237  -0.43225  -0.32695
  Beta virt. eigenvalues --   -0.25884  -0.10513   0.26139   0.32886   0.92505
  Beta virt. eigenvalues --    0.92742   0.95594   1.05053   1.17520   1.25283
  Beta virt. eigenvalues --    1.25285   1.38455   1.38455   1.51651   2.13695

 Mulliken charges and spin densities:
               1          2
     1  H    0.000462  -0.854926
     2  H   -0.000981   0.854952
     3  F    0.000519   0.999974
 Sum of Mulliken charges =   0.00000   1.00000

 Dipole moment (field-independent basis, Debye):
    X=              0.0158    Y=              0.0000    Z=             -0.0000  Tot=              0.0158
 Quadrupole moment (field-independent basis, Debye-Ang):
   XX=             -7.0148   YY=             -7.0420   ZZ=             -7.5542
   XY=              0.0000   XZ=             -0.0000   YZ=             -0.3484

  Exact polarizability:      21.335       0.000       2.382      -0.000      -0.188       2.107
 Approx polarizability:      24.442       0.000       2.405      -0.000      -0.235       2.059

 ******    2 imaginary frequencies (negative Signs) ******

                      1                      2                      3
                      A                      A                      A
 Frequencies --  -1350.4302               -50.1203               556.3882
 Red. masses --      1.0078                 1.1085                 1.0117
 Frc consts  --      1.0829                 0.0016                 0.1845
 IR Inten    --      0.0003                 0.0191                 0.0006

                      4
                      A
 Frequencies --    556.5580
 Red. masses --      1.0117
 Frc consts  --      0.1846
 IR Inten    --      0.0004

 - Thermochemistry -
 -------------------
 Temperature   298.150 Kelvin.  Pressure   1.00000 Atm.
 Atom     1 has atomic number  1 and mass   1.00783

 Molecular mass:    21.01405 amu.
 Principal axes and moments of inertia in atomic units:
                           1         2         3
     Eigenvalues --     0.00000 169.88775 169.88775
           X            1.00000  -0.00000   0.00000
           Y            0.00000   1.00000   0.00000
           Z            0.00000   0.00000   1.00000
 This molecule is a prolate symmetric top.
 Rotational symmetry number  1.
 Rotational temperature (Kelvin)      0.50983
 Rotational constant (GHZ):          10.623139
    2 imaginary frequencies ignored.
 Zero-point vibrational energy       6656.9 (Joules/Mol)
                                    1.59104 (Kcal/Mol)
 Warning -- explicit consideration of   2 degrees of freedom as
           vibrations may cause significant error
 Vibrational temperatures:    800.52   800.76
          (Kelvin)

 Zero-point correction=                           0.002535 (Hartree/Particle)
 Thermal correction to Energy=                    0.005267
 Thermal correction to Enthalpy=                  0.006211
 Thermal correction to Gibbs Free Energy=        -0.018570
 Sum of electronic and zero-point Energies=           -100.771695
 Sum of electronic and thermal Energies=              -100.768964
 Sum of electronic and thermal Enthalpies=            -100.768020
 Sum of electronic and thermal Free Energies=         -100.792800

                     E (Thermal)             CV                S
                      KCal/Mol        Cal/Mol-Kelvin    Cal/Mol-Kelvin
 Total                    3.305              7.219             52.155
 Electronic               0.000              0.000              1.377
 Translational            0.889              2.981             35.068
 Rotational               0.592              1.987             14.648
 Vibrational              1.824              2.251              1.062
 Vibration     1          0.912              1.126              0.531
 Vibration     2          0.912              1.125              0.531

 Normal termination of Gaussian 16 at Sat Aug 23 01:51:58 2025.
