 Gaussian 16, Revision C.01,
 Gaussian 16:  ES64L-G16RevC.01  3-Jul-2019

 -----------------------------------------
 # sp b3lyp/6-311g** Force nosymm scf=(qc)
 -----------------------------------------

 -------------------
 Title Card Required
 -------------------
 Symbolic Z-matrix:
 Charge =  0 Multiplicity = 2

                          Input orientation:
 ---------------------------------------------------------------------
 Center     Atomic      Atomic             Coordinates (Angstroms)
 Number     Number       Type             X           Y           Z
 ---------------------------------------------------------------------
      1          1           0        0.000000    0.000000    0.000000
      2          1           0       -2.750000    0.000000    0.000000
      3          9           0        2.450000    0.000000    0.000000
 ---------------------------------------------------------------------

 SCF Done:  E(UB3LYP) =  -100.770403203     a.u. after   24 cycles

 Alpha  occ. eigenvalues --  -24.71444  -1.17672  -0.50538  -0.42458  -0.42458
 Alpha  occ. eigenvalues --   -0.33520
 Alpha virt. eigenvalues --   -0.11561   0.24415   0.33647   0.89794   0.93776
 Alpha virt. eigenvalues --    0.93776   1.06600   1.24061   1.24061   1.25849
 Alpha virt. eigenvalues --    1.38906   1.38906   1.44373   2.15061   2.33880

  Beta  occ. eigenvalues --  -24.68630  -1.09672  -0.39655  -0.39655  -0.35545
  Beta virt. eigenvalues --   -0.23166  -0.08682   0.25215   0.35738   0.95115
  Beta virt. eigenvalues --    0.95115   0.96071   1.09081   1.22063   1.22063
  Beta virt. eigenvalues --    1.31441   1.43246   1.43246   1.43942   2.14062

 Mulliken charges and spin densities:
               1          2
     1  H    0.090835  -0.873949
     2  H    0.006337   0.985332
     3  F   -0.097172   0.888618
 Sum of Mulliken charges =  -0.00000   1.00000

 Dipole moment (field-independent basis, Debye):
    X=             -1.2921    Y=              0.0000    Z=              0.0000  Tot=              1.2921
 Quadrupole moment (field-independent basis, Debye-Ang):
   XX=             -9.1067   YY=             -7.5885   ZZ=             -7.5885
   XY=              0.0000   XZ=              0.0000   YZ=             -0.0000

  Exact polarizability:      37.553       0.000       2.021       0.000      -0.000       2.021
 Approx polarizability:      43.493       0.000       1.919       0.000       0.000       1.919

 ******    2 imaginary frequencies (negative Signs) ******

                      1                      2                      3
                      A                      A                      A
 Frequencies --   -730.8496              -281.7995               291.5358
 Red. masses --      1.0358                 1.0766                 1.0194
 Frc consts  --      0.3260                 0.0504                 0.0510
 IR Inten    --     72.4950                 9.4748                 7.2459

                      4
                      A
 Frequencies --    291.5358
 Red. masses --      1.0194
 Frc consts  --      0.0510
 IR Inten    --      7.2459

 - Thermochemistry -
 -------------------
 Temperature   298.150 Kelvin.  Pressure   1.00000 Atm.
 Atom     1 has atomic number  1 and mass   1.00783

 Molecular mass:    21.01405 amu.
 Principal axes and moments of inertia in atomic units:
                           1         2         3
     Eigenvalues --     0.00000 108.81885 108.81885
           X            1.00000  -0.00000   0.00000
           Y            0.00000   1.00000   0.00000
           Z            0.00000   0.00000   1.00000
 This molecule is a prolate symmetric top.
 Rotational symmetry number  1.
 Rotational temperature (Kelvin)      0.79595
 Rotational constant (GHZ):          16.584821
    2 imaginary frequencies ignored.
 Zero-point vibrational energy       3487.5 (Joules/Mol)
                                    0.83354 (Kcal/Mol)
 Warning -- explicit consideration of   2 degrees of freedom as
           vibrations may cause significant error
 Vibrational temperatures:    419.45   419.45
          (Kelvin)

 Zero-point correction=                           0.001328 (Hartree/Particle)
 Thermal correction to Energy=                    0.004550
 Thermal correction to Enthalpy=                  0.005495
 Thermal correction to Gibbs Free Energy=        -0.019753
 Sum of electronic and zero-point Energies=           -100.769075
 Sum of electronic and thermal Energies=              -100.765853
 Sum of electronic and thermal Enthalpies=            -100.764909
 Sum of electronic and thermal Free Energies=         -100.790156

                     E (Thermal)             CV                S
                      KCal/Mol        Cal/Mol-Kelvin    Cal/Mol-Kelvin
 Total                    2.855              8.347             53.139
 Electronic               0.000              0.000              1.377
 Translational            0.889              2.981             35.068
 Rotational               0.592              1.987             13.763
 Vibrational              1.374              3.379              2.930
 Vibration     1          0.687              1.689              1.465
 Vibration     2          0.687              1.689              1.465

 Normal termination of Gaussian 16 at Fri Aug 22 17:39:03 2025.
