 Gaussian 16, Revision C.01,
 Gaussian 16:  ES64L-G16RevC.01  3-Jul-2019

 -----------------------------------------
 # sp b3lyp/6-311g** Force nosymm scf=(qc)
 -----------------------------------------

 -------------------
 Title Card Required
 -------------------
 Symbolic Z-matrix:
 Charge =  0 Multiplicity = 2

                          Input orientation:
 ---------------------------------------------------------------------
 Center     Atomic      Atomic             Coordinates (Angstroms)
 Number     Number       Type             X           Y           Z
 ---------------------------------------------------------------------
      1          1           0        0.000000    0.000000    0.000000
      2          1           0       -0.600000    0.000000    0.000000
      3          9           0        1.450000    0.000000    0.000000
 ---------------------------------------------------------------------

 SCF Done:  E(UB3LYP) =  -100.911784912     a.u. after    6 cycles

 Alpha  occ. eigenvalues --  -24.71665  -1.18972  -0.58852  -0.43741  -0.43276
 Alpha  occ. eigenvalues --   -0.43276
 Alpha virt. eigenvalues --    0.11583   0.19528   0.50851   0.88212   0.88212
 Alpha virt. eigenvalues --    0.96686   1.10933   1.10933   1.37848   1.64957
 Alpha virt. eigenvalues --    1.85217   1.91285   1.91285   2.46228   3.66529

  Beta  occ. eigenvalues --  -24.68928  -1.11502  -0.51169  -0.40625  -0.40625
  Beta virt. eigenvalues --   -0.22846   0.12527   0.20267   0.53291   0.89442
  Beta virt. eigenvalues --    0.89442   1.02893   1.13011   1.13011   1.41718
  Beta virt. eigenvalues --    1.67755   1.86178   1.92490   1.92490   2.49176

 Mulliken charges and spin densities:
               1          2
     1  H    0.140753  -0.026784
     2  H   -0.006124   0.207926
     3  F   -0.134629   0.818858
 Sum of Mulliken charges =   0.00000   1.00000

 Dipole moment (field-independent basis, Debye):
    X=             -0.9534    Y=              0.0000    Z=             -0.0000  Tot=              0.9534
 Quadrupole moment (field-independent basis, Debye-Ang):
   XX=             -6.7054   YY=             -6.5932   ZZ=             -6.5932
   XY=              0.0000   XZ=              0.0000   YZ=              0.0000

  Exact polarizability:      15.403      -0.000       2.268      -0.000      -0.000       2.268
 Approx polarizability:      18.492       0.000       2.323      -0.000      -0.000       2.323

 ******    2 imaginary frequencies (negative Signs) ******

                      1                      2                      3
                      A                      A                      A
 Frequencies --  -2950.0755             -2950.0755               544.1980
 Red. masses --      1.0107                 1.0107                 1.1085
 Frc consts  --      5.1826                 5.1826                 0.1934
 IR Inten    --      0.3128                 0.3128                59.8229

                      4
                      A
 Frequencies --   6837.5963
 Red. masses --      1.0079
 Frc consts  --     27.7626
 IR Inten    --    517.2674

 - Thermochemistry -
 -------------------
 Temperature   298.150 Kelvin.  Pressure   1.00000 Atm.
 Atom     1 has atomic number  1 and mass   1.00783

 Molecular mass:    21.01405 amu.
 Principal axes and moments of inertia in atomic units:
                           1         2         3
     Eigenvalues --     0.00000  20.57731  20.57731
           X            1.00000  -0.00000   0.00000
           Y            0.00000   1.00000   0.00000
           Z            0.00000   0.00000   1.00000
 This molecule is a prolate symmetric top.
 Rotational symmetry number  1.
 Rotational temperature (Kelvin)      4.20919
 Rotational constant (GHZ):          87.705382
    2 imaginary frequencies ignored.
 Zero-point vibrational energy      44152.9 (Joules/Mol)
                                   10.55280 (Kcal/Mol)
 Warning -- explicit consideration of   1 degrees of freedom as
           vibrations may cause significant error
 Vibrational temperatures:    782.98  9837.78
          (Kelvin)

 Zero-point correction=                           0.016817 (Hartree/Particle)
 Thermal correction to Energy=                    0.019371
 Thermal correction to Enthalpy=                  0.020315
 Thermal correction to Gibbs Free Energy=        -0.002232
 Sum of electronic and zero-point Energies=           -100.894968
 Sum of electronic and thermal Energies=              -100.892414
 Sum of electronic and thermal Enthalpies=            -100.891470
 Sum of electronic and thermal Free Energies=         -100.914017

                     E (Thermal)             CV                S
                      KCal/Mol        Cal/Mol-Kelvin    Cal/Mol-Kelvin
 Total                   12.155              6.120             47.455
 Electronic               0.000              0.000              1.377
 Translational            0.889              2.981             35.068
 Rotational               0.592              1.987             10.453
 Vibrational             10.674              1.152              0.556
 Vibration     1          0.899              1.152              0.556

 Normal termination of Gaussian 16 at Fri Aug 22 16:21:38 2025.
