 Gaussian 16, Revision C.01,
 Gaussian 16:  ES64L-G16RevC.01  3-Jul-2019

 -----------------------------------------
 # sp b3lyp/6-311g** Force nosymm scf=(qc)
 -----------------------------------------

 -------------------
 Title Card Required
 -------------------
 Symbolic Z-matrix:
 Charge =  0 Multiplicity = 2

                          Input orientation:
 ---------------------------------------------------------------------
 Center     Atomic      Atomic             Coordinates (Angstroms)
 Number     Number       Type             X           Y           Z
 ---------------------------------------------------------------------
      1          1           0        0.000000    0.000000    0.000000
      2          1           0       -3.000000    0.000000    0.000000
      3          9           0        3.300000    0.000000    0.000000
 ---------------------------------------------------------------------

 SCF Done:  E(UB3LYP) =  -100.760488931     a.u. after   25 cycles

 Alpha  occ. eigenvalues --  -24.75000  -1.20991  -0.54121  -0.45441  -0.45441
 Alpha  occ. eigenvalues --   -0.32532
 Alpha virt. eigenvalues --   -0.08361   0.24864   0.35556   0.88315   0.91719
 Alpha virt. eigenvalues --    0.91719   1.02457   1.25006   1.25006   1.25747
 Alpha virt. eigenvalues --    1.43402   1.43402   1.43483   2.15646   2.39458

  Beta  occ. eigenvalues --  -24.71911  -1.12124  -0.42347  -0.42347  -0.33155
  Beta virt. eigenvalues --   -0.25284  -0.07550   0.24674   0.36736   0.93200
  Beta virt. eigenvalues --    0.93200   0.97325   1.06401   1.24275   1.24275
  Beta virt. eigenvalues --    1.24967   1.44665   1.44701   1.44701   2.16121

 Mulliken charges and spin densities:
               1          2
     1  H    0.017971  -0.971640
     2  H    0.000972   0.992529
     3  F   -0.018942   0.979110
 Sum of Mulliken charges =  -0.00000   1.00000

 Dipole moment (field-independent basis, Debye):
    X=             -0.3352    Y=             -0.0000    Z=              0.0000  Tot=              0.3352
 Quadrupole moment (field-independent basis, Debye-Ang):
   XX=             -7.6307   YY=             -7.6314   ZZ=             -7.6314
   XY=             -0.0000   XZ=              0.0000   YZ=              0.0000

  Exact polarizability:      31.089      -0.000       2.027       0.000       0.000       2.027
 Approx polarizability:      26.195      -0.000       1.929       0.000      -0.000       1.929

 ******    2 imaginary frequencies (negative Signs) ******

                      1                      2                      3
                      A                      A                      A
 Frequencies --   -384.5593              -156.6883               135.4474
 Red. masses --      1.0152                 1.0997                 1.0168
 Frc consts  --      0.0885                 0.0159                 0.0110
 IR Inten    --     15.7374                 5.6743                 0.2779

                      4
                      A
 Frequencies --    135.4474
 Red. masses --      1.0168
 Frc consts  --      0.0110
 IR Inten    --      0.2779

 - Thermochemistry -
 -------------------
 Temperature   298.150 Kelvin.  Pressure   1.00000 Atm.
 Atom     1 has atomic number  1 and mass   1.00783

 Molecular mass:    21.01405 amu.
 Principal axes and moments of inertia in atomic units:
                           1         2         3
     Eigenvalues --     0.00000 166.13040 166.13040
           X            1.00000  -0.00000   0.00000
           Y            0.00000   1.00000   0.00000
           Z            0.00000   0.00000   1.00000
 This molecule is a prolate symmetric top.
 Rotational symmetry number  1.
 Rotational temperature (Kelvin)      0.52136
 Rotational constant (GHZ):          10.863401
    2 imaginary frequencies ignored.
 Zero-point vibrational energy       1620.3 (Joules/Mol)
                                    0.38726 (Kcal/Mol)
 Warning -- explicit consideration of   2 degrees of freedom as
           vibrations may cause significant error
 Vibrational temperatures:    194.88   194.88
          (Kelvin)

 Zero-point correction=                           0.000617 (Hartree/Particle)
 Thermal correction to Energy=                    0.004316
 Thermal correction to Enthalpy=                  0.005260
 Thermal correction to Gibbs Free Energy=        -0.021720
 Sum of electronic and zero-point Energies=           -100.759872
 Sum of electronic and thermal Energies=              -100.756173
 Sum of electronic and thermal Enthalpies=            -100.755229
 Sum of electronic and thermal Free Energies=         -100.782209

                     E (Thermal)             CV                S
                      KCal/Mol        Cal/Mol-Kelvin    Cal/Mol-Kelvin
 Total                    2.708              8.804             56.784
 Electronic               0.000              0.000              1.377
 Translational            0.889              2.981             35.068
 Rotational               0.592              1.987             14.604
 Vibrational              1.227              3.836              5.734
 Vibration     1          0.613              1.918              2.867
 Vibration     2          0.613              1.918              2.867

 Normal termination of Gaussian 16 at Fri Aug 22 20:49:27 2025.
