 Gaussian 16, Revision C.01,
 Gaussian 16:  ES64L-G16RevC.01  3-Jul-2019

 -----------------------------------------
 # sp b3lyp/6-311g** Force nosymm scf=(qc)
 -----------------------------------------

 -------------------
 Title Card Required
 -------------------
 Symbolic Z-matrix:
 Charge =  0 Multiplicity = 2

                          Input orientation:
 ---------------------------------------------------------------------
 Center     Atomic      Atomic             Coordinates (Angstroms)
 Number     Number       Type             X           Y           Z
 ---------------------------------------------------------------------
      1          1           0        0.000000    0.000000    0.000000
      2          1           0       -3.400000    0.000000    0.000000
      3          9           0        2.000000    0.000000    0.000000
 ---------------------------------------------------------------------

 SCF Done:  E(UB3LYP) =  -100.787370144     a.u. after   16 cycles

 Alpha  occ. eigenvalues --  -24.68241  -1.14559  -0.47220  -0.39771  -0.39771
 Alpha  occ. eigenvalues --   -0.33521
 Alpha virt. eigenvalues --   -0.13712   0.22407   0.31950   0.88974   0.94848
 Alpha virt. eigenvalues --    0.94848   1.05740   1.23998   1.23998   1.24169
 Alpha virt. eigenvalues --    1.35425   1.35425   1.60447   2.14072   2.29560

  Beta  occ. eigenvalues --  -24.65869  -1.07929  -0.37933  -0.37434  -0.37434
  Beta virt. eigenvalues --   -0.20754  -0.07196   0.22731   0.37735   0.90386
  Beta virt. eigenvalues --    0.95485   0.95485   1.08165   1.21970   1.21970
  Beta virt. eigenvalues --    1.45087   1.45610   1.45610   1.53526   2.12052

 Mulliken charges and spin densities:
               1          2
     1  H    0.191514  -0.742949
     2  H    0.002089   0.996965
     3  F   -0.193603   0.745985
 Sum of Mulliken charges =  -0.00000   1.00000

 Dipole moment (field-independent basis, Debye):
    X=             -1.9474    Y=              0.0000    Z=              0.0000  Tot=              1.9474
 Quadrupole moment (field-independent basis, Debye-Ang):
   XX=             -9.9928   YY=             -7.4909   ZZ=             -7.4909
   XY=             -0.0000   XZ=              0.0000   YZ=              0.0000

  Exact polarizability:      26.465      -0.000       2.061       0.000      -0.000       2.061
 Approx polarizability:      37.715      -0.000       1.947       0.000      -0.000       1.947

 ******    2 imaginary frequencies (negative Signs) ******

                      1                      2                      3
                      A                      A                      A
 Frequencies --  -1133.1146              -135.4720               479.5701
 Red. masses --      1.0567                 1.0548                 1.0255
 Frc consts  --      0.7994                 0.0114                 0.1390
 IR Inten    --    120.4885                 0.4198                34.1148

                      4
                      A
 Frequencies --    479.5701
 Red. masses --      1.0255
 Frc consts  --      0.1390
 IR Inten    --     34.1148

 - Thermochemistry -
 -------------------
 Temperature   298.150 Kelvin.  Pressure   1.00000 Atm.
 Atom     1 has atomic number  1 and mass   1.00783

 Molecular mass:    21.01405 amu.
 Principal axes and moments of inertia in atomic units:
                           1         2         3
     Eigenvalues --     0.00000 109.89117 109.89117
           X            1.00000  -0.00000   0.00000
           Y            0.00000   1.00000   0.00000
           Z            0.00000   0.00000   1.00000
 This molecule is a prolate symmetric top.
 Rotational symmetry number  1.
 Rotational temperature (Kelvin)      0.78818
 Rotational constant (GHZ):          16.422987
    2 imaginary frequencies ignored.
 Zero-point vibrational energy       5736.9 (Joules/Mol)
                                    1.37116 (Kcal/Mol)
 Warning -- explicit consideration of   2 degrees of freedom as
           vibrations may cause significant error
 Vibrational temperatures:    689.99   689.99
          (Kelvin)

 Zero-point correction=                           0.002185 (Hartree/Particle)
 Thermal correction to Energy=                    0.005025
 Thermal correction to Enthalpy=                  0.005969
 Thermal correction to Gibbs Free Energy=        -0.018572
 Sum of electronic and zero-point Energies=           -100.785185
 Sum of electronic and thermal Energies=              -100.782345
 Sum of electronic and thermal Enthalpies=            -100.781401
 Sum of electronic and thermal Free Energies=         -100.805942

                     E (Thermal)             CV                S
                      KCal/Mol        Cal/Mol-Kelvin    Cal/Mol-Kelvin
 Total                    3.153              7.559             51.650
 Electronic               0.000              0.000              1.377
 Translational            0.889              2.981             35.068
 Rotational               0.592              1.987             13.783
 Vibrational              1.672              2.591              1.422
 Vibration     1          0.836              1.295              0.711
 Vibration     2          0.836              1.295              0.711

 Normal termination of Gaussian 16 at Fri Aug 22 16:57:42 2025.
