 Gaussian 16, Revision C.01,
 Gaussian 16:  ES64L-G16RevC.01  3-Jul-2019

 -----------------------------------------
 # sp b3lyp/6-311g** Force nosymm scf=(qc)
 -----------------------------------------

 -------------------
 Title Card Required
 -------------------
 Symbolic Z-matrix:
 Charge =  0 Multiplicity = 2

                          Input orientation:
 ---------------------------------------------------------------------
 Center     Atomic      Atomic             Coordinates (Angstroms)
 Number     Number       Type             X           Y           Z
 ---------------------------------------------------------------------
      1          1           0        0.000000    0.000000    0.000000
      2          1           0       -0.700000    0.000000    0.000000
      3          9           0        1.250000    0.000000    0.000000
 ---------------------------------------------------------------------

 SCF Done:  E(UB3LYP) =  -100.933779787     a.u. after    7 cycles

 Alpha  occ. eigenvalues --  -24.68874  -1.17682  -0.59858  -0.41563  -0.41563
 Alpha  occ. eigenvalues --   -0.39727
 Alpha virt. eigenvalues --    0.11454   0.19099   0.49246   0.87727   0.87727
 Alpha virt. eigenvalues --    0.96347   1.09969   1.09969   1.45277   1.63011
 Alpha virt. eigenvalues --    1.82205   1.82205   1.95552   2.39516   3.36176

  Beta  occ. eigenvalues --  -24.66615  -1.11751  -0.51483  -0.39434  -0.39434
  Beta virt. eigenvalues --   -0.21102   0.13000   0.20069   0.53098   0.89133
  Beta virt. eigenvalues --    0.89133   1.01218   1.13225   1.13225   1.48650
  Beta virt. eigenvalues --    1.67742   1.84611   1.84611   1.96423   2.44750

 Mulliken charges and spin densities:
               1          2
     1  H    0.225620  -0.030130
     2  H   -0.011057   0.384533
     3  F   -0.214563   0.645596
 Sum of Mulliken charges =   0.00000   1.00000

 Dipole moment (field-independent basis, Debye):
    X=             -1.4216    Y=              0.0000    Z=             -0.0000  Tot=              1.4216
 Quadrupole moment (field-independent basis, Debye-Ang):
   XX=             -7.1871   YY=             -6.6222   ZZ=             -6.6222
   XY=              0.0000   XZ=             -0.0000   YZ=             -0.0000

  Exact polarizability:      16.791       0.000       2.423       0.000      -0.000       2.423
 Approx polarizability:      21.489       0.000       2.465       0.000      -0.000       2.465

 ******    2 imaginary frequencies (negative Signs) ******

                      1                      2                      3
                      A                      A                      A
 Frequencies --  -1794.6555             -1794.6555               630.7091
 Red. masses --      1.0124                 1.0124                 1.1074
 Frc consts  --      1.9213                 1.9213                 0.2595
 IR Inten    --      6.0069                 6.0069                56.0391

                      4
                      A
 Frequencies --   4548.0300
 Red. masses --      1.0088
 Frc consts  --     12.2937
 IR Inten    --    527.8624

 - Thermochemistry -
 -------------------
 Temperature   298.150 Kelvin.  Pressure   1.00000 Atm.
 Atom     1 has atomic number  1 and mass   1.00783

 Molecular mass:    21.01405 amu.
 Principal axes and moments of inertia in atomic units:
                           1         2         3
     Eigenvalues --     0.00000  17.54119  17.54119
           X            1.00000  -0.00000   0.00000
           Y            0.00000   1.00000   0.00000
           Z            0.00000   0.00000   1.00000
 This molecule is a prolate symmetric top.
 Rotational symmetry number  1.
 Rotational temperature (Kelvin)      4.93775
 Rotational constant (GHZ):         102.885928
    2 imaginary frequencies ignored.
 Zero-point vibrational energy      30975.7 (Joules/Mol)
                                    7.40338 (Kcal/Mol)
 Vibrational temperatures:    907.45  6543.60
          (Kelvin)

 Zero-point correction=                           0.011798 (Hartree/Particle)
 Thermal correction to Energy=                    0.014302
 Thermal correction to Enthalpy=                  0.015247
 Thermal correction to Gibbs Free Energy=        -0.007076
 Sum of electronic and zero-point Energies=           -100.921982
 Sum of electronic and thermal Energies=              -100.919477
 Sum of electronic and thermal Enthalpies=            -100.918533
 Sum of electronic and thermal Free Energies=         -100.940856

                     E (Thermal)             CV                S
                      KCal/Mol        Cal/Mol-Kelvin    Cal/Mol-Kelvin
 Total                    8.975              5.935             46.981
 Electronic               0.000              0.000              1.377
 Translational            0.889              2.981             35.068
 Rotational               0.592              1.987             10.136
 Vibrational              7.494              0.967              0.400

 Normal termination of Gaussian 16 at Fri Aug 22 16:11:38 2025.
