 Gaussian 16, Revision C.01,
 Gaussian 16:  ES64L-G16RevC.01  3-Jul-2019

 -----------------------------------------
 # sp b3lyp/6-311g** Force nosymm scf=(qc)
 -----------------------------------------

 -------------------
 Title Card Required
 -------------------
 Symbolic Z-matrix:
 Charge =  0 Multiplicity = 2

                          Input orientation:
 ---------------------------------------------------------------------
 Center     Atomic      Atomic             Coordinates (Angstroms)
 Number     Number       Type             X           Y           Z
 ---------------------------------------------------------------------
      1          1           0        0.000000    0.000000    0.000000
      2          1           0       -2.800000    0.000000    0.000000
      3          9           0        1.600000    0.000000    0.000000
 ---------------------------------------------------------------------

 SCF Done:  E(UB3LYP) =  -100.834985075     a.u. after   10 cycles

 Alpha  occ. eigenvalues --  -24.64775  -1.10485  -0.43390  -0.36721  -0.36721
 Alpha  occ. eigenvalues --   -0.35019
 Alpha virt. eigenvalues --   -0.14906   0.22135   0.27858   0.94280   0.94280
 Alpha virt. eigenvalues --    1.00692   1.07540   1.22517   1.22517   1.23653
 Alpha virt. eigenvalues --    1.32334   1.32334   1.74839   2.13452   2.21595

  Beta  occ. eigenvalues --  -24.63889  -1.08107  -0.41239  -0.35871  -0.35871
  Beta virt. eigenvalues --   -0.17350  -0.08391   0.23530   0.36228   0.93977
  Beta virt. eigenvalues --    0.93977   1.01822   1.07812   1.27779   1.27779
  Beta virt. eigenvalues --    1.43465   1.43465   1.43487   1.72960   2.14873

 Mulliken charges and spin densities:
               1          2
     1  H    0.318930  -0.266593
     2  H    0.011109   0.986913
     3  F   -0.330039   0.279680
 Sum of Mulliken charges =  -0.00000   1.00000

 Dipole moment (field-independent basis, Debye):
    X=             -2.7275    Y=              0.0000    Z=             -0.0000  Tot=              2.7275
 Quadrupole moment (field-independent basis, Debye-Ang):
   XX=             -9.7630   YY=             -7.3779   ZZ=             -7.3779
   XY=              0.0000   XZ=             -0.0000   YZ=             -0.0000

  Exact polarizability:      24.414      -0.000       2.154       0.000       0.000       2.154
 Approx polarizability:      37.825      -0.000       2.068      -0.000       0.000       2.068

 ******    2 imaginary frequencies (negative Signs) ******

                      1                      2                      3
                      A                      A                      A
 Frequencies --  -1886.4407              -225.3745               894.0871
 Red. masses --      1.0548                 1.0568                 1.0259
 Frc consts  --      2.2116                 0.0316                 0.4832
 IR Inten    --     34.5474                 3.6903                90.9419

                      4
                      A
 Frequencies --    894.0871
 Red. masses --      1.0259
 Frc consts  --      0.4832
 IR Inten    --     90.9419

 - Thermochemistry -
 -------------------
 Temperature   298.150 Kelvin.  Pressure   1.00000 Atm.
 Atom     1 has atomic number  1 and mass   1.00783

 Molecular mass:    21.01405 amu.
 Principal axes and moments of inertia in atomic units:
                           1         2         3
     Eigenvalues --     0.00000  72.67642  72.67642
           X            1.00000  -0.00000   0.00000
           Y            0.00000   1.00000   0.00000
           Z            0.00000   0.00000   1.00000
 This molecule is a prolate symmetric top.
 Rotational symmetry number  1.
 Rotational temperature (Kelvin)      1.19177
 Rotational constant (GHZ):          24.832556
    2 imaginary frequencies ignored.
 Zero-point vibrational energy      10695.7 (Joules/Mol)
                                    2.55632 (Kcal/Mol)
 Vibrational temperatures:   1286.39  1286.39
          (Kelvin)

 Zero-point correction=                           0.004074 (Hartree/Particle)
 Thermal correction to Energy=                    0.006545
 Thermal correction to Enthalpy=                  0.007489
 Thermal correction to Gibbs Free Energy=        -0.016122
 Sum of electronic and zero-point Energies=           -100.830911
 Sum of electronic and thermal Energies=              -100.828440
 Sum of electronic and thermal Enthalpies=            -100.827496
 Sum of electronic and thermal Free Energies=         -100.851107

                     E (Thermal)             CV                S
                      KCal/Mol        Cal/Mol-Kelvin    Cal/Mol-Kelvin
 Total                    4.107              5.984             49.692
 Electronic               0.000              0.000              1.377
 Translational            0.889              2.981             35.068
 Rotational               0.592              1.987             12.961
 Vibrational              2.626              1.016              0.286

 Normal termination of Gaussian 16 at Fri Aug 22 16:31:53 2025.
