 Gaussian 16, Revision C.01,
 Gaussian 16:  ES64L-G16RevC.01  3-Jul-2019

 -----------------------------------------
 # sp b3lyp/6-311g** Force nosymm scf=(qc)
 -----------------------------------------

 -------------------
 Title Card Required
 -------------------
 Symbolic Z-matrix:
 Charge =  0 Multiplicity = 2

                          Input orientation:
 ---------------------------------------------------------------------
 Center     Atomic      Atomic             Coordinates (Angstroms)
 Number     Number       Type             X           Y           Z
 ---------------------------------------------------------------------
      1          1           0        0.000000    0.000000    0.000000
      2          1           0       -3.900000    0.000000    0.000000
      3          9           0        1.800000    0.000000    0.000000
 ---------------------------------------------------------------------

 SCF Done:  E(UB3LYP) =  -100.797044545     a.u. after   10 cycles

 Alpha  occ. eigenvalues --  -24.64203  -1.08635  -0.40064  -0.35883  -0.35883
 Alpha  occ. eigenvalues --   -0.33712
 Alpha virt. eigenvalues --   -0.20497   0.19932   0.26765   0.92840   0.95653
 Alpha virt. eigenvalues --    0.95653   1.07805   1.23756   1.23792   1.23792
 Alpha virt. eigenvalues --    1.25974   1.25974   1.65557   2.11873   2.16471

  Beta  occ. eigenvalues --  -24.64207  -1.08645  -0.40067  -0.35887  -0.35887
  Beta virt. eigenvalues --   -0.20520  -0.06433   0.22405   0.38044   0.92857
  Beta virt. eigenvalues --    0.95656   0.95656   1.07807   1.26014   1.26014
  Beta virt. eigenvalues --    1.46074   1.46404   1.46404   1.65591   2.14672

 Mulliken charges and spin densities:
               1          2
     1  H    0.314550   0.002229
     2  H    0.001035   0.998918
     3  F   -0.315584  -0.001147
 Sum of Mulliken charges =   0.00000   1.00000

 Dipole moment (field-independent basis, Debye):
    X=             -2.8400    Y=              0.0000    Z=              0.0000  Tot=              2.8400
 Quadrupole moment (field-independent basis, Debye-Ang):
   XX=            -11.0953   YY=             -7.4585   ZZ=             -7.4585
   XY=              0.0000   XZ=              0.0000   YZ=              0.0000

  Exact polarizability:      21.698      -0.000       2.067       0.000      -0.000       2.067
 Approx polarizability:      58.085      -0.000       1.975       0.000      -0.000       1.975

 ******    2 imaginary frequencies (negative Signs) ******

                      1                      2                      3
                      A                      A                      A
 Frequencies --  -1157.5729               -61.2645               802.5699
 Red. masses --      1.0579                 1.0536                 1.0294
 Frc consts  --      0.8352                 0.0023                 0.3906
 IR Inten    --     28.9733                 0.1228                96.8321

                      4
                      A
 Frequencies --    802.5699
 Red. masses --      1.0294
 Frc consts  --      0.3906
 IR Inten    --     96.8321

 - Thermochemistry -
 -------------------
 Temperature   298.150 Kelvin.  Pressure   1.00000 Atm.
 Atom     1 has atomic number  1 and mass   1.00783

 Molecular mass:    21.01405 amu.
 Principal axes and moments of inertia in atomic units:
                           1         2         3
     Eigenvalues --     0.00000 118.88344 118.88344
           X            1.00000  -0.00000   0.00000
           Y            0.00000   1.00000   0.00000
           Z            0.00000   0.00000   1.00000
 This molecule is a prolate symmetric top.
 Rotational symmetry number  1.
 Rotational temperature (Kelvin)      0.72856
 Rotational constant (GHZ):          15.180762
    2 imaginary frequencies ignored.
 Zero-point vibrational energy       9600.9 (Joules/Mol)
                                    2.29466 (Kcal/Mol)
 Vibrational temperatures:   1154.72  1154.72
          (Kelvin)

 Zero-point correction=                           0.003657 (Hartree/Particle)
 Thermal correction to Energy=                    0.006173
 Thermal correction to Enthalpy=                  0.007117
 Thermal correction to Gibbs Free Energy=        -0.017017
 Sum of electronic and zero-point Energies=           -100.793388
 Sum of electronic and thermal Energies=              -100.790872
 Sum of electronic and thermal Enthalpies=            -100.789928
 Sum of electronic and thermal Free Energies=         -100.814062

                     E (Thermal)             CV                S
                      KCal/Mol        Cal/Mol-Kelvin    Cal/Mol-Kelvin
 Total                    3.873              6.261             50.795
 Electronic               0.000              0.000              1.377
 Translational            0.889              2.981             35.068
 Rotational               0.592              1.987             13.939
 Vibrational              2.392              1.293              0.410

 Normal termination of Gaussian 16 at Fri Aug 22 16:45:17 2025.
