 Gaussian 16, Revision C.01,
 Gaussian 16:  ES64L-G16RevC.01  3-Jul-2019

 -----------------------------------------
 # sp b3lyp/6-311g** Force nosymm scf=(qc)
 -----------------------------------------

 -------------------
 Title Card Required
 -------------------
 Symbolic Z-matrix:
 Charge =  0 Multiplicity = 2

                          Input orientation:
 ---------------------------------------------------------------------
 Center     Atomic      Atomic             Coordinates (Angstroms)
 Number     Number       Type             X           Y           Z
 ---------------------------------------------------------------------
      1          1           0        0.000000    0.000000    0.000000
      2          1           0       -2.100000    0.000000    0.000000
      3          9           0        1.500000    0.000000    0.000000
 ---------------------------------------------------------------------

 SCF Done:  E(UB3LYP) =  -100.859138109     a.u. after   12 cycles

 Alpha  occ. eigenvalues --  -24.63897  -1.09843  -0.43947  -0.36888  -0.36123
 Alpha  occ. eigenvalues --   -0.36123
 Alpha virt. eigenvalues --   -0.11953   0.23377   0.27179   0.94143   0.94143
 Alpha virt. eigenvalues --    1.02550   1.06880   1.20405   1.20405   1.30823
 Alpha virt. eigenvalues --    1.33223   1.33223   1.73623   2.09905   2.24785

  Beta  occ. eigenvalues --  -24.63290  -1.08236  -0.41977  -0.35546  -0.35546
  Beta virt. eigenvalues --   -0.17673  -0.07549   0.25839   0.33189   0.93974
  Beta virt. eigenvalues --    0.93974   1.04418   1.09209   1.30538   1.30538
  Beta virt. eigenvalues --    1.38653   1.38653   1.44849   1.73248   2.16168

 Mulliken charges and spin densities:
               1          2
     1  H    0.312490  -0.136466
     2  H    0.039223   0.946214
     3  F   -0.351714   0.190252
 Sum of Mulliken charges =   0.00000   1.00000

 Dipole moment (field-independent basis, Debye):
    X=             -2.9903    Y=              0.0000    Z=             -0.0000  Tot=              2.9903
 Quadrupole moment (field-independent basis, Debye-Ang):
   XX=             -8.9492   YY=             -7.3086   ZZ=             -7.3086
   XY=              0.0000   XZ=             -0.0000   YZ=             -0.0000

  Exact polarizability:      27.132       0.000       2.221      -0.000      -0.000       2.221
 Approx polarizability:      39.115       0.000       2.151      -0.000      -0.000       2.151

 ******    2 imaginary frequencies (negative Signs) ******

                      1                      2                      3
                      A                      A                      A
 Frequencies --  -1761.3494              -367.2778               982.5860
 Red. masses --      1.0392                 1.0729                 1.0225
 Frc consts  --      1.8994                 0.0853                 0.5816
 IR Inten    --     47.2629                 1.5363                75.9216

                      4
                      A
 Frequencies --    982.5860
 Red. masses --      1.0225
 Frc consts  --      0.5816
 IR Inten    --     75.9216

 - Thermochemistry -
 -------------------
 Temperature   298.150 Kelvin.  Pressure   1.00000 Atm.
 Atom     1 has atomic number  1 and mass   1.00783

 Molecular mass:    21.01405 amu.
 Principal axes and moments of inertia in atomic units:
                           1         2         3
     Eigenvalues --     0.00000  50.25141  50.25141
           X            1.00000  -0.00000   0.00000
           Y            0.00000   1.00000   0.00000
           Z            0.00000   0.00000   1.00000
 This molecule is a prolate symmetric top.
 Rotational symmetry number  1.
 Rotational temperature (Kelvin)      1.72361
 Rotational constant (GHZ):          35.914237
    2 imaginary frequencies ignored.
 Zero-point vibrational energy      11754.3 (Joules/Mol)
                                    2.80935 (Kcal/Mol)
 Vibrational temperatures:   1413.72  1413.72
          (Kelvin)

 Zero-point correction=                           0.004477 (Hartree/Particle)
 Thermal correction to Energy=                    0.006916
 Thermal correction to Enthalpy=                  0.007860
 Thermal correction to Gibbs Free Energy=        -0.015361
 Sum of electronic and zero-point Energies=           -100.854661
 Sum of electronic and thermal Energies=              -100.852222
 Sum of electronic and thermal Enthalpies=            -100.851278
 Sum of electronic and thermal Free Energies=         -100.874499

                     E (Thermal)             CV                S
                      KCal/Mol        Cal/Mol-Kelvin    Cal/Mol-Kelvin
 Total                    4.340              5.761             48.874
 Electronic               0.000              0.000              1.377
 Translational            0.889              2.981             35.068
 Rotational               0.592              1.987             12.228
 Vibrational              2.859              0.793              0.201

 Normal termination of Gaussian 16 at Fri Aug 22 16:25:36 2025.
