 Gaussian 16, Revision C.01,
 Gaussian 16:  ES64L-G16RevC.01  3-Jul-2019

 -----------------------------------------
 # sp b3lyp/6-311g** Force nosymm scf=(qc)
 -----------------------------------------

 -------------------
 Title Card Required
 -------------------
 Symbolic Z-matrix:
 Charge =  0 Multiplicity = 2

                          Input orientation:
 ---------------------------------------------------------------------
 Center     Atomic      Atomic             Coordinates (Angstroms)
 Number     Number       Type             X           Y           Z
 ---------------------------------------------------------------------
      1          1           0        0.000000    0.000000    0.000000
      2          1           0       -2.000000    0.000000    0.000000
      3          9           0        3.200000    0.000000    0.000000
 ---------------------------------------------------------------------

 SCF Done:  E(UB3LYP) =  -100.775336552     a.u. after   28 cycles

 Alpha  occ. eigenvalues --  -24.74978  -1.20970  -0.54099  -0.45425  -0.45425
 Alpha  occ. eigenvalues --   -0.33410
 Alpha virt. eigenvalues --   -0.11386   0.25673   0.31943   0.88780   0.91723
 Alpha virt. eigenvalues --    0.91723   1.02839   1.16878   1.24559   1.24559
 Alpha virt. eigenvalues --    1.37319   1.37319   1.50760   2.12799   2.36705

  Beta  occ. eigenvalues --  -24.71897  -1.12123  -0.42338  -0.42338  -0.33520
  Beta virt. eigenvalues --   -0.25328  -0.10952   0.25804   0.32509   0.93202
  Beta virt. eigenvalues --    0.93202   0.97733   1.06814   1.16836   1.24396
  Beta virt. eigenvalues --    1.24396   1.37959   1.37959   1.51255   2.13776

 Mulliken charges and spin densities:
               1          2
     1  H    0.009592  -0.836385
     2  H    0.010595   0.859484
     3  F   -0.020187   0.976900
 Sum of Mulliken charges =  -0.00000   1.00000

 Dipole moment (field-independent basis, Debye):
    X=             -0.4320    Y=             -0.0000    Z=              0.0000  Tot=              0.4320
 Quadrupole moment (field-independent basis, Debye-Ang):
   XX=             -7.0013   YY=             -7.7193   ZZ=             -7.7193
   XY=             -0.0000   XZ=              0.0000   YZ=              0.0000

  Exact polarizability:      53.937      -0.000       2.008       0.000       0.000       2.008
 Approx polarizability:      47.515      -0.000       1.934       0.000      -0.000       1.934

 ******    2 imaginary frequencies (negative Signs) ******

                      1                      2                      3
                      A                      A                      A
 Frequencies --  -1361.2083              -191.1448               551.2368
 Red. masses --      1.0079                 1.1084                 1.0133
 Frc consts  --      1.1003                 0.0239                 0.1814
 IR Inten    --     25.8613                18.0897                 0.0238

                      4
                      A
 Frequencies --    551.2368
 Red. masses --      1.0133
 Frc consts  --      0.1814
 IR Inten    --      0.0238

 - Thermochemistry -
 -------------------
 Temperature   298.150 Kelvin.  Pressure   1.00000 Atm.
 Atom     1 has atomic number  1 and mass   1.00783

 Molecular mass:    21.01405 amu.
 Principal axes and moments of inertia in atomic units:
                           1         2         3
     Eigenvalues --     0.00000 121.99189 121.99189
           X            1.00000  -0.00000   0.00000
           Y            0.00000   1.00000   0.00000
           Z            0.00000   0.00000   1.00000
 This molecule is a prolate symmetric top.
 Rotational symmetry number  1.
 Rotational temperature (Kelvin)      0.71000
 Rotational constant (GHZ):          14.793944
    2 imaginary frequencies ignored.
 Zero-point vibrational energy       6594.3 (Joules/Mol)
                                    1.57607 (Kcal/Mol)
 Warning -- explicit consideration of   2 degrees of freedom as
           vibrations may cause significant error
 Vibrational temperatures:    793.11   793.11
          (Kelvin)

 Zero-point correction=                           0.002512 (Hartree/Particle)
 Thermal correction to Energy=                    0.005250
 Thermal correction to Enthalpy=                  0.006194
 Thermal correction to Gibbs Free Energy=        -0.018284
 Sum of electronic and zero-point Energies=           -100.772825
 Sum of electronic and thermal Energies=              -100.770087
 Sum of electronic and thermal Enthalpies=            -100.769143
 Sum of electronic and thermal Free Energies=         -100.793621

                     E (Thermal)             CV                S
                      KCal/Mol        Cal/Mol-Kelvin    Cal/Mol-Kelvin
 Total                    3.294              7.242             51.519
 Electronic               0.000              0.000              1.377
 Translational            0.889              2.981             35.068
 Rotational               0.592              1.987             13.990
 Vibrational              1.813              2.274              1.083
 Vibration     1          0.907              1.137              0.542
 Vibration     2          0.907              1.137              0.542

 Normal termination of Gaussian 16 at Fri Aug 22 20:23:06 2025.
