 Gaussian 16, Revision C.01,
 Gaussian 16:  ES64L-G16RevC.01  3-Jul-2019

 -----------------------------------------
 # sp b3lyp/6-311g** Force nosymm scf=(qc)
 -----------------------------------------

 -------------------
 Title Card Required
 -------------------
 Symbolic Z-matrix:
 Charge =  0 Multiplicity = 2

                          Input orientation:
 ---------------------------------------------------------------------
 Center     Atomic      Atomic             Coordinates (Angstroms)
 Number     Number       Type             X           Y           Z
 ---------------------------------------------------------------------
      1          1           0        0.000000    0.000000    0.000000
      2          1           0       -0.750000    0.000000    0.000000
      3          9           0        1.150000    0.000000    0.000000
 ---------------------------------------------------------------------

 SCF Done:  E(UB3LYP) =  -100.940029699     a.u. after    5 cycles

 Alpha  occ. eigenvalues --  -24.67542  -1.17601  -0.60416  -0.40916  -0.40916
 Alpha  occ. eigenvalues --   -0.37881
 Alpha virt. eigenvalues --    0.11940   0.18827   0.49453   0.87716   0.87716
 Alpha virt. eigenvalues --    0.96245   1.09518   1.09518   1.45739   1.66397
 Alpha virt. eigenvalues --    1.77556   1.77556   2.02798   2.36120   3.31942

  Beta  occ. eigenvalues --  -24.65629  -1.12683  -0.52245  -0.39144  -0.39144
  Beta virt. eigenvalues --   -0.20102   0.13776   0.20006   0.54065   0.89318
  Beta virt. eigenvalues --    0.89318   1.00280   1.13365   1.13365   1.48502
  Beta virt. eigenvalues --    1.72667   1.80719   1.80719   2.03419   2.42836

 Mulliken charges and spin densities:
               1          2
     1  H    0.257380  -0.029366
     2  H   -0.010889   0.501121
     3  F   -0.246491   0.528245
 Sum of Mulliken charges =   0.00000   1.00000

 Dipole moment (field-independent basis, Debye):
    X=             -1.5980    Y=             -0.0000    Z=              0.0000  Tot=              1.5980
 Quadrupole moment (field-independent basis, Debye-Ang):
   XX=             -7.3747   YY=             -6.6193   ZZ=             -6.6193
   XY=             -0.0000   XZ=              0.0000   YZ=              0.0000

  Exact polarizability:      16.346      -0.000       2.489      -0.000      -0.000       2.489
 Approx polarizability:      20.866      -0.000       2.529      -0.000      -0.000       2.529

 ******    2 imaginary frequencies (negative Signs) ******

                      1                      2                      3
                      A                      A                      A
 Frequencies --  -1478.4459             -1478.4459               895.2909
 Red. masses --      1.0136                 1.0136                 1.1048
 Frc consts  --      1.3053                 1.3053                 0.5218
 IR Inten    --     14.8878                14.8878                28.9414

                      4
                      A
 Frequencies --   3609.6878
 Red. masses --      1.0109
 Frc consts  --      7.7605
 IR Inten    --    373.6693

 - Thermochemistry -
 -------------------
 Temperature   298.150 Kelvin.  Pressure   1.00000 Atm.
 Atom     1 has atomic number  1 and mass   1.00783

 Molecular mass:    21.01405 amu.
 Principal axes and moments of inertia in atomic units:
                           1         2         3
     Eigenvalues --     0.00000  16.14643  16.14643
           X            1.00000  -0.00000   0.00000
           Y            0.00000   1.00000   0.00000
           Z            0.00000   0.00000   1.00000
 This molecule is a prolate symmetric top.
 Rotational symmetry number  1.
 Rotational temperature (Kelvin)      5.36428
 Rotational constant (GHZ):         111.773363
    2 imaginary frequencies ignored.
 Zero-point vibrational energy      26945.8 (Joules/Mol)
                                    6.44019 (Kcal/Mol)
 Vibrational temperatures:   1288.12  5193.54
          (Kelvin)

 Zero-point correction=                           0.010263 (Hartree/Particle)
 Thermal correction to Energy=                    0.012679
 Thermal correction to Enthalpy=                  0.013623
 Thermal correction to Gibbs Free Energy=        -0.008499
 Sum of electronic and zero-point Energies=           -100.929767
 Sum of electronic and thermal Energies=              -100.927351
 Sum of electronic and thermal Enthalpies=            -100.926407
 Sum of electronic and thermal Free Energies=         -100.948529

                     E (Thermal)             CV                S
                      KCal/Mol        Cal/Mol-Kelvin    Cal/Mol-Kelvin
 Total                    7.956              5.475             46.559
 Electronic               0.000              0.000              1.377
 Translational            0.889              2.981             35.068
 Rotational               0.592              1.987              9.971
 Vibrational              6.475              0.507              0.142

 Normal termination of Gaussian 16 at Fri Aug 22 16:06:51 2025.
