 Gaussian 16, Revision C.01,
 Gaussian 16:  ES64L-G16RevC.01  3-Jul-2019

 -----------------------------------------
 # sp b3lyp/6-311g** Force nosymm scf=(qc)
 -----------------------------------------

 -------------------
 Title Card Required
 -------------------
 Symbolic Z-matrix:
 Charge =  0 Multiplicity = 2

                          Input orientation:
 ---------------------------------------------------------------------
 Center     Atomic      Atomic             Coordinates (Angstroms)
 Number     Number       Type             X           Y           Z
 ---------------------------------------------------------------------
      1          1           0        0.000000    0.000000    0.000000
      2          1           0       -2.450000    0.000000    0.000000
      3          9           0        0.650000    0.000000    0.000000
 ---------------------------------------------------------------------

 SCF Done:  E(UB3LYP) =  -100.800823185     a.u. after    6 cycles

 Alpha  occ. eigenvalues --  -24.62891  -1.31265  -0.59794  -0.42308  -0.42308
 Alpha  occ. eigenvalues --   -0.34461
 Alpha virt. eigenvalues --    0.08587   0.25512   0.55156   0.92931   0.92931
 Alpha virt. eigenvalues --    0.94714   1.17347   1.23090   1.23090   1.45996
 Alpha virt. eigenvalues --    1.46954   1.46954   1.95304   2.15056   3.09737

  Beta  occ. eigenvalues --  -24.62882  -1.31238  -0.59763  -0.42302  -0.42302
  Beta virt. eigenvalues --   -0.08332   0.09980   0.38098   0.54846   0.92925
  Beta virt. eigenvalues --    0.92925   0.94853   1.28966   1.45525   1.45525
  Beta virt. eigenvalues --    1.46957   1.46957   1.58293   1.95620   2.43687

 Mulliken charges and spin densities:
               1          2
     1  H    0.248847   0.003899
     2  H    0.004905   0.993028
     3  F   -0.253751   0.003073
 Sum of Mulliken charges =   0.00000   1.00000

 Dipole moment (field-independent basis, Debye):
    X=             -1.5638    Y=             -0.0000    Z=              0.0000  Tot=              1.5638
 Quadrupole moment (field-independent basis, Debye-Ang):
   XX=             -6.9554   YY=             -6.5999   ZZ=             -6.5999
   XY=              0.0000   XZ=              0.0000   YZ=              0.0000

  Exact polarizability:       5.226       0.000       2.472      -0.000      -0.000       2.472
 Approx polarizability:       5.278       0.000       2.457      -0.000      -0.000       2.457

 ******    2 imaginary frequencies (negative Signs) ******

                      1                      2                      3
                      A                      A                      A
 Frequencies --  -4557.0248             -4557.0248               134.1768
 Red. masses --      1.0381                 1.0381                 1.0532
 Frc consts  --     12.7010                12.7010                 0.0112
 IR Inten    --    209.4294               209.4294                 0.1967

                      4
                      A
 Frequencies --  10873.0744
 Red. masses --      1.0583
 Frc consts  --     73.7170
 IR Inten    --    117.3331

 - Thermochemistry -
 -------------------
 Temperature   298.150 Kelvin.  Pressure   1.00000 Atm.
 Atom     1 has atomic number  1 and mass   1.00783

 Molecular mass:    21.01405 amu.
 Principal axes and moments of inertia in atomic units:
                           1         2         3
     Eigenvalues --     0.00000  33.67977  33.67977
           X            1.00000  -0.00000   0.00000
           Y            0.00000   1.00000   0.00000
           Z            0.00000   0.00000   1.00000
 This molecule is a prolate symmetric top.
 Rotational symmetry number  1.
 Rotational temperature (Kelvin)      2.57169
 Rotational constant (GHZ):          53.585321
    2 imaginary frequencies ignored.
 Zero-point vibrational energy      65838.0 (Joules/Mol)
                                   15.73566 (Kcal/Mol)
 Warning -- explicit consideration of   1 degrees of freedom as
           vibrations may cause significant error
 Vibrational temperatures:    193.05 15643.93
          (Kelvin)

 Zero-point correction=                           0.025076 (Hartree/Particle)
 Thermal correction to Energy=                    0.028108
 Thermal correction to Enthalpy=                  0.029052
 Thermal correction to Gibbs Free Energy=         0.004933
 Sum of electronic and zero-point Energies=           -100.775747
 Sum of electronic and thermal Energies=              -100.772715
 Sum of electronic and thermal Enthalpies=            -100.771771
 Sum of electronic and thermal Free Energies=         -100.795890

                     E (Thermal)             CV                S
                      KCal/Mol        Cal/Mol-Kelvin    Cal/Mol-Kelvin
 Total                   17.638              6.887             50.763
 Electronic               0.000              0.000              1.377
 Translational            0.889              2.981             35.068
 Rotational               0.592              1.987             11.432
 Vibrational             16.157              1.919              2.885
 Vibration     1          0.613              1.919              2.885

 Normal termination of Gaussian 16 at Fri Aug 22 15:44:22 2025.
