 Gaussian 16, Revision C.01,
 Gaussian 16:  ES64L-G16RevC.01  3-Jul-2019

 -----------------------------------------
 # sp b3lyp/6-311g** Force nosymm scf=(qc)
 -----------------------------------------

 -------------------
 Title Card Required
 -------------------
 Symbolic Z-matrix:
 Charge =  0 Multiplicity = 2

                          Input orientation:
 ---------------------------------------------------------------------
 Center     Atomic      Atomic             Coordinates (Angstroms)
 Number     Number       Type             X           Y           Z
 ---------------------------------------------------------------------
      1          1           0        0.000000    0.000000    0.000000
      2          1           0       -3.750000    0.000000    0.000000
      3          9           0        2.100000    0.000000    0.000000
 ---------------------------------------------------------------------

 SCF Done:  E(UB3LYP) =  -100.781185266     a.u. after   18 cycles

 Alpha  occ. eigenvalues --  -24.69027  -1.15350  -0.48053  -0.40439  -0.40439
 Alpha  occ. eigenvalues --   -0.33171
 Alpha virt. eigenvalues --   -0.13003   0.22636   0.32607   0.88289   0.94709
 Alpha virt. eigenvalues --    0.94709   1.05752   1.24335   1.24335   1.24361
 Alpha virt. eigenvalues --    1.36489   1.36489   1.55822   2.13847   2.31112

  Beta  occ. eigenvalues --  -24.66512  -1.08283  -0.37952  -0.37952  -0.37335
  Beta virt. eigenvalues --   -0.21383  -0.06519   0.22797   0.38046   0.90332
  Beta virt. eigenvalues --    0.95600   0.95600   1.08119   1.21595   1.21595
  Beta virt. eigenvalues --    1.45818   1.46324   1.46324   1.47696   2.11498

 Mulliken charges and spin densities:
               1          2
     1  H    0.166668  -0.790296
     2  H    0.000766   0.998792
     3  F   -0.167434   0.791504
 Sum of Mulliken charges =  -0.00000   1.00000

 Dipole moment (field-independent basis, Debye):
    X=             -1.7631    Y=              0.0000    Z=              0.0000  Tot=              1.7631
 Quadrupole moment (field-independent basis, Debye-Ang):
   XX=             -9.9636   YY=             -7.5074   ZZ=             -7.5074
   XY=              0.0000   XZ=              0.0000   YZ=             -0.0000

  Exact polarizability:      26.342      -0.000       2.050       0.000       0.000       2.050
 Approx polarizability:      37.483      -0.000       1.936      -0.000       0.000       1.936

 ******    2 imaginary frequencies (negative Signs) ******

                      1                      2                      3
                      A                      A                      A
 Frequencies --   -982.6904               -90.0279               415.5753
 Red. masses --      1.0574                 1.0542                 1.0262
 Frc consts  --      0.6016                 0.0050                 0.1044
 IR Inten    --    114.0952                 0.0855                26.5195

                      4
                      A
 Frequencies --    415.5753
 Red. masses --      1.0262
 Frc consts  --      0.1044
 IR Inten    --     26.5195

 - Thermochemistry -
 -------------------
 Temperature   298.150 Kelvin.  Pressure   1.00000 Atm.
 Atom     1 has atomic number  1 and mass   1.00783

 Molecular mass:    21.01405 amu.
 Principal axes and moments of inertia in atomic units:
                           1         2         3
     Eigenvalues --     0.00000 128.12951 128.12951
           X            1.00000  -0.00000   0.00000
           Y            0.00000   1.00000   0.00000
           Z            0.00000   0.00000   1.00000
 This molecule is a prolate symmetric top.
 Rotational symmetry number  1.
 Rotational temperature (Kelvin)      0.67599
 Rotational constant (GHZ):          14.085289
    2 imaginary frequencies ignored.
 Zero-point vibrational energy       4971.4 (Joules/Mol)
                                    1.18819 (Kcal/Mol)
 Warning -- explicit consideration of   2 degrees of freedom as
           vibrations may cause significant error
 Vibrational temperatures:    597.92   597.92
          (Kelvin)

 Zero-point correction=                           0.001894 (Hartree/Particle)
 Thermal correction to Energy=                    0.004843
 Thermal correction to Enthalpy=                  0.005787
 Thermal correction to Gibbs Free Energy=        -0.019085
 Sum of electronic and zero-point Energies=           -100.779292
 Sum of electronic and thermal Energies=              -100.776342
 Sum of electronic and thermal Enthalpies=            -100.775398
 Sum of electronic and thermal Free Energies=         -100.800270

                     E (Thermal)             CV                S
                      KCal/Mol        Cal/Mol-Kelvin    Cal/Mol-Kelvin
 Total                    3.039              7.841             52.347
 Electronic               0.000              0.000              1.377
 Translational            0.889              2.981             35.068
 Rotational               0.592              1.987             14.088
 Vibrational              1.558              2.873              1.814
 Vibration     1          0.779              1.436              0.907
 Vibration     2          0.779              1.436              0.907

 Normal termination of Gaussian 16 at Fri Aug 22 17:05:30 2025.
