 Gaussian 16, Revision C.01,
 Gaussian 16:  ES64L-G16RevC.01  3-Jul-2019

 -----------------------------------------
 # sp b3lyp/6-311g** Force nosymm scf=(qc)
 -----------------------------------------

 -------------------
 Title Card Required
 -------------------
 Symbolic Z-matrix:
 Charge =  0 Multiplicity = 2

                          Input orientation:
 ---------------------------------------------------------------------
 Center     Atomic      Atomic             Coordinates (Angstroms)
 Number     Number       Type             X           Y           Z
 ---------------------------------------------------------------------
      1          1           0        0.000000    0.000000    0.000000
      2          1           0       -0.800000    0.000000    0.000000
      3          9           0        0.900000    0.000000    0.000000
 ---------------------------------------------------------------------

 SCF Done:  E(UB3LYP) =  -100.926011936     a.u. after    6 cycles

 Alpha  occ. eigenvalues --  -24.66070  -1.22486  -0.63329  -0.41711  -0.41711
 Alpha  occ. eigenvalues --   -0.34429
 Alpha virt. eigenvalues --    0.15017   0.18159   0.60073   0.87739   0.87739
 Alpha virt. eigenvalues --    0.95085   1.09100   1.09100   1.45136   1.73521
 Alpha virt. eigenvalues --    1.73521   1.76825   2.11412   2.34855   3.72458

  Beta  occ. eigenvalues --  -24.64953  -1.19604  -0.57250  -0.40722  -0.40722
  Beta virt. eigenvalues --   -0.16402   0.16835   0.20633   0.65642   0.89771
  Beta virt. eigenvalues --    0.89771   0.97334   1.14014   1.14014   1.46896
  Beta virt. eigenvalues --    1.78419   1.78419   1.85889   2.12794   2.43924

 Mulliken charges and spin densities:
               1          2
     1  H    0.273505  -0.016592
     2  H   -0.031258   0.756881
     3  F   -0.242247   0.259712
 Sum of Mulliken charges =   0.00000   1.00000

 Dipole moment (field-independent basis, Debye):
    X=             -1.4830    Y=              0.0000    Z=              0.0000  Tot=              1.4830
 Quadrupole moment (field-independent basis, Debye-Ang):
   XX=             -7.5292   YY=             -6.5376   ZZ=             -6.5376
   XY=              0.0000   XZ=             -0.0000   YZ=              0.0000

  Exact polarizability:      11.950       0.000       2.561      -0.000      -0.000       2.561
 Approx polarizability:      13.455       0.000       2.619       0.000      -0.000       2.619

 ******    2 imaginary frequencies (negative Signs) ******

                      1                      2                      3
                      A                      A                      A
 Frequencies --  -2049.5830             -2049.5830              2629.7887
 Red. masses --      1.0166                 1.0166                 1.0828
 Frc consts  --      2.5161                 2.5161                 4.4119
 IR Inten    --     59.8628                59.8628               122.1535

                      4
                      A
 Frequencies --   4349.6438
 Red. masses --      1.0301
 Frc consts  --     11.4825
 IR Inten    --      0.0219

 - Thermochemistry -
 -------------------
 Temperature   298.150 Kelvin.  Pressure   1.00000 Atm.
 Atom     1 has atomic number  1 and mass   1.00783

 Molecular mass:    21.01405 amu.
 Principal axes and moments of inertia in atomic units:
                           1         2         3
     Eigenvalues --     0.00000  12.14951  12.14951
           X            1.00000  -0.00000   0.00000
           Y            0.00000   1.00000   0.00000
           Z            0.00000   0.00000   1.00000
 This molecule is a prolate symmetric top.
 Rotational symmetry number  1.
 Rotational temperature (Kelvin)      7.12901
 Rotational constant (GHZ):         148.544375
    2 imaginary frequencies ignored.
 Zero-point vibrational energy      41746.3 (Joules/Mol)
                                    9.97760 (Kcal/Mol)
 Vibrational temperatures:   3783.68  6258.17
          (Kelvin)

 Zero-point correction=                           0.015900 (Hartree/Particle)
 Thermal correction to Energy=                    0.018261
 Thermal correction to Enthalpy=                  0.019205
 Thermal correction to Gibbs Free Energy=        -0.002581
 Sum of electronic and zero-point Energies=           -100.910112
 Sum of electronic and thermal Energies=              -100.907751
 Sum of electronic and thermal Enthalpies=            -100.906807
 Sum of electronic and thermal Free Energies=         -100.928593

                     E (Thermal)             CV                S
                      KCal/Mol        Cal/Mol-Kelvin    Cal/Mol-Kelvin
 Total                   11.459              4.969             45.852
 Electronic               0.000              0.000              1.377
 Translational            0.889              2.981             35.068
 Rotational               0.592              1.987              9.406
 Vibrational              9.978              0.001              0.000

 Normal termination of Gaussian 16 at Fri Aug 22 15:54:59 2025.
