 Gaussian 16, Revision C.01,
 Gaussian 16:  ES64L-G16RevC.01  3-Jul-2019

 -----------------------------------------
 # sp b3lyp/6-311g** Force nosymm scf=(qc)
 -----------------------------------------

 -------------------
 Title Card Required
 -------------------
 Symbolic Z-matrix:
 Charge =  0 Multiplicity = 2

                          Input orientation:
 ---------------------------------------------------------------------
 Center     Atomic      Atomic             Coordinates (Angstroms)
 Number     Number       Type             X           Y           Z
 ---------------------------------------------------------------------
      1          1           0        0.000000    0.000000    0.000000
      2          1           0       -3.550000    0.000000    0.000000
      3          9           0        2.850000    0.000000    0.000000
 ---------------------------------------------------------------------

 SCF Done:  E(UB3LYP) =  -100.762261432     a.u. after   21 cycles

 Alpha  occ. eigenvalues --  -24.73495  -1.19598  -0.52613  -0.44181  -0.44181
 Alpha  occ. eigenvalues --   -0.32619
 Alpha virt. eigenvalues --   -0.08645   0.23862   0.35929   0.89782   0.92626
 Alpha virt. eigenvalues --    0.92626   1.04769   1.24887   1.24887   1.25023
 Alpha virt. eigenvalues --    1.43291   1.43291   1.43900   2.14665   2.39272

  Beta  occ. eigenvalues --  -24.70510  -1.11056  -0.41195  -0.41195  -0.34136
  Beta virt. eigenvalues --   -0.24432  -0.06534   0.23946   0.37927   0.94073
  Beta virt. eigenvalues --    0.94073   0.98163   1.08276   1.23180   1.23180
  Beta virt. eigenvalues --    1.24344   1.45888   1.46145   1.46145   2.14470

 Mulliken charges and spin densities:
               1          2
     1  H    0.049083  -0.943588
     2  H    0.000494   0.998183
     3  F   -0.049578   0.945404
 Sum of Mulliken charges =  -0.00000   1.00000

 Dipole moment (field-independent basis, Debye):
    X=             -0.7331    Y=              0.0000    Z=             -0.0000  Tot=              0.7331
 Quadrupole moment (field-independent basis, Debye-Ang):
   XX=             -8.6188   YY=             -7.6009   ZZ=             -7.6009
   XY=              0.0000   XZ=             -0.0000   YZ=              0.0000

  Exact polarizability:      32.175       0.000       2.024      -0.000       0.000       2.024
 Approx polarizability:      35.272       0.000       1.924      -0.000       0.000       1.924

 ******    2 imaginary frequencies (negative Signs) ******

                      1                      2                      3
                      A                      A                      A
 Frequencies --   -435.0164              -113.1132               157.2809
 Red. masses --      1.0505                 1.0611                 1.0208
 Frc consts  --      0.1171                 0.0080                 0.0149
 IR Inten    --     50.7312                 0.4012                 2.2838

                      4
                      A
 Frequencies --    157.2809
 Red. masses --      1.0208
 Frc consts  --      0.0149
 IR Inten    --      2.2838

 - Thermochemistry -
 -------------------
 Temperature   298.150 Kelvin.  Pressure   1.00000 Atm.
 Atom     1 has atomic number  1 and mass   1.00783

 Molecular mass:    21.01405 amu.
 Principal axes and moments of inertia in atomic units:
                           1         2         3
     Eigenvalues --     0.00000 161.87966 161.87966
           X            1.00000  -0.00000   0.00000
           Y            0.00000   1.00000   0.00000
           Z            0.00000   0.00000   1.00000
 This molecule is a prolate symmetric top.
 Rotational symmetry number  1.
 Rotational temperature (Kelvin)      0.53505
 Rotational constant (GHZ):          11.148660
    2 imaginary frequencies ignored.
 Zero-point vibrational energy       1881.5 (Joules/Mol)
                                    0.44969 (Kcal/Mol)
 Warning -- explicit consideration of   2 degrees of freedom as
           vibrations may cause significant error
 Vibrational temperatures:    226.29   226.29
          (Kelvin)

 Zero-point correction=                           0.000717 (Hartree/Particle)
 Thermal correction to Energy=                    0.004339
 Thermal correction to Enthalpy=                  0.005283
 Thermal correction to Gibbs Free Energy=        -0.021402
 Sum of electronic and zero-point Energies=           -100.761545
 Sum of electronic and thermal Energies=              -100.757923
 Sum of electronic and thermal Enthalpies=            -100.756979
 Sum of electronic and thermal Free Energies=         -100.783663

                     E (Thermal)             CV                S
                      KCal/Mol        Cal/Mol-Kelvin    Cal/Mol-Kelvin
 Total                    2.723              8.757             56.162
 Electronic               0.000              0.000              1.377
 Translational            0.889              2.981             35.068
 Rotational               0.592              1.987             14.552
 Vibrational              1.241              3.789              5.164
 Vibration     1          0.621              1.894              2.582
 Vibration     2          0.621              1.894              2.582

 Normal termination of Gaussian 16 at Fri Aug 22 18:54:59 2025.
