 Gaussian 16, Revision C.01,
 Gaussian 16:  ES64L-G16RevC.01  3-Jul-2019

 -----------------------------------------
 # sp b3lyp/6-311g** Force nosymm scf=(qc)
 -----------------------------------------

 -------------------
 Title Card Required
 -------------------
 Symbolic Z-matrix:
 Charge =  0 Multiplicity = 2

                          Input orientation:
 ---------------------------------------------------------------------
 Center     Atomic      Atomic             Coordinates (Angstroms)
 Number     Number       Type             X           Y           Z
 ---------------------------------------------------------------------
      1          1           0        0.000000    0.000000    0.000000
      2          1           0       -3.900000    0.000000    0.000000
      3          9           0        2.350000    0.000000    0.000000
 ---------------------------------------------------------------------

 SCF Done:  E(UB3LYP) =  -100.771094455     a.u. after   14 cycles

 Alpha  occ. eigenvalues --  -24.70802  -1.17069  -0.49888  -0.41928  -0.41928
 Alpha  occ. eigenvalues --   -0.32875
 Alpha virt. eigenvalues --   -0.11197   0.23210   0.34347   0.88920   0.94076
 Alpha virt. eigenvalues --    0.94076   1.06157   1.24626   1.24626   1.24641
 Alpha virt. eigenvalues --    1.39049   1.39049   1.47130   2.13974   2.34835

  Beta  occ. eigenvalues --  -24.68053  -1.09275  -0.39194  -0.39194  -0.36019
  Beta virt. eigenvalues --   -0.22703  -0.06202   0.23479   0.38101   0.93558
  Beta virt. eigenvalues --    0.95342   0.95342   1.08263   1.21693   1.21693
  Beta virt. eigenvalues --    1.34995   1.46397   1.46578   1.46578   2.11679

 Mulliken charges and spin densities:
               1          2
     1  H    0.114528  -0.866490
     2  H    0.000386   0.999215
     3  F   -0.114914   0.867275
 Sum of Mulliken charges =  -0.00000   1.00000

 Dipole moment (field-independent basis, Debye):
    X=             -1.3713    Y=             -0.0000    Z=              0.0000  Tot=              1.3713
 Quadrupole moment (field-independent basis, Debye-Ang):
   XX=             -9.6184   YY=             -7.5479   ZZ=             -7.5479
   XY=             -0.0000   XZ=              0.0000   YZ=             -0.0000

  Exact polarizability:      28.647      -0.000       2.032      -0.000       0.000       2.032
 Approx polarizability:      38.397       0.000       1.923      -0.000      -0.000       1.923

 ******    2 imaginary frequencies (negative Signs) ******

                      1                      2                      3
                      A                      A                      A
 Frequencies --   -721.4647               -76.1881               293.9223
 Red. masses --      1.0571                 1.0544                 1.0251
 Frc consts  --      0.3242                 0.0036                 0.0522
 IR Inten    --     93.6848                 0.0441                12.7726

                      4
                      A
 Frequencies --    293.9223
 Red. masses --      1.0251
 Frc consts  --      0.0522
 IR Inten    --     12.7726

 - Thermochemistry -
 -------------------
 Temperature   298.150 Kelvin.  Pressure   1.00000 Atm.
 Atom     1 has atomic number  1 and mass   1.00783

 Molecular mass:    21.01405 amu.
 Principal axes and moments of inertia in atomic units:
                           1         2         3
     Eigenvalues --     0.00000 147.69579 147.69579
           X            1.00000  -0.00000   0.00000
           Y            0.00000   1.00000   0.00000
           Z            0.00000   0.00000   1.00000
 This molecule is a prolate symmetric top.
 Rotational symmetry number  1.
 Rotational temperature (Kelvin)      0.58643
 Rotational constant (GHZ):          12.219314
    2 imaginary frequencies ignored.
 Zero-point vibrational energy       3516.1 (Joules/Mol)
                                    0.84037 (Kcal/Mol)
 Warning -- explicit consideration of   2 degrees of freedom as
           vibrations may cause significant error
 Vibrational temperatures:    422.89   422.89
          (Kelvin)

 Zero-point correction=                           0.001339 (Hartree/Particle)
 Thermal correction to Energy=                    0.004555
 Thermal correction to Enthalpy=                  0.005499
 Thermal correction to Gibbs Free Energy=        -0.020024
 Sum of electronic and zero-point Energies=           -100.769755
 Sum of electronic and thermal Energies=              -100.766539
 Sum of electronic and thermal Enthalpies=            -100.765595
 Sum of electronic and thermal Free Energies=         -100.791118

                     E (Thermal)             CV                S
                      KCal/Mol        Cal/Mol-Kelvin    Cal/Mol-Kelvin
 Total                    2.858              8.338             53.718
 Electronic               0.000              0.000              1.377
 Translational            0.889              2.981             35.068
 Rotational               0.592              1.987             14.370
 Vibrational              1.377              3.370              2.903
 Vibration     1          0.689              1.685              1.451
 Vibration     2          0.689              1.685              1.451

 Normal termination of Gaussian 16 at Fri Aug 22 17:28:04 2025.
