 Gaussian 16, Revision C.01,
 Gaussian 16:  ES64L-G16RevC.01  3-Jul-2019

 -----------------------------------------
 # sp b3lyp/6-311g** Force nosymm scf=(qc)
 -----------------------------------------

 -------------------
 Title Card Required
 -------------------
 Symbolic Z-matrix:
 Charge =  0 Multiplicity = 2

                          Input orientation:
 ---------------------------------------------------------------------
 Center     Atomic      Atomic             Coordinates (Angstroms)
 Number     Number       Type             X           Y           Z
 ---------------------------------------------------------------------
      1          1           0        0.000000    0.000000    0.000000
      2          1           0       -0.500000    0.000000    0.000000
      3          9           0        1.450000    0.000000    0.000000
 ---------------------------------------------------------------------

 SCF Done:  E(UB3LYP) =  -100.854484870     a.u. after    6 cycles

 Alpha  occ. eigenvalues --  -24.72204  -1.19519  -0.60666  -0.44774  -0.43734
 Alpha  occ. eigenvalues --   -0.43734
 Alpha virt. eigenvalues --    0.12642   0.19436   0.56417   0.88100   0.88100
 Alpha virt. eigenvalues --    0.96034   1.13226   1.13226   1.40349   1.65470
 Alpha virt. eigenvalues --    1.85390   1.98157   1.98157   2.48094   3.73753

  Beta  occ. eigenvalues --  -24.69368  -1.11778  -0.53637  -0.40985  -0.40985
  Beta virt. eigenvalues --   -0.22626   0.13362   0.20077   0.58702   0.89345
  Beta virt. eigenvalues --    0.89345   1.02494   1.15049   1.15049   1.44165
  Beta virt. eigenvalues --    1.68186   1.86301   1.99191   1.99191   2.51053

 Mulliken charges and spin densities:
               1          2
     1  H    0.132818  -0.020469
     2  H   -0.016954   0.173745
     3  F   -0.115863   0.846723
 Sum of Mulliken charges =   0.00000   1.00000

 Dipole moment (field-independent basis, Debye):
    X=             -0.7929    Y=              0.0000    Z=             -0.0000  Tot=              0.7929
 Quadrupole moment (field-independent basis, Debye-Ang):
   XX=             -6.5381   YY=             -6.4669   ZZ=             -6.4669
   XY=              0.0000   XZ=              0.0000   YZ=             -0.0000

  Exact polarizability:      12.737      -0.000       2.219       0.000      -0.000       2.219
 Approx polarizability:      14.621      -0.000       2.282       0.000       0.000       2.282

 ******    2 imaginary frequencies (negative Signs) ******

                      1                      2                      3
                      A                      A                      A
 Frequencies --  -4929.9753             -4929.9753               743.9090
 Red. masses --      1.0100                 1.0100                 1.1085
 Frc consts  --     14.4626                14.4626                 0.3614
 IR Inten    --      0.0112                 0.0112                48.0019

                      4
                      A
 Frequencies --   9837.1797
 Red. masses --      1.0078
 Frc consts  --     57.4617
 IR Inten    --    390.8449

 - Thermochemistry -
 -------------------
 Temperature   298.150 Kelvin.  Pressure   1.00000 Atm.
 Atom     1 has atomic number  1 and mass   1.00783

 Molecular mass:    21.01405 amu.
 Principal axes and moments of inertia in atomic units:
                           1         2         3
     Eigenvalues --     0.00000  19.25681  19.25681
           X            1.00000  -0.00000   0.00000
           Y            0.00000   1.00000   0.00000
           Z            0.00000   0.00000   1.00000
 This molecule is a prolate symmetric top.
 Rotational symmetry number  1.
 Rotational temperature (Kelvin)      4.49783
 Rotational constant (GHZ):          93.719637
    2 imaginary frequencies ignored.
 Zero-point vibrational energy      63289.0 (Joules/Mol)
                                   15.12643 (Kcal/Mol)
 Vibrational temperatures:   1070.32 14153.51
          (Kelvin)

 Zero-point correction=                           0.024105 (Hartree/Particle)
 Thermal correction to Energy=                    0.026562
 Thermal correction to Enthalpy=                  0.027506
 Thermal correction to Gibbs Free Energy=         0.005163
 Sum of electronic and zero-point Energies=           -100.830379
 Sum of electronic and thermal Energies=              -100.827923
 Sum of electronic and thermal Enthalpies=            -100.826979
 Sum of electronic and thermal Free Energies=         -100.849322

                     E (Thermal)             CV                S
                      KCal/Mol        Cal/Mol-Kelvin    Cal/Mol-Kelvin
 Total                   16.668              5.716             47.025
 Electronic               0.000              0.000              1.377
 Translational            0.889              2.981             35.068
 Rotational               0.592              1.987             10.322
 Vibrational             15.187              0.748              0.258

 Normal termination of Gaussian 16 at Fri Aug 22 16:21:33 2025.
