 Gaussian 16, Revision C.01,
 Gaussian 16:  ES64L-G16RevC.01  3-Jul-2019

 -----------------------------------------
 # sp b3lyp/6-311g** Force nosymm scf=(qc)
 -----------------------------------------

 -------------------
 Title Card Required
 -------------------
 Symbolic Z-matrix:
 Charge =  0 Multiplicity = 2

                          Input orientation:
 ---------------------------------------------------------------------
 Center     Atomic      Atomic             Coordinates (Angstroms)
 Number     Number       Type             X           Y           Z
 ---------------------------------------------------------------------
      1          1           0        0.000000    0.000000    0.000000
      2          1           0       -0.900000    0.000000    0.000000
      3          9           0        3.600000    0.000000    0.000000
 ---------------------------------------------------------------------

 SCF Done:  E(UB3LYP) =  -100.921986163     a.u. after   87 cycles

 Alpha  occ. eigenvalues --  -24.76311  -1.22184  -0.55385  -0.46574  -0.46539
 Alpha  occ. eigenvalues --   -0.40395
 Alpha virt. eigenvalues --    0.02630   0.20764   0.41539   0.86010   0.90887
 Alpha virt. eigenvalues --    0.92294   1.01478   1.08392   1.08395   1.45429
 Alpha virt. eigenvalues --    1.72279   1.72282   2.17523   2.37442   2.74202

  Beta  occ. eigenvalues --  -24.73154  -1.13107  -0.43413  -0.43374  -0.40389
  Beta virt. eigenvalues --   -0.26027   0.02639   0.20772   0.41578   0.92387
  Beta virt. eigenvalues --    0.93798   0.95475   1.05576   1.08392   1.08394
  Beta virt. eigenvalues --    1.45434   1.72279   1.72282   2.17533   2.37443

 Mulliken charges and spin densities:
               1          2
     1  H   -0.000444  -0.000280
     2  H   -0.002436  -0.000046
     3  F    0.002880   1.000326
 Sum of Mulliken charges =   0.00000   1.00000

 Dipole moment (field-independent basis, Debye):
    X=              0.0398    Y=              0.0000    Z=             -0.0000  Tot=              0.0398
 Quadrupole moment (field-independent basis, Debye-Ang):
   XX=             -6.2607   YY=             -6.7168   ZZ=             -6.7220
   XY=              0.0000   XZ=             -0.0000   YZ=             -0.4322

  Exact polarizability:      10.440       0.000       2.260      -0.000      -0.232       2.257
 Approx polarizability:      12.957       0.000       2.381      -0.000      -0.291       2.378

 ******    1 imaginary frequencies (negative Signs) ******

                      1                      2                      3
                      A                      A                      A
 Frequencies --    -48.6860              1454.2942              1454.3693
 Red. masses --      1.1085                 1.0091                 1.0091
 Frc consts  --      0.0015                 1.2574                 1.2575
 IR Inten    --      0.1152                 0.0000                 0.0000

                      4
                      A
 Frequencies --   2642.4583
 Red. masses --      1.0078
 Frc consts  --      4.1462
 IR Inten    --      0.0819

 - Thermochemistry -
 -------------------
 Temperature   298.150 Kelvin.  Pressure   1.00000 Atm.
 Atom     1 has atomic number  1 and mass   1.00783

 Molecular mass:    21.01405 amu.
 Principal axes and moments of inertia in atomic units:
                           1         2         3
     Eigenvalues --     0.00000 108.19833 108.19833
           X            1.00000  -0.00000   0.00000
           Y            0.00000   1.00000   0.00000
           Z            0.00000   0.00000   1.00000
 This molecule is a prolate symmetric top.
 Rotational symmetry number  1.
 Rotational temperature (Kelvin)      0.80051
 Rotational constant (GHZ):          16.679935
    1 imaginary frequencies ignored.
 Zero-point vibrational energy      33203.1 (Joules/Mol)
                                    7.93573 (Kcal/Mol)
 Vibrational temperatures:   2092.41  2092.51  3801.91
          (Kelvin)

 Zero-point correction=                           0.012646 (Hartree/Particle)
 Thermal correction to Energy=                    0.015019
 Thermal correction to Enthalpy=                  0.015963
 Thermal correction to Gibbs Free Energy=        -0.007901
 Sum of electronic and zero-point Energies=           -100.909340
 Sum of electronic and thermal Energies=              -100.906967
 Sum of electronic and thermal Enthalpies=            -100.906023
 Sum of electronic and thermal Free Energies=         -100.929887

                     E (Thermal)             CV                S
                      KCal/Mol        Cal/Mol-Kelvin    Cal/Mol-Kelvin
 Total                    9.424              5.145             50.226
 Electronic               0.000              0.000              1.377
 Translational            0.889              2.981             35.068
 Rotational               0.592              1.987             13.752
 Vibrational              7.943              0.177              0.029

 Normal termination of Gaussian 16 at Fri Aug 22 22:48:43 2025.
