 Gaussian 16, Revision C.01,
 Gaussian 16:  ES64L-G16RevC.01  3-Jul-2019

 -----------------------------------------
 # sp b3lyp/6-311g** Force nosymm scf=(qc)
 -----------------------------------------

 -------------------
 Title Card Required
 -------------------
 Symbolic Z-matrix:
 Charge =  0 Multiplicity = 2

                          Input orientation:
 ---------------------------------------------------------------------
 Center     Atomic      Atomic             Coordinates (Angstroms)
 Number     Number       Type             X           Y           Z
 ---------------------------------------------------------------------
      1          1           0        0.000000    0.000000    0.000000
      2          1           0       -3.300000    0.000000    0.000000
      3          9           0        1.950000    0.000000    0.000000
 ---------------------------------------------------------------------

 SCF Done:  E(UB3LYP) =  -100.791039852     a.u. after   13 cycles

 Alpha  occ. eigenvalues --  -24.67833  -1.14137  -0.46780  -0.39422  -0.39422
 Alpha  occ. eigenvalues --   -0.33681
 Alpha virt. eigenvalues --   -0.14053   0.22336   0.31490   0.89616   0.94880
 Alpha virt. eigenvalues --    0.94880   1.05757   1.23842   1.23842   1.24093
 Alpha virt. eigenvalues --    1.34929   1.34929   1.62872   2.14092   2.28739

  Beta  occ. eigenvalues --  -24.65550  -1.07776  -0.38251  -0.37177  -0.37177
  Beta virt. eigenvalues --   -0.20415  -0.07438   0.22699   0.37553   0.90793
  Beta virt. eigenvalues --    0.95368   0.95368   1.08170   1.22283   1.22283
  Beta virt. eigenvalues --    1.44814   1.45328   1.45328   1.56531   2.12265

 Mulliken charges and spin densities:
               1          2
     1  H    0.205223  -0.713808
     2  H    0.002829   0.996017
     3  F   -0.208052   0.717792
 Sum of Mulliken charges =   0.00000   1.00000

 Dipole moment (field-independent basis, Debye):
    X=             -2.0428    Y=              0.0000    Z=              0.0000  Tot=              2.0428
 Quadrupole moment (field-independent basis, Debye-Ang):
   XX=            -10.0017   YY=             -7.4813   ZZ=             -7.4813
   XY=              0.0000   XZ=              0.0000   YZ=              0.0000

  Exact polarizability:      26.450      -0.000       2.068      -0.000       0.000       2.068
 Approx polarizability:      37.805      -0.000       1.955      -0.000      -0.000       1.955

 ******    2 imaginary frequencies (negative Signs) ******

                      1                      2                      3
                      A                      A                      A
 Frequencies --  -1219.1039              -151.9805               516.8091
 Red. masses --      1.0566                 1.0550                 1.0254
 Frc consts  --      0.9252                 0.0144                 0.1614
 IR Inten    --    123.2215                 0.6681                38.7972

                      4
                      A
 Frequencies --    516.8091
 Red. masses --      1.0254
 Frc consts  --      0.1614
 IR Inten    --     38.7972

 - Thermochemistry -
 -------------------
 Temperature   298.150 Kelvin.  Pressure   1.00000 Atm.
 Atom     1 has atomic number  1 and mass   1.00783

 Molecular mass:    21.01405 amu.
 Principal axes and moments of inertia in atomic units:
                           1         2         3
     Eigenvalues --     0.00000 103.93496 103.93496
           X            1.00000  -0.00000   0.00000
           Y            0.00000   1.00000   0.00000
           Z            0.00000   0.00000   1.00000
 This molecule is a prolate symmetric top.
 Rotational symmetry number  1.
 Rotational temperature (Kelvin)      0.83335
 Rotational constant (GHZ):          17.364140
    2 imaginary frequencies ignored.
 Zero-point vibrational energy       6182.4 (Joules/Mol)
                                    1.47763 (Kcal/Mol)
 Warning -- explicit consideration of   2 degrees of freedom as
           vibrations may cause significant error
 Vibrational temperatures:    743.57   743.57
          (Kelvin)

 Zero-point correction=                           0.002355 (Hartree/Particle)
 Thermal correction to Energy=                    0.005139
 Thermal correction to Enthalpy=                  0.006083
 Thermal correction to Gibbs Free Energy=        -0.018316
 Sum of electronic and zero-point Energies=           -100.788685
 Sum of electronic and thermal Energies=              -100.785901
 Sum of electronic and thermal Enthalpies=            -100.784957
 Sum of electronic and thermal Free Energies=         -100.809356

                     E (Thermal)             CV                S
                      KCal/Mol        Cal/Mol-Kelvin    Cal/Mol-Kelvin
 Total                    3.225              7.394             51.352
 Electronic               0.000              0.000              1.377
 Translational            0.889              2.981             35.068
 Rotational               0.592              1.987             13.672
 Vibrational              1.744              2.426              1.235
 Vibration     1          0.872              1.213              0.617
 Vibration     2          0.872              1.213              0.617

 Normal termination of Gaussian 16 at Fri Aug 22 16:54:23 2025.
