 Gaussian 16, Revision C.01,
 Gaussian 16:  ES64L-G16RevC.01  3-Jul-2019

 -----------------------------------------
 # sp b3lyp/6-311g** Force nosymm scf=(qc)
 -----------------------------------------

 -------------------
 Title Card Required
 -------------------
 Symbolic Z-matrix:
 Charge =  0 Multiplicity = 2

                          Input orientation:
 ---------------------------------------------------------------------
 Center     Atomic      Atomic             Coordinates (Angstroms)
 Number     Number       Type             X           Y           Z
 ---------------------------------------------------------------------
      1          1           0        0.000000    0.000000    0.000000
      2          1           0       -1.250000    0.000000    0.000000
      3          9           0        4.000000    0.000000    0.000000
 ---------------------------------------------------------------------

 SCF Done:  E(UB3LYP) =  -100.862512373     a.u. after   86 cycles

 Alpha  occ. eigenvalues --  -24.76201  -1.22105  -0.55309  -0.46482  -0.46465
 Alpha  occ. eigenvalues --   -0.35810
 Alpha virt. eigenvalues --   -0.05165   0.23196   0.33458   0.86056   0.90933
 Alpha virt. eigenvalues --    0.91281   1.00869   1.14095   1.14097   1.18745
 Alpha virt. eigenvalues --    1.51849   1.51851   2.02671   2.30105   2.53561

  Beta  occ. eigenvalues --  -24.73046  -1.13032  -0.43319  -0.43302  -0.35810
  Beta virt. eigenvalues --   -0.25960  -0.05164   0.23198   0.33467   0.92434
  Beta virt. eigenvalues --    0.92775   0.95522   1.05020   1.14095   1.14097
  Beta virt. eigenvalues --    1.18747   1.51849   1.51851   2.02673   2.30106

 Mulliken charges and spin densities:
               1          2
     1  H    0.001018  -0.000040
     2  H   -0.001780  -0.000043
     3  F    0.000762   1.000084
 Sum of Mulliken charges =   0.00000   1.00000

 Dipole moment (field-independent basis, Debye):
    X=              0.0192    Y=              0.0000    Z=              0.0000  Tot=              0.0192
 Quadrupole moment (field-independent basis, Debye-Ang):
   XX=             -6.3439   YY=             -6.6786   ZZ=             -7.5430
   XY=              0.0000   XZ=             -0.0000   YZ=             -0.0107

  Exact polarizability:      16.803       0.000       2.533      -0.000      -0.006       2.077
 Approx polarizability:      26.454       0.000       2.679      -0.000      -0.007       2.096

 ******    2 imaginary frequencies (negative Signs) ******

                      1                      2                      3
                      A                      A                      A
 Frequencies --   -790.2914               -62.5526              1437.0195
 Red. masses --      1.0078                 1.1085                 1.0096
 Frc consts  --      0.3709                 0.0026                 1.2284
 IR Inten    --      0.0475                 0.0331                 0.0012

                      4
                      A
 Frequencies --   1442.0082
 Red. masses --      1.0096
 Frc consts  --      1.2370
 IR Inten    --      0.0016

 - Thermochemistry -
 -------------------
 Temperature   298.150 Kelvin.  Pressure   1.00000 Atm.
 Atom     1 has atomic number  1 and mass   1.00783

 Molecular mass:    21.01405 amu.
 Principal axes and moments of inertia in atomic units:
                           1         2         3
     Eigenvalues --     0.00000 142.01313 142.01313
           X            1.00000  -0.00000   0.00000
           Y            0.00000   1.00000   0.00000
           Z            0.00000   0.00000   1.00000
 This molecule is a prolate symmetric top.
 Rotational symmetry number  1.
 Rotational temperature (Kelvin)      0.60990
 Rotational constant (GHZ):          12.708270
    2 imaginary frequencies ignored.
 Zero-point vibrational energy      17220.4 (Joules/Mol)
                                    4.11578 (Kcal/Mol)
 Vibrational temperatures:   2067.55  2074.73
          (Kelvin)

 Zero-point correction=                           0.006559 (Hartree/Particle)
 Thermal correction to Energy=                    0.008932
 Thermal correction to Enthalpy=                  0.009876
 Thermal correction to Gibbs Free Energy=        -0.014245
 Sum of electronic and zero-point Energies=           -100.855953
 Sum of electronic and thermal Energies=              -100.853580
 Sum of electronic and thermal Enthalpies=            -100.852636
 Sum of electronic and thermal Free Energies=         -100.876758

                     E (Thermal)             CV                S
                      KCal/Mol        Cal/Mol-Kelvin    Cal/Mol-Kelvin
 Total                    5.605              5.153             50.768
 Electronic               0.000              0.000              1.377
 Translational            0.889              2.981             35.068
 Rotational               0.592              1.987             14.292
 Vibrational              4.124              0.185              0.030

 Normal termination of Gaussian 16 at Sat Aug 23 01:47:17 2025.
