 Gaussian 16, Revision C.01,
 Gaussian 16:  ES64L-G16RevC.01  3-Jul-2019

 -----------------------------------------
 # sp b3lyp/6-311g** Force nosymm scf=(qc)
 -----------------------------------------

 -------------------
 Title Card Required
 -------------------
 Symbolic Z-matrix:
 Charge =  0 Multiplicity = 2

                          Input orientation:
 ---------------------------------------------------------------------
 Center     Atomic      Atomic             Coordinates (Angstroms)
 Number     Number       Type             X           Y           Z
 ---------------------------------------------------------------------
      1          1           0        0.000000    0.000000    0.000000
      2          1           0       -2.050000    0.000000    0.000000
      3          9           0        1.150000    0.000000    0.000000
 ---------------------------------------------------------------------

 SCF Done:  E(UB3LYP) =  -100.939056443     a.u. after    6 cycles

 Alpha  occ. eigenvalues --  -24.63821  -1.12659  -0.48696  -0.37389  -0.37389
 Alpha  occ. eigenvalues --   -0.36360
 Alpha virt. eigenvalues --   -0.01542   0.24041   0.29622   0.93741   0.93741
 Alpha virt. eigenvalues --    1.00277   1.13968   1.20970   1.20970   1.35536
 Alpha virt. eigenvalues --    1.35536   1.45074   1.74542   2.13559   2.32756

  Beta  occ. eigenvalues --  -24.63704  -1.12366  -0.48083  -0.37283  -0.37283
  Beta virt. eigenvalues --   -0.13665   0.01367   0.29435   0.34441   0.93744
  Beta virt. eigenvalues --    0.93744   1.00669   1.22679   1.34801   1.34801
  Beta virt. eigenvalues --    1.40861   1.40861   1.54573   1.75354   2.29062

 Mulliken charges and spin densities:
               1          2
     1  H    0.331130  -0.002801
     2  H    0.022004   0.968531
     3  F   -0.353134   0.034270
 Sum of Mulliken charges =  -0.00000   1.00000

 Dipole moment (field-independent basis, Debye):
    X=             -2.4718    Y=              0.0000    Z=             -0.0000  Tot=              2.4718
 Quadrupole moment (field-independent basis, Debye-Ang):
   XX=             -8.1590   YY=             -7.0544   ZZ=             -7.0544
   XY=              0.0000   XZ=             -0.0000   YZ=             -0.0000

  Exact polarizability:      13.938       0.000       2.398      -0.000       0.000       2.398
 Approx polarizability:      16.705       0.000       2.365       0.000       0.000       2.365

 ******    1 imaginary frequencies (negative Signs) ******

                      1                      2                      3
                      A                      A                      A
 Frequencies --   -269.5085              1162.7587              1162.7587
 Red. masses --      1.0428                 1.0262                 1.0262
 Frc consts  --      0.0446                 0.8175                 0.8175
 IR Inten    --     14.6261               117.9123               117.9123

                      4
                      A
 Frequencies --   1328.1227
 Red. masses --      1.0691
 Frc consts  --      1.1110
 IR Inten    --    186.4290

 - Thermochemistry -
 -------------------
 Temperature   298.150 Kelvin.  Pressure   1.00000 Atm.
 Atom     1 has atomic number  1 and mass   1.00783

 Molecular mass:    21.01405 amu.
 Principal axes and moments of inertia in atomic units:
                           1         2         3
     Eigenvalues --     0.00000  38.34738  38.34738
           X            1.00000  -0.00000   0.00000
           Y            0.00000   1.00000   0.00000
           Z            0.00000   0.00000   1.00000
 This molecule is a prolate symmetric top.
 Rotational symmetry number  1.
 Rotational temperature (Kelvin)      2.25867
 Rotational constant (GHZ):          47.062957
    1 imaginary frequencies ignored.
 Zero-point vibrational energy      21853.6 (Joules/Mol)
                                    5.22314 (Kcal/Mol)
 Vibrational temperatures:   1672.95  1672.95  1910.87
          (Kelvin)

 Zero-point correction=                           0.008324 (Hartree/Particle)
 Thermal correction to Energy=                    0.010733
 Thermal correction to Enthalpy=                  0.011677
 Thermal correction to Gibbs Free Energy=        -0.011251
 Sum of electronic and zero-point Energies=           -100.930733
 Sum of electronic and thermal Energies=              -100.928324
 Sum of electronic and thermal Enthalpies=            -100.927379
 Sum of electronic and thermal Free Energies=         -100.950308

                     E (Thermal)             CV                S
                      KCal/Mol        Cal/Mol-Kelvin    Cal/Mol-Kelvin
 Total                    6.735              5.564             48.256
 Electronic               0.000              0.000              1.377
 Translational            0.889              2.981             35.068
 Rotational               0.592              1.987             11.690
 Vibrational              5.254              0.596              0.121

 Normal termination of Gaussian 16 at Fri Aug 22 16:07:46 2025.
