 Gaussian 16, Revision C.01,
 Gaussian 16:  ES64L-G16RevC.01  3-Jul-2019

 -----------------------------------------
 # sp b3lyp/6-311g** Force nosymm scf=(qc)
 -----------------------------------------

 -------------------
 Title Card Required
 -------------------
 Symbolic Z-matrix:
 Charge =  0 Multiplicity = 2

                          Input orientation:
 ---------------------------------------------------------------------
 Center     Atomic      Atomic             Coordinates (Angstroms)
 Number     Number       Type             X           Y           Z
 ---------------------------------------------------------------------
      1          1           0        0.000000    0.000000    0.000000
      2          1           0       -2.900000    0.000000    0.000000
      3          9           0        0.500000    0.000000    0.000000
 ---------------------------------------------------------------------

 SCF Done:  E(UB3LYP) =  -100.269041102     a.u. after    6 cycles

 Alpha  occ. eigenvalues --  -24.63021  -1.42336  -0.63501  -0.44321  -0.44321
 Alpha  occ. eigenvalues --   -0.33717
 Alpha virt. eigenvalues --    0.08563   0.25682   0.62544   0.89017   0.90169
 Alpha virt. eigenvalues --    0.90169   1.21966   1.23811   1.23811   1.41971
 Alpha virt. eigenvalues --    1.58528   1.58528   2.00456   2.15023   3.76645

  Beta  occ. eigenvalues --  -24.63019  -1.42330  -0.63499  -0.44320  -0.44320
  Beta virt. eigenvalues --   -0.06272   0.09565   0.39129   0.62416   0.89041
  Beta virt. eigenvalues --    0.90161   0.90161   1.35545   1.49303   1.49303
  Beta virt. eigenvalues --    1.53430   1.58532   1.58532   2.00058   2.45116

 Mulliken charges and spin densities:
               1          2
     1  H    0.122864   0.001354
     2  H    0.002322   0.997252
     3  F   -0.125186   0.001393
 Sum of Mulliken charges =   0.00000   1.00000

 Dipole moment (field-independent basis, Debye):
    X=             -1.3213    Y=              0.0000    Z=              0.0000  Tot=              1.3213
 Quadrupole moment (field-independent basis, Debye-Ang):
   XX=             -6.5692   YY=             -6.4376   ZZ=             -6.4376
   XY=              0.0000   XZ=              0.0000   YZ=              0.0000

  Exact polarizability:       3.694      -0.000       2.423      -0.000      -0.000       2.423
 Approx polarizability:       3.763      -0.000       2.402      -0.000      -0.000       2.402

 ******    2 imaginary frequencies (negative Signs) ******

                      1                      2                      3
                      A                      A                      A
 Frequencies --  -9570.0455             -9570.0455                43.8905
 Red. masses --      1.0438                 1.0438                 1.0532
 Frc consts  --     56.3245                56.3245                 0.0012
 IR Inten    --    276.0582               276.0582                 0.0846

                      4
                      A
 Frequencies --  19159.1545
 Red. masses --      1.0583
 Frc consts  --    228.8843
 IR Inten    --     80.5320

 - Thermochemistry -
 -------------------
 Temperature   298.150 Kelvin.  Pressure   1.00000 Atm.
 Atom     1 has atomic number  1 and mass   1.00783

 Molecular mass:    21.01405 amu.
 Principal axes and moments of inertia in atomic units:
                           1         2         3
     Eigenvalues --     0.00000  39.87894  39.87894
           X            1.00000  -0.00000   0.00000
           Y            0.00000   1.00000   0.00000
           Z            0.00000   0.00000   1.00000
 This molecule is a prolate symmetric top.
 Rotational symmetry number  1.
 Rotational temperature (Kelvin)      2.17192
 Rotational constant (GHZ):          45.255496
    2 imaginary frequencies ignored.
 Zero-point vibrational energy     114859.7 (Joules/Mol)
                                   27.45213 (Kcal/Mol)
 Warning -- explicit consideration of   1 degrees of freedom as
           vibrations may cause significant error
 Vibrational temperatures:     63.15 27565.75
          (Kelvin)

 Zero-point correction=                           0.043748 (Hartree/Particle)
 Thermal correction to Energy=                    0.046956
 Thermal correction to Enthalpy=                  0.047900
 Thermal correction to Gibbs Free Energy=         0.022581
 Sum of electronic and zero-point Energies=           -100.225293
 Sum of electronic and thermal Energies=              -100.222085
 Sum of electronic and thermal Enthalpies=            -100.221141
 Sum of electronic and thermal Free Energies=         -100.246460

                     E (Thermal)             CV                S
                      KCal/Mol        Cal/Mol-Kelvin    Cal/Mol-Kelvin
 Total                   29.465              6.948             53.289
 Electronic               0.000              0.000              1.377
 Translational            0.889              2.981             35.068
 Rotational               0.592              1.987             11.768
 Vibrational             27.984              1.980              5.075
 Vibration     1          0.595              1.980              5.075

 Normal termination of Gaussian 16 at Fri Aug 22 15:37:32 2025.
