 Gaussian 16, Revision C.01,
 Gaussian 16:  ES64L-G16RevC.01  3-Jul-2019

 -----------------------------------------
 # sp b3lyp/6-311g** Force nosymm scf=(qc)
 -----------------------------------------

 -------------------
 Title Card Required
 -------------------
 Symbolic Z-matrix:
 Charge =  0 Multiplicity = 2

                          Input orientation:
 ---------------------------------------------------------------------
 Center     Atomic      Atomic             Coordinates (Angstroms)
 Number     Number       Type             X           Y           Z
 ---------------------------------------------------------------------
      1          1           0        0.000000    0.000000    0.000000
      2          1           0       -3.900000    0.000000    0.000000
      3          9           0        2.850000    0.000000    0.000000
 ---------------------------------------------------------------------

 SCF Done:  E(UB3LYP) =  -100.762074412     a.u. after   22 cycles

 Alpha  occ. eigenvalues --  -24.73489  -1.19592  -0.52606  -0.44175  -0.44175
 Alpha  occ. eigenvalues --   -0.32538
 Alpha virt. eigenvalues --   -0.08350   0.23780   0.36057   0.89740   0.92630
 Alpha virt. eigenvalues --    0.92630   1.04731   1.24960   1.24960   1.24987
 Alpha virt. eigenvalues --    1.43350   1.43350   1.44615   2.14325   2.40204

  Beta  occ. eigenvalues --  -24.70504  -1.11051  -0.41190  -0.41190  -0.34129
  Beta virt. eigenvalues --   -0.24427  -0.06039   0.23783   0.38120   0.94076
  Beta virt. eigenvalues --    0.94076   0.98106   1.08210   1.23179   1.23179
  Beta virt. eigenvalues --    1.24294   1.46501   1.46655   1.46655   2.14011

 Mulliken charges and spin densities:
               1          2
     1  H    0.049524  -0.944546
     2  H    0.000198   0.999232
     3  F   -0.049722   0.945314
 Sum of Mulliken charges =  -0.00000   1.00000

 Dipole moment (field-independent basis, Debye):
    X=             -0.7303    Y=             -0.0000    Z=             -0.0000  Tot=              0.7303
 Quadrupole moment (field-independent basis, Debye-Ang):
   XX=             -8.6543   YY=             -7.5974   ZZ=             -7.5974
   XY=             -0.0000   XZ=             -0.0000   YZ=             -0.0000

  Exact polarizability:      31.359       0.000       2.026      -0.000      -0.000       2.026
 Approx polarizability:      34.766      -0.000       1.924       0.000      -0.000       1.924

 ******    2 imaginary frequencies (negative Signs) ******

                      1                      2                      3
                      A                      A                      A
 Frequencies --   -425.5967               -76.8753               153.3391
 Red. masses --      1.0548                 1.0567                 1.0222
 Frc consts  --      0.1126                 0.0037                 0.0142
 IR Inten    --     50.9966                 0.0799                 2.3753

                      4
                      A
 Frequencies --    153.3392
 Red. masses --      1.0222
 Frc consts  --      0.0142
 IR Inten    --      2.3753

 - Thermochemistry -
 -------------------
 Temperature   298.150 Kelvin.  Pressure   1.00000 Atm.
 Atom     1 has atomic number  1 and mass   1.00783

 Molecular mass:    21.01405 amu.
 Principal axes and moments of inertia in atomic units:
                           1         2         3
     Eigenvalues --     0.00000 177.30532 177.30532
           X            1.00000  -0.00000   0.00000
           Y            0.00000   1.00000   0.00000
           Z            0.00000   0.00000   1.00000
 This molecule is a prolate symmetric top.
 Rotational symmetry number  1.
 Rotational temperature (Kelvin)      0.48850
 Rotational constant (GHZ):          10.178720
    2 imaginary frequencies ignored.
 Zero-point vibrational energy       1834.3 (Joules/Mol)
                                    0.43842 (Kcal/Mol)
 Warning -- explicit consideration of   2 degrees of freedom as
           vibrations may cause significant error
 Vibrational temperatures:    220.62   220.62
          (Kelvin)

 Zero-point correction=                           0.000699 (Hartree/Particle)
 Thermal correction to Energy=                    0.004334
 Thermal correction to Enthalpy=                  0.005278
 Thermal correction to Gibbs Free Energy=        -0.021538
 Sum of electronic and zero-point Energies=           -100.761376
 Sum of electronic and thermal Energies=              -100.757740
 Sum of electronic and thermal Enthalpies=            -100.756796
 Sum of electronic and thermal Free Energies=         -100.783612

                     E (Thermal)             CV                S
                      KCal/Mol        Cal/Mol-Kelvin    Cal/Mol-Kelvin
 Total                    2.720              8.766             56.439
 Electronic               0.000              0.000              1.377
 Translational            0.889              2.981             35.068
 Rotational               0.592              1.987             14.733
 Vibrational              1.239              3.798              5.261
 Vibration     1          0.619              1.899              2.630
 Vibration     2          0.619              1.899              2.630

 Normal termination of Gaussian 16 at Fri Aug 22 18:55:20 2025.
