 Gaussian 16, Revision C.01,
 Gaussian 16:  ES64L-G16RevC.01  3-Jul-2019

 -----------------------------------------
 # sp b3lyp/6-311g** Force nosymm scf=(qc)
 -----------------------------------------

 -------------------
 Title Card Required
 -------------------
 Symbolic Z-matrix:
 Charge =  0 Multiplicity = 2

                          Input orientation:
 ---------------------------------------------------------------------
 Center     Atomic      Atomic             Coordinates (Angstroms)
 Number     Number       Type             X           Y           Z
 ---------------------------------------------------------------------
      1          1           0        0.000000    0.000000    0.000000
      2          1           0       -2.400000    0.000000    0.000000
      3          9           0        1.750000    0.000000    0.000000
 ---------------------------------------------------------------------

 SCF Done:  E(UB3LYP) =  -100.814494518     a.u. after   18 cycles

 Alpha  occ. eigenvalues --  -24.65919  -1.12075  -0.44791  -0.37748  -0.37748
 Alpha  occ. eigenvalues --   -0.35788
 Alpha virt. eigenvalues --   -0.14393   0.23577   0.28808   0.94886   0.94886
 Alpha virt. eigenvalues --    0.95095   1.06475   1.21861   1.21861   1.25536
 Alpha virt. eigenvalues --    1.33561   1.33561   1.71895   2.12553   2.25359

  Beta  occ. eigenvalues --  -24.64170  -1.07281  -0.39408  -0.36047  -0.36047
  Beta virt. eigenvalues --   -0.19157  -0.09972   0.24487   0.34231   0.94805
  Beta virt. eigenvalues --    0.94805   0.96398   1.08458   1.25019   1.25019
  Beta virt. eigenvalues --    1.40297   1.40297   1.42407   1.68066   2.13305

 Mulliken charges and spin densities:
               1          2
     1  H    0.248643  -0.513252
     2  H    0.025300   0.963008
     3  F   -0.273942   0.550243
 Sum of Mulliken charges =   0.00000   1.00000

 Dipole moment (field-independent basis, Debye):
    X=             -2.6297    Y=              0.0000    Z=             -0.0000  Tot=              2.6297
 Quadrupole moment (field-independent basis, Debye-Ang):
   XX=             -9.4008   YY=             -7.4489   ZZ=             -7.4489
   XY=              0.0000   XZ=             -0.0000   YZ=             -0.0000

  Exact polarizability:      34.281       0.000       2.115      -0.000      -0.000       2.115
 Approx polarizability:      44.878       0.000       2.014      -0.000       0.000       2.014

 ******    2 imaginary frequencies (negative Signs) ******

                      1                      2                      3
                      A                      A                      A
 Frequencies --  -1683.3253              -409.9109               717.4612
 Red. masses --      1.0478                 1.0639                 1.0222
 Frc consts  --      1.7493                 0.1053                 0.3100
 IR Inten    --     82.3961                13.0811                49.7765

                      4
                      A
 Frequencies --    717.4612
 Red. masses --      1.0222
 Frc consts  --      0.3100
 IR Inten    --     49.7765

 - Thermochemistry -
 -------------------
 Temperature   298.150 Kelvin.  Pressure   1.00000 Atm.
 Atom     1 has atomic number  1 and mass   1.00783

 Molecular mass:    21.01405 amu.
 Principal axes and moments of inertia in atomic units:
                           1         2         3
     Eigenvalues --     0.00000  66.99744  66.99744
           X            1.00000  -0.00000   0.00000
           Y            0.00000   1.00000   0.00000
           Z            0.00000   0.00000   1.00000
 This molecule is a prolate symmetric top.
 Rotational symmetry number  1.
 Rotational temperature (Kelvin)      1.29279
 Rotational constant (GHZ):          26.937465
    2 imaginary frequencies ignored.
 Zero-point vibrational energy       8582.7 (Joules/Mol)
                                    2.05132 (Kcal/Mol)
 Vibrational temperatures:   1032.27  1032.27
          (Kelvin)

 Zero-point correction=                           0.003269 (Hartree/Particle)
 Thermal correction to Energy=                    0.005841
 Thermal correction to Enthalpy=                  0.006785
 Thermal correction to Gibbs Free Energy=        -0.016884
 Sum of electronic and zero-point Energies=           -100.811226
 Sum of electronic and thermal Energies=              -100.808653
 Sum of electronic and thermal Enthalpies=            -100.807709
 Sum of electronic and thermal Free Energies=         -100.831379

                     E (Thermal)             CV                S
                      KCal/Mol        Cal/Mol-Kelvin    Cal/Mol-Kelvin
 Total                    3.665              6.560             49.817
 Electronic               0.000              0.000              1.377
 Translational            0.889              2.981             35.068
 Rotational               0.592              1.987             12.799
 Vibrational              2.184              1.592              0.572

 Normal termination of Gaussian 16 at Fri Aug 22 16:40:50 2025.
