 Gaussian 16, Revision C.01,
 Gaussian 16:  ES64L-G16RevC.01  3-Jul-2019

 -----------------------------------------
 # sp b3lyp/6-311g** Force nosymm scf=(qc)
 -----------------------------------------

 -------------------
 Title Card Required
 -------------------
 Symbolic Z-matrix:
 Charge =  0 Multiplicity = 2

                          Input orientation:
 ---------------------------------------------------------------------
 Center     Atomic      Atomic             Coordinates (Angstroms)
 Number     Number       Type             X           Y           Z
 ---------------------------------------------------------------------
      1          1           0        0.000000    0.000000    0.000000
      2          1           0       -3.700000    0.000000    0.000000
      3          9           0        2.150000    0.000000    0.000000
 ---------------------------------------------------------------------

 SCF Done:  E(UB3LYP) =  -100.778720441     a.u. after   16 cycles

 Alpha  occ. eigenvalues --  -24.69403  -1.15720  -0.48447  -0.40755  -0.40755
 Alpha  occ. eigenvalues --   -0.33145
 Alpha virt. eigenvalues --   -0.12624   0.22749   0.33091   0.88258   0.94610
 Alpha virt. eigenvalues --    0.94610   1.05850   1.24362   1.24362   1.24405
 Alpha virt. eigenvalues --    1.37011   1.37011   1.53678   2.13940   2.31876

  Beta  occ. eigenvalues --  -24.66829  -1.08474  -0.38207  -0.38207  -0.37048
  Beta virt. eigenvalues --   -0.21678  -0.06574   0.22994   0.38037   0.90754
  Beta virt. eigenvalues --    0.95606   0.95606   1.08144   1.21524   1.21524
  Beta virt. eigenvalues --    1.44411   1.46243   1.46255   1.46255   2.11543

 Mulliken charges and spin densities:
               1          2
     1  H    0.154665  -0.808881
     2  H    0.000822   0.998649
     3  F   -0.155488   0.810233
 Sum of Mulliken charges =   0.00000   1.00000

 Dipole moment (field-independent basis, Debye):
    X=             -1.6835    Y=             -0.0000    Z=             -0.0000  Tot=              1.6835
 Quadrupole moment (field-independent basis, Debye-Ang):
   XX=             -9.8925   YY=             -7.5172   ZZ=             -7.5172
   XY=             -0.0000   XZ=             -0.0000   YZ=              0.0000

  Exact polarizability:      27.023      -0.000       2.044      -0.000      -0.000       2.044
 Approx polarizability:      37.875      -0.000       1.932      -0.000       0.000       1.932

 ******    2 imaginary frequencies (negative Signs) ******

                      1                      2                      3
                      A                      A                      A
 Frequencies --   -921.2728               -95.9061               386.8589
 Red. masses --      1.0571                 1.0544                 1.0256
 Frc consts  --      0.5286                 0.0057                 0.0904
 IR Inten    --    109.8747                 0.1049                22.8503

                      4
                      A
 Frequencies --    386.8589
 Red. masses --      1.0256
 Frc consts  --      0.0904
 IR Inten    --     22.8503

 - Thermochemistry -
 -------------------
 Temperature   298.150 Kelvin.  Pressure   1.00000 Atm.
 Atom     1 has atomic number  1 and mass   1.00783

 Molecular mass:    21.01405 amu.
 Principal axes and moments of inertia in atomic units:
                           1         2         3
     Eigenvalues --     0.00000 128.75664 128.75664
           X            1.00000  -0.00000   0.00000
           Y            0.00000   1.00000   0.00000
           Z            0.00000   0.00000   1.00000
 This molecule is a prolate symmetric top.
 Rotational symmetry number  1.
 Rotational temperature (Kelvin)      0.67269
 Rotational constant (GHZ):          14.016684
    2 imaginary frequencies ignored.
 Zero-point vibrational energy       4627.9 (Joules/Mol)
                                    1.10609 (Kcal/Mol)
 Warning -- explicit consideration of   2 degrees of freedom as
           vibrations may cause significant error
 Vibrational temperatures:    556.60   556.60
          (Kelvin)

 Zero-point correction=                           0.001763 (Hartree/Particle)
 Thermal correction to Energy=                    0.004768
 Thermal correction to Enthalpy=                  0.005712
 Thermal correction to Gibbs Free Energy=        -0.019264
 Sum of electronic and zero-point Energies=           -100.776958
 Sum of electronic and thermal Energies=              -100.773953
 Sum of electronic and thermal Enthalpies=            -100.773008
 Sum of electronic and thermal Free Energies=         -100.797985

                     E (Thermal)             CV                S
                      KCal/Mol        Cal/Mol-Kelvin    Cal/Mol-Kelvin
 Total                    2.992              7.965             52.567
 Electronic               0.000              0.000              1.377
 Translational            0.889              2.981             35.068
 Rotational               0.592              1.987             14.097
 Vibrational              1.511              2.996              2.024
 Vibration     1          0.755              1.498              1.012
 Vibration     2          0.755              1.498              1.012

 Normal termination of Gaussian 16 at Fri Aug 22 17:09:17 2025.
