 Gaussian 16, Revision C.01,
 Gaussian 16:  ES64L-G16RevC.01  3-Jul-2019

 -----------------------------------------
 # sp b3lyp/6-311g** Force nosymm scf=(qc)
 -----------------------------------------

 -------------------
 Title Card Required
 -------------------
 Symbolic Z-matrix:
 Charge =  0 Multiplicity = 2

                          Input orientation:
 ---------------------------------------------------------------------
 Center     Atomic      Atomic             Coordinates (Angstroms)
 Number     Number       Type             X           Y           Z
 ---------------------------------------------------------------------
      1          1           0        0.000000    0.000000    0.000000
      2          1           0       -1.250000    0.000000    0.000000
      3          9           0        1.250000    0.000000    0.000000
 ---------------------------------------------------------------------

 SCF Done:  E(UB3LYP) =  -100.930445337     a.u. after    8 cycles

 Alpha  occ. eigenvalues --  -24.64509  -1.12826  -0.51527  -0.38044  -0.37656
 Alpha  occ. eigenvalues --   -0.37656
 Alpha virt. eigenvalues --    0.02895   0.19647   0.31353   0.92003   0.92003
 Alpha virt. eigenvalues --    1.00512   1.10453   1.10453   1.16786   1.49678
 Alpha virt. eigenvalues --    1.49678   1.57185   2.05658   2.29333   2.44745

  Beta  occ. eigenvalues --  -24.63406  -1.09978  -0.45886  -0.36630  -0.36630
  Beta virt. eigenvalues --   -0.20982   0.06091   0.22720   0.34407   0.92584
  Beta virt. eigenvalues --    0.92584   1.03034   1.16976   1.16976   1.22712
  Beta virt. eigenvalues --    1.53174   1.53174   1.60199   2.14875   2.30772

 Mulliken charges and spin densities:
               1          2
     1  H    0.275593  -0.082175
     2  H    0.058940   0.756561
     3  F   -0.334533   0.325614
 Sum of Mulliken charges =   0.00000   1.00000

 Dipole moment (field-independent basis, Debye):
    X=             -2.5479    Y=              0.0000    Z=              0.0000  Tot=              2.5479
 Quadrupole moment (field-independent basis, Debye-Ang):
   XX=             -7.8763   YY=             -6.9647   ZZ=             -6.9647
   XY=              0.0000   XZ=              0.0000   YZ=             -0.0000

  Exact polarizability:      23.641       0.000       2.468      -0.000       0.000       2.468
 Approx polarizability:      31.897       0.000       2.448      -0.000       0.000       2.448

 ******    1 imaginary frequencies (negative Signs) ******

                      1                      2                      3
                      A                      A                      A
 Frequencies --  -2414.6143               691.7541              1116.8780
 Red. masses --      1.0216                 1.0923                 1.0179
 Frc consts  --      3.5095                 0.3080                 0.7481
 IR Inten    --     98.9192                37.7934                39.6547

                      4
                      A
 Frequencies --   1116.8780
 Red. masses --      1.0179
 Frc consts  --      0.7481
 IR Inten    --     39.6547

 - Thermochemistry -
 -------------------
 Temperature   298.150 Kelvin.  Pressure   1.00000 Atm.
 Atom     1 has atomic number  1 and mass   1.00783

 Molecular mass:    21.01405 amu.
 Principal axes and moments of inertia in atomic units:
                           1         2         3
     Eigenvalues --     0.00000  25.68997  25.68997
           X            1.00000  -0.00000   0.00000
           Y            0.00000   1.00000   0.00000
           Z            0.00000   0.00000   1.00000
 This molecule is a prolate symmetric top.
 Rotational symmetry number  1.
 Rotational temperature (Kelvin)      3.37151
 Rotational constant (GHZ):          70.250812
    1 imaginary frequencies ignored.
 Zero-point vibrational energy      17498.4 (Joules/Mol)
                                    4.18223 (Kcal/Mol)
 Vibrational temperatures:    995.28  1606.94  1606.94
          (Kelvin)

 Zero-point correction=                           0.006665 (Hartree/Particle)
 Thermal correction to Energy=                    0.009188
 Thermal correction to Enthalpy=                  0.010132
 Thermal correction to Gibbs Free Energy=        -0.012566
 Sum of electronic and zero-point Energies=           -100.923781
 Sum of electronic and thermal Energies=              -100.921257
 Sum of electronic and thermal Enthalpies=            -100.920313
 Sum of electronic and thermal Free Energies=         -100.943011

                     E (Thermal)             CV                S
                      KCal/Mol        Cal/Mol-Kelvin    Cal/Mol-Kelvin
 Total                    5.766              6.345             47.772
 Electronic               0.000              0.000              1.377
 Translational            0.889              2.981             35.068
 Rotational               0.592              1.987             10.894
 Vibrational              4.284              1.377              0.432

 Normal termination of Gaussian 16 at Fri Aug 22 16:12:02 2025.
