 Gaussian 16, Revision C.01,
 Gaussian 16:  ES64L-G16RevC.01  3-Jul-2019

 -----------------------------------------
 # sp b3lyp/6-311g** Force nosymm scf=(qc)
 -----------------------------------------

 -------------------
 Title Card Required
 -------------------
 Symbolic Z-matrix:
 Charge =  0 Multiplicity = 2

                          Input orientation:
 ---------------------------------------------------------------------
 Center     Atomic      Atomic             Coordinates (Angstroms)
 Number     Number       Type             X           Y           Z
 ---------------------------------------------------------------------
      1          1           0        0.000000    0.000000    0.000000
      2          1           0       -1.300000    0.000000    0.000000
      3          9           0        2.650000    0.000000    0.000000
 ---------------------------------------------------------------------

 SCF Done:  E(UB3LYP) =  -100.854699109     a.u. after   85 cycles

 Alpha  occ. eigenvalues --  -24.75815  -1.21728  -0.54897  -0.46229  -0.46135
 Alpha  occ. eigenvalues --   -0.35892
 Alpha virt. eigenvalues --   -0.06428   0.23440   0.33176   0.87698   0.91122
 Alpha virt. eigenvalues --    0.92480   1.06795   1.14701   1.14707   1.16163
 Alpha virt. eigenvalues --    1.48816   1.48821   1.98400   2.28390   2.53508

  Beta  occ. eigenvalues --  -24.72716  -1.12833  -0.43150  -0.43031  -0.35699
  Beta virt. eigenvalues --   -0.26069  -0.06116   0.23645   0.33521   0.92592
  Beta virt. eigenvalues --    0.93269   0.97211   1.10367   1.14892   1.14896
  Beta virt. eigenvalues --    1.16973   1.48984   1.48988   1.98639   2.28662

 Mulliken charges and spin densities:
               1          2
     1  H   -0.000804  -0.032539
     2  H    0.010581   0.051544
     3  F   -0.009777   0.980995
 Sum of Mulliken charges =  -0.00000   1.00000

 Dipole moment (field-independent basis, Debye):
    X=             -0.2202    Y=              0.0023    Z=              0.0016  Tot=              0.2203
 Quadrupole moment (field-independent basis, Debye-Ang):
   XX=             -6.1400   YY=             -7.3453   ZZ=             -7.4692
   XY=              0.3420   XZ=              0.2352   YZ=              0.1616

  Exact polarizability:     108.051      -0.010       2.211       0.557       0.074       2.158
 Approx polarizability:      47.093       0.068       2.254       0.047       0.108       2.171

 ******    2 imaginary frequencies (negative Signs) ******

                      1                      2                      3
                      A                      A                      A
 Frequencies --  -1295.5345              -222.0390              1359.8015
 Red. masses --      1.0101                 1.1058                 1.0116
 Frc consts  --      0.9989                 0.0321                 1.1021
 IR Inten    --   2305.2273                64.3608                 8.7674

                      4
                      A
 Frequencies --   1377.0326
 Red. masses --      1.0116
 Frc consts  --      1.1302
 IR Inten    --      1.8867

 - Thermochemistry -
 -------------------
 Temperature   298.150 Kelvin.  Pressure   1.00000 Atm.
 Atom     1 has atomic number  1 and mass   1.00783

 Molecular mass:    21.01405 amu.
 Principal axes and moments of inertia in atomic units:
                           1         2         3
     Eigenvalues --     0.00000  73.90881  73.90881
           X            1.00000  -0.00000   0.00000
           Y            0.00000   1.00000   0.00000
           Z            0.00000   0.00000   1.00000
 This molecule is a prolate symmetric top.
 Rotational symmetry number  1.
 Rotational temperature (Kelvin)      1.17190
 Rotational constant (GHZ):          24.418485
    2 imaginary frequencies ignored.
 Zero-point vibrational energy      16369.9 (Joules/Mol)
                                    3.91250 (Kcal/Mol)
 Vibrational temperatures:   1956.45  1981.24
          (Kelvin)

 Zero-point correction=                           0.006235 (Hartree/Particle)
 Thermal correction to Energy=                    0.008612
 Thermal correction to Enthalpy=                  0.009557
 Thermal correction to Gibbs Free Energy=        -0.013953
 Sum of electronic and zero-point Energies=           -100.848464
 Sum of electronic and thermal Energies=              -100.846087
 Sum of electronic and thermal Enthalpies=            -100.845143
 Sum of electronic and thermal Free Energies=         -100.868652

                     E (Thermal)             CV                S
                      KCal/Mol        Cal/Mol-Kelvin    Cal/Mol-Kelvin
 Total                    5.404              5.204             49.481
 Electronic               0.000              0.000              1.377
 Translational            0.889              2.981             35.068
 Rotational               0.592              1.987             12.994
 Vibrational              3.923              0.236              0.041

 Normal termination of Gaussian 16 at Fri Aug 22 18:13:16 2025.
