 Gaussian 16, Revision C.01,
 Gaussian 16:  ES64L-G16RevC.01  3-Jul-2019

 -----------------------------------------
 # sp b3lyp/6-311g** Force nosymm scf=(qc)
 -----------------------------------------

 -------------------
 Title Card Required
 -------------------
 Symbolic Z-matrix:
 Charge =  0 Multiplicity = 2

                          Input orientation:
 ---------------------------------------------------------------------
 Center     Atomic      Atomic             Coordinates (Angstroms)
 Number     Number       Type             X           Y           Z
 ---------------------------------------------------------------------
      1          1           0        0.000000    0.000000    0.000000
      2          1           0       -0.900000    0.000000    0.000000
      3          9           0        1.600000    0.000000    0.000000
 ---------------------------------------------------------------------

 SCF Done:  E(UB3LYP) =  -100.930405711     a.u. after    7 cycles

 Alpha  occ. eigenvalues --  -24.70973  -1.17747  -0.53706  -0.42417  -0.42417
 Alpha  occ. eigenvalues --   -0.42028
 Alpha virt. eigenvalues --    0.05052   0.20203   0.37864   0.89729   0.89729
 Alpha virt. eigenvalues --    0.97203   1.07195   1.07195   1.18704   1.66574
 Alpha virt. eigenvalues --    1.70298   1.70298   2.16637   2.35601   2.67773

  Beta  occ. eigenvalues --  -24.68368  -1.10532  -0.44571  -0.39868  -0.39868
  Beta virt. eigenvalues --   -0.23967   0.06835   0.21319   0.39496   0.90828
  Beta virt. eigenvalues --    0.90828   1.03680   1.09436   1.09436   1.21969
  Beta virt. eigenvalues --    1.69688   1.71620   1.71620   2.18350   2.38077

 Mulliken charges and spin densities:
               1          2
     1  H    0.108346  -0.070610
     2  H    0.040407   0.271751
     3  F   -0.148753   0.798860
 Sum of Mulliken charges =  -0.00000   1.00000

 Dipole moment (field-independent basis, Debye):
    X=             -1.3190    Y=             -0.0000    Z=              0.0000  Tot=              1.3190
 Quadrupole moment (field-independent basis, Debye-Ang):
   XX=             -6.9906   YY=             -6.9773   ZZ=             -6.9773
   XY=             -0.0000   XZ=              0.0000   YZ=              0.0000

  Exact polarizability:      25.850       0.000       2.302      -0.000       0.000       2.302
 Approx polarizability:      35.180      -0.000       2.319      -0.000       0.000       2.319

 ******    1 imaginary frequencies (negative Signs) ******

                      1                      2                      3
                      A                      A                      A
 Frequencies --   -790.9421              1184.5449              1184.5449
 Red. masses --      1.1015                 1.0125                 1.0125
 Frc consts  --      0.4060                 0.8370                 0.8370
 IR Inten    --    263.8437                 0.9480                 0.9480

                      4
                      A
 Frequencies --   2114.9207
 Red. masses --      1.0137
 Frc consts  --      2.6714
 IR Inten    --    709.6565

 - Thermochemistry -
 -------------------
 Temperature   298.150 Kelvin.  Pressure   1.00000 Atm.
 Atom     1 has atomic number  1 and mass   1.00783

 Molecular mass:    21.01405 amu.
 Principal axes and moments of inertia in atomic units:
                           1         2         3
     Eigenvalues --     0.00000  28.80574  28.80574
           X            1.00000  -0.00000   0.00000
           Y            0.00000   1.00000   0.00000
           Z            0.00000   0.00000   1.00000
 This molecule is a prolate symmetric top.
 Rotational symmetry number  1.
 Rotational temperature (Kelvin)      3.00683
 Rotational constant (GHZ):          62.652132
    1 imaginary frequencies ignored.
 Zero-point vibrational energy      26820.3 (Joules/Mol)
                                    6.41021 (Kcal/Mol)
 Vibrational temperatures:   1704.30  1704.30  3042.90
          (Kelvin)

 Zero-point correction=                           0.010215 (Hartree/Particle)
 Thermal correction to Energy=                    0.012612
 Thermal correction to Enthalpy=                  0.013556
 Thermal correction to Gibbs Free Energy=        -0.009087
 Sum of electronic and zero-point Energies=           -100.920190
 Sum of electronic and thermal Energies=              -100.917794
 Sum of electronic and thermal Enthalpies=            -100.916850
 Sum of electronic and thermal Free Energies=         -100.939493

                     E (Thermal)             CV                S
                      KCal/Mol        Cal/Mol-Kelvin    Cal/Mol-Kelvin
 Total                    7.914              5.406             47.656
 Electronic               0.000              0.000              1.377
 Translational            0.889              2.981             35.068
 Rotational               0.592              1.987             11.122
 Vibrational              6.433              0.438              0.089

 Normal termination of Gaussian 16 at Fri Aug 22 16:30:09 2025.
