 Gaussian 16, Revision C.01,
 Gaussian 16:  ES64L-G16RevC.01  3-Jul-2019

 -----------------------------------------
 # sp b3lyp/6-311g** Force nosymm scf=(qc)
 -----------------------------------------

 -------------------
 Title Card Required
 -------------------
 Symbolic Z-matrix:
 Charge =  0 Multiplicity = 2

                          Input orientation:
 ---------------------------------------------------------------------
 Center     Atomic      Atomic             Coordinates (Angstroms)
 Number     Number       Type             X           Y           Z
 ---------------------------------------------------------------------
      1          1           0        0.000000    0.000000    0.000000
      2          1           0       -0.750000    0.000000    0.000000
      3          9           0        1.100000    0.000000    0.000000
 ---------------------------------------------------------------------

 SCF Done:  E(UB3LYP) =  -100.938920863     a.u. after    6 cycles

 Alpha  occ. eigenvalues --  -24.67156  -1.18076  -0.61181  -0.40896  -0.40896
 Alpha  occ. eigenvalues --   -0.37077
 Alpha virt. eigenvalues --    0.12517   0.18673   0.51328   0.87631   0.87631
 Alpha virt. eigenvalues --    0.96007   1.09618   1.09618   1.46100   1.68653
 Alpha virt. eigenvalues --    1.76927   1.76927   2.03390   2.36009   3.42528

  Beta  occ. eigenvalues --  -24.65380  -1.13550  -0.53196  -0.39265  -0.39265
  Beta virt. eigenvalues --   -0.19433   0.14432   0.19911   0.56227   0.89348
  Beta virt. eigenvalues --    0.89348   0.99701   1.13651   1.13651   1.48575
  Beta virt. eigenvalues --    1.75661   1.80431   1.80431   2.03974   2.43145

 Mulliken charges and spin densities:
               1          2
     1  H    0.268041  -0.025350
     2  H   -0.016166   0.546448
     3  F   -0.251875   0.478902
 Sum of Mulliken charges =   0.00000   1.00000

 Dipole moment (field-independent basis, Debye):
    X=             -1.6059    Y=             -0.0000    Z=              0.0000  Tot=              1.6059
 Quadrupole moment (field-independent basis, Debye-Ang):
   XX=             -7.4185   YY=             -6.5949   ZZ=             -6.5949
   XY=              0.0000   XZ=              0.0000   YZ=             -0.0000

  Exact polarizability:      15.482      -0.000       2.509       0.000       0.000       2.509
 Approx polarizability:      19.427      -0.000       2.552      -0.000       0.000       2.552

 ******    2 imaginary frequencies (negative Signs) ******

                      1                      2                      3
                      A                      A                      A
 Frequencies --  -1604.1056             -1604.1056              1274.6885
 Red. masses --      1.0140                 1.0140                 1.1056
 Frc consts  --      1.5372                 1.5372                 1.0584
 IR Inten    --     20.1071                20.1071                 6.4684

                      4
                      A
 Frequencies --   3621.6650
 Red. masses --      1.0103
 Frc consts  --      7.8074
 IR Inten    --    290.3179

 - Thermochemistry -
 -------------------
 Temperature   298.150 Kelvin.  Pressure   1.00000 Atm.
 Atom     1 has atomic number  1 and mass   1.00783

 Molecular mass:    21.01405 amu.
 Principal axes and moments of inertia in atomic units:
                           1         2         3
     Eigenvalues --     0.00000  15.17030  15.17030
           X            1.00000  -0.00000   0.00000
           Y            0.00000   1.00000   0.00000
           Z            0.00000   0.00000   1.00000
 This molecule is a prolate symmetric top.
 Rotational symmetry number  1.
 Rotational temperature (Kelvin)      5.70944
 Rotational constant (GHZ):         118.965462
    2 imaginary frequencies ignored.
 Zero-point vibrational energy      29286.7 (Joules/Mol)
                                    6.99969 (Kcal/Mol)
 Vibrational temperatures:   1833.99  5210.77
          (Kelvin)

 Zero-point correction=                           0.011155 (Hartree/Particle)
 Thermal correction to Energy=                    0.013528
 Thermal correction to Enthalpy=                  0.014472
 Thermal correction to Gibbs Free Energy=        -0.007538
 Sum of electronic and zero-point Energies=           -100.927766
 Sum of electronic and thermal Energies=              -100.925393
 Sum of electronic and thermal Enthalpies=            -100.924449
 Sum of electronic and thermal Free Energies=         -100.946459

                     E (Thermal)             CV                S
                      KCal/Mol        Cal/Mol-Kelvin    Cal/Mol-Kelvin
 Total                    8.489              5.129             46.323
 Electronic               0.000              0.000              1.377
 Translational            0.889              2.981             35.068
 Rotational               0.592              1.987              9.848
 Vibrational              7.007              0.161              0.030

 Normal termination of Gaussian 16 at Fri Aug 22 16:04:27 2025.
