 Gaussian 16, Revision C.01,
 Gaussian 16:  ES64L-G16RevC.01  3-Jul-2019

 -----------------------------------------
 # sp b3lyp/6-311g** Force nosymm scf=(qc)
 -----------------------------------------

 -------------------
 Title Card Required
 -------------------
 Symbolic Z-matrix:
 Charge =  0 Multiplicity = 2

                          Input orientation:
 ---------------------------------------------------------------------
 Center     Atomic      Atomic             Coordinates (Angstroms)
 Number     Number       Type             X           Y           Z
 ---------------------------------------------------------------------
      1          1           0        0.000000    0.000000    0.000000
      2          1           0       -1.300000    0.000000    0.000000
      3          9           0        2.900000    0.000000    0.000000
 ---------------------------------------------------------------------

 SCF Done:  E(UB3LYP) =  -100.854410036     a.u. after   95 cycles

 Alpha  occ. eigenvalues --  -24.76787  -1.22599  -0.55784  -0.47057  -0.46933
 Alpha  occ. eigenvalues --   -0.35097
 Alpha virt. eigenvalues --   -0.05892   0.23787   0.33167   0.85685   0.90557
 Alpha virt. eigenvalues --    0.93282   1.04501   1.15524   1.15532   1.15923
 Alpha virt. eigenvalues --    1.49624   1.49632   1.99486   2.29352   2.53988

  Beta  occ. eigenvalues --  -24.73625  -1.13512  -0.43899  -0.43764  -0.35081
  Beta virt. eigenvalues --   -0.26406  -0.05873   0.23809   0.33249   0.92056
  Beta virt. eigenvalues --    0.94999   0.95142   1.08332   1.15524   1.15530
  Beta virt. eigenvalues --    1.15927   1.49623   1.49631   1.99494   2.29353

 Mulliken charges and spin densities:
               1          2
     1  H   -0.001084   0.000315
     2  H   -0.007855  -0.001544
     3  F    0.008939   1.001229
 Sum of Mulliken charges =   0.00000   1.00000

 Dipole moment (field-independent basis, Debye):
    X=              0.1268    Y=              0.0000    Z=              0.0000  Tot=              0.1268
 Quadrupole moment (field-independent basis, Debye-Ang):
   XX=             -6.1329   YY=             -7.1683   ZZ=             -7.1707
   XY=              0.0000   XZ=              0.0000   YZ=              0.4317

  Exact polarizability:      18.833      -0.000       2.308      -0.000       0.230       2.307
 Approx polarizability:      30.074       0.000       2.385       0.000       0.289       2.383

 ******    1 imaginary frequencies (negative Signs) ******

                      1                      2                      3
                      A                      A                      A
 Frequencies --   -970.5609                39.6390              1391.0080
 Red. masses --      1.0078                 1.1085                 1.0111
 Frc consts  --      0.5593                 0.0010                 1.1527
 IR Inten    --      1.7155                 0.8521                 0.0067

                      4
                      A
 Frequencies --   1391.7407
 Red. masses --      1.0111
 Frc consts  --      1.1539
 IR Inten    --      0.0059

 - Thermochemistry -
 -------------------
 Temperature   298.150 Kelvin.  Pressure   1.00000 Atm.
 Atom     1 has atomic number  1 and mass   1.00783

 Molecular mass:    21.01405 amu.
 Principal axes and moments of inertia in atomic units:
                           1         2         3
     Eigenvalues --     0.00000  85.05306  85.05306
           X            1.00000  -0.00000   0.00000
           Y            0.00000   1.00000   0.00000
           Z            0.00000   0.00000   1.00000
 This molecule is a prolate symmetric top.
 Rotational symmetry number  1.
 Rotational temperature (Kelvin)      1.01835
 Rotational constant (GHZ):          21.219004
    1 imaginary frequencies ignored.
 Zero-point vibrational energy      16881.6 (Joules/Mol)
                                    4.03481 (Kcal/Mol)
 Warning -- explicit consideration of   1 degrees of freedom as
           vibrations may cause significant error
 Vibrational temperatures:     57.03  2001.35  2002.40
          (Kelvin)

 Zero-point correction=                           0.006430 (Hartree/Particle)
 Thermal correction to Energy=                    0.009662
 Thermal correction to Enthalpy=                  0.010607
 Thermal correction to Gibbs Free Energy=        -0.015541
 Sum of electronic and zero-point Energies=           -100.847980
 Sum of electronic and thermal Energies=              -100.844748
 Sum of electronic and thermal Enthalpies=            -100.843803
 Sum of electronic and thermal Free Energies=         -100.869951

                     E (Thermal)             CV                S
                      KCal/Mol        Cal/Mol-Kelvin    Cal/Mol-Kelvin
 Total                    6.063              7.167             55.033
 Electronic               0.000              0.000              1.377
 Translational            0.889              2.981             35.068
 Rotational               0.592              1.987             13.273
 Vibrational              4.582              2.199              5.314
 Vibration     1          0.594              1.981              5.277

 Normal termination of Gaussian 16 at Fri Aug 22 19:00:34 2025.
