 Gaussian 16, Revision C.01,
 Gaussian 16:  ES64L-G16RevC.01  3-Jul-2019

 -----------------------------------------
 # sp b3lyp/6-311g** Force nosymm scf=(qc)
 -----------------------------------------

 -------------------
 Title Card Required
 -------------------
 Symbolic Z-matrix:
 Charge =  0 Multiplicity = 2

                          Input orientation:
 ---------------------------------------------------------------------
 Center     Atomic      Atomic             Coordinates (Angstroms)
 Number     Number       Type             X           Y           Z
 ---------------------------------------------------------------------
      1          1           0        0.000000    0.000000    0.000000
      2          1           0       -2.350000    0.000000    0.000000
      3          9           0        1.750000    0.000000    0.000000
 ---------------------------------------------------------------------

 SCF Done:  E(UB3LYP) =  -100.815040043     a.u. after   15 cycles

 Alpha  occ. eigenvalues --  -24.65900  -1.12063  -0.44796  -0.37732  -0.37732
 Alpha  occ. eigenvalues --   -0.35946
 Alpha virt. eigenvalues --   -0.14302   0.23634   0.28825   0.94904   0.94904
 Alpha virt. eigenvalues --    0.95030   1.06414   1.21719   1.21719   1.25889
 Alpha virt. eigenvalues --    1.33584   1.33584   1.71772   2.12218   2.25492

  Beta  occ. eigenvalues --  -24.64145  -1.07255  -0.39370  -0.36026  -0.36026
  Beta virt. eigenvalues --   -0.19222  -0.10101   0.24636   0.33971   0.94830
  Beta virt. eigenvalues --    0.94830   0.96399   1.08481   1.25082   1.25082
  Beta virt. eigenvalues --    1.39841   1.39841   1.42374   1.67961   2.13192

 Mulliken charges and spin densities:
               1          2
     1  H    0.245806  -0.510133
     2  H    0.027809   0.958355
     3  F   -0.273615   0.551777
 Sum of Mulliken charges =   0.00000   1.00000

 Dipole moment (field-independent basis, Debye):
    X=             -2.6497    Y=             -0.0000    Z=              0.0000  Tot=              2.6497
 Quadrupole moment (field-independent basis, Debye-Ang):
   XX=             -9.3410   YY=             -7.4500   ZZ=             -7.4500
   XY=             -0.0000   XZ=              0.0000   YZ=              0.0000

  Exact polarizability:      35.157      -0.000       2.116       0.000      -0.000       2.116
 Approx polarizability:      45.687      -0.000       2.016       0.000      -0.000       2.016

 ******    2 imaginary frequencies (negative Signs) ******

                      1                      2                      3
                      A                      A                      A
 Frequencies --  -1695.0916              -431.6643               720.7575
 Red. masses --      1.0464                 1.0653                 1.0219
 Frc consts  --      1.7715                 0.1170                 0.3128
 IR Inten    --     80.8112                14.1315                47.8787

                      4
                      A
 Frequencies --    720.7575
 Red. masses --      1.0219
 Frc consts  --      0.3128
 IR Inten    --     47.8787

 - Thermochemistry -
 -------------------
 Temperature   298.150 Kelvin.  Pressure   1.00000 Atm.
 Atom     1 has atomic number  1 and mass   1.00783

 Molecular mass:    21.01405 amu.
 Principal axes and moments of inertia in atomic units:
                           1         2         3
     Eigenvalues --     0.00000  65.61426  65.61426
           X            1.00000  -0.00000   0.00000
           Y            0.00000   1.00000   0.00000
           Z            0.00000   0.00000   1.00000
 This molecule is a prolate symmetric top.
 Rotational symmetry number  1.
 Rotational temperature (Kelvin)      1.32005
 Rotational constant (GHZ):          27.505321
    2 imaginary frequencies ignored.
 Zero-point vibrational energy       8622.2 (Joules/Mol)
                                    2.06075 (Kcal/Mol)
 Vibrational temperatures:   1037.01  1037.01
          (Kelvin)

 Zero-point correction=                           0.003284 (Hartree/Particle)
 Thermal correction to Energy=                    0.005854
 Thermal correction to Enthalpy=                  0.006798
 Thermal correction to Gibbs Free Energy=        -0.016849
 Sum of electronic and zero-point Energies=           -100.811756
 Sum of electronic and thermal Energies=              -100.809186
 Sum of electronic and thermal Enthalpies=            -100.808242
 Sum of electronic and thermal Free Energies=         -100.831889

                     E (Thermal)             CV                S
                      KCal/Mol        Cal/Mol-Kelvin    Cal/Mol-Kelvin
 Total                    3.673              6.548             49.768
 Electronic               0.000              0.000              1.377
 Translational            0.889              2.981             35.068
 Rotational               0.592              1.987             12.758
 Vibrational              2.192              1.580              0.565

 Normal termination of Gaussian 16 at Fri Aug 22 16:40:47 2025.
