 Gaussian 16, Revision C.01,
 Gaussian 16:  ES64L-G16RevC.01  3-Jul-2019

 -----------------------------------------
 # sp b3lyp/6-311g** Force nosymm scf=(qc)
 -----------------------------------------

 -------------------
 Title Card Required
 -------------------
 Symbolic Z-matrix:
 Charge =  0 Multiplicity = 2

                          Input orientation:
 ---------------------------------------------------------------------
 Center     Atomic      Atomic             Coordinates (Angstroms)
 Number     Number       Type             X           Y           Z
 ---------------------------------------------------------------------
      1          1           0        0.000000    0.000000    0.000000
      2          1           0       -3.050000    0.000000    0.000000
      3          9           0        3.700000    0.000000    0.000000
 ---------------------------------------------------------------------

 SCF Done:  E(UB3LYP) =  -100.759571062     a.u. after   29 cycles

 Alpha  occ. eigenvalues --  -24.75670  -1.21612  -0.54794  -0.46006  -0.46006
 Alpha  occ. eigenvalues --   -0.32375
 Alpha virt. eigenvalues --   -0.07721   0.24934   0.36393   0.87064   0.91302
 Alpha virt. eigenvalues --    0.91302   1.01397   1.25156   1.25156   1.25777
 Alpha virt. eigenvalues --    1.44273   1.44357   1.44357   2.15707   2.39723

  Beta  occ. eigenvalues --  -24.72538  -1.12609  -0.42867  -0.42867  -0.32672
  Beta virt. eigenvalues --   -0.25631  -0.07359   0.24733   0.36947   0.92797
  Beta virt. eigenvalues --    0.92797   0.96328   1.05476   1.24820   1.24820
  Beta virt. eigenvalues --    1.25415   1.44836   1.44922   1.44922   2.15858

 Mulliken charges and spin densities:
               1          2
     1  H    0.005924  -0.986313
     2  H    0.000390   0.993327
     3  F   -0.006313   0.992986
 Sum of Mulliken charges =   0.00000   1.00000

 Dipole moment (field-independent basis, Debye):
    X=             -0.1260    Y=              0.0000    Z=              0.0000  Tot=              0.1260
 Quadrupole moment (field-independent basis, Debye-Ang):
   XX=             -7.0771   YY=             -7.6339   ZZ=             -7.6339
   XY=             -0.0000   XZ=             -0.0000   YZ=              0.0000

  Exact polarizability:      20.195       0.000       2.025       0.000       0.000       2.025
 Approx polarizability:      15.015      -0.000       1.933      -0.000      -0.000       1.933

 ******    2 imaginary frequencies (negative Signs) ******

                      1                      2                      3
                      A                      A                      A
 Frequencies --   -327.1630              -105.0114               114.9971
 Red. masses --      1.0094                 1.1067                 1.0158
 Frc consts  --      0.0637                 0.0072                 0.0079
 IR Inten    --      3.1377                 2.1259                 0.0326

                      4
                      A
 Frequencies --    114.9971
 Red. masses --      1.0158
 Frc consts  --      0.0079
 IR Inten    --      0.0326

 - Thermochemistry -
 -------------------
 Temperature   298.150 Kelvin.  Pressure   1.00000 Atm.
 Atom     1 has atomic number  1 and mass   1.00783

 Molecular mass:    21.01405 amu.
 Principal axes and moments of inertia in atomic units:
                           1         2         3
     Eigenvalues --     0.00000 194.40115 194.40115
           X            1.00000  -0.00000   0.00000
           Y            0.00000   1.00000   0.00000
           Z            0.00000   0.00000   1.00000
 This molecule is a prolate symmetric top.
 Rotational symmetry number  1.
 Rotational temperature (Kelvin)      0.44554
 Rotational constant (GHZ):           9.283593
    2 imaginary frequencies ignored.
 Zero-point vibrational energy       1375.7 (Joules/Mol)
                                    0.32879 (Kcal/Mol)
 Warning -- explicit consideration of   2 degrees of freedom as
           vibrations may cause significant error
 Vibrational temperatures:    165.46   165.46
          (Kelvin)

 Zero-point correction=                           0.000524 (Hartree/Particle)
 Thermal correction to Energy=                    0.004297
 Thermal correction to Enthalpy=                  0.005241
 Thermal correction to Gibbs Free Energy=        -0.022187
 Sum of electronic and zero-point Energies=           -100.759047
 Sum of electronic and thermal Energies=              -100.755274
 Sum of electronic and thermal Enthalpies=            -100.754330
 Sum of electronic and thermal Free Energies=         -100.781758

                     E (Thermal)             CV                S
                      KCal/Mol        Cal/Mol-Kelvin    Cal/Mol-Kelvin
 Total                    2.696              8.842             57.727
 Electronic               0.000              0.000              1.377
 Translational            0.889              2.981             35.068
 Rotational               0.592              1.987             14.916
 Vibrational              1.215              3.874              6.366
 Vibration     1          0.608              1.937              3.183
 Vibration     2          0.608              1.937              3.183

 Normal termination of Gaussian 16 at Sat Aug 23 00:04:12 2025.
