 Gaussian 16, Revision C.01,
 Gaussian 16:  ES64L-G16RevC.01  3-Jul-2019

 -----------------------------------------
 # sp b3lyp/6-311g** Force nosymm scf=(qc)
 -----------------------------------------

 -------------------
 Title Card Required
 -------------------
 Symbolic Z-matrix:
 Charge =  0 Multiplicity = 2

                          Input orientation:
 ---------------------------------------------------------------------
 Center     Atomic      Atomic             Coordinates (Angstroms)
 Number     Number       Type             X           Y           Z
 ---------------------------------------------------------------------
      1          1           0        0.000000    0.000000    0.000000
      2          1           0       -2.400000    0.000000    0.000000
      3          9           0        2.200000    0.000000    0.000000
 ---------------------------------------------------------------------

 SCF Done:  E(UB3LYP) =  -100.781265859     a.u. after   16 cycles

 Alpha  occ. eigenvalues --  -24.69695  -1.15995  -0.48753  -0.40981  -0.40981
 Alpha  occ. eigenvalues --   -0.34627
 Alpha virt. eigenvalues --   -0.13182   0.24427   0.32061   0.89040   0.94572
 Alpha virt. eigenvalues --    0.94572   1.06438   1.23070   1.23070   1.26831
 Alpha virt. eigenvalues --    1.35887   1.35887   1.50694   2.13579   2.30391

  Beta  occ. eigenvalues --  -24.67072  -1.08593  -0.38381  -0.38381  -0.36581
  Beta virt. eigenvalues --   -0.22030  -0.10236   0.25701   0.34160   0.93050
  Beta virt. eigenvalues --    0.95670   0.95670   1.08936   1.21950   1.21950
  Beta virt. eigenvalues --    1.40486   1.40486   1.42222   1.42978   2.13003

 Mulliken charges and spin densities:
               1          2
     1  H    0.123911  -0.787003
     2  H    0.018730   0.960777
     3  F   -0.142641   0.826226
 Sum of Mulliken charges =   0.00000   1.00000

 Dipole moment (field-independent basis, Debye):
    X=             -1.7890    Y=              0.0000    Z=              0.0000  Tot=              1.7890
 Quadrupole moment (field-independent basis, Debye-Ang):
   XX=             -9.1216   YY=             -7.5722   ZZ=             -7.5722
   XY=              0.0000   XZ=              0.0000   YZ=              0.0000

  Exact polarizability:      43.057       0.000       2.032       0.000       0.000       2.032
 Approx polarizability:      48.998      -0.000       1.929      -0.000       0.000       1.929

 ******    2 imaginary frequencies (negative Signs) ******

                      1                      2                      3
                      A                      A                      A
 Frequencies --  -1044.1403              -418.8061               431.4614
 Red. masses --      1.0288                 1.0842                 1.0190
 Frc consts  --      0.6609                 0.1120                 0.1118
 IR Inten    --     73.0410                26.5955                12.1989

                      4
                      A
 Frequencies --    431.4614
 Red. masses --      1.0190
 Frc consts  --      0.1118
 IR Inten    --     12.1989

 - Thermochemistry -
 -------------------
 Temperature   298.150 Kelvin.  Pressure   1.00000 Atm.
 Atom     1 has atomic number  1 and mass   1.00783

 Molecular mass:    21.01405 amu.
 Principal axes and moments of inertia in atomic units:
                           1         2         3
     Eigenvalues --     0.00000  85.59288  85.59288
           X            1.00000  -0.00000   0.00000
           Y            0.00000   1.00000   0.00000
           Z            0.00000   0.00000   1.00000
 This molecule is a prolate symmetric top.
 Rotational symmetry number  1.
 Rotational temperature (Kelvin)      1.01193
 Rotational constant (GHZ):          21.085180
    2 imaginary frequencies ignored.
 Zero-point vibrational energy       5161.4 (Joules/Mol)
                                    1.23361 (Kcal/Mol)
 Warning -- explicit consideration of   2 degrees of freedom as
           vibrations may cause significant error
 Vibrational temperatures:    620.78   620.78
          (Kelvin)

 Zero-point correction=                           0.001966 (Hartree/Particle)
 Thermal correction to Energy=                    0.004886
 Thermal correction to Enthalpy=                  0.005831
 Thermal correction to Gibbs Free Energy=        -0.018610
 Sum of electronic and zero-point Energies=           -100.779300
 Sum of electronic and thermal Energies=              -100.776380
 Sum of electronic and thermal Enthalpies=            -100.775435
 Sum of electronic and thermal Free Energies=         -100.799876

                     E (Thermal)             CV                S
                      KCal/Mol        Cal/Mol-Kelvin    Cal/Mol-Kelvin
 Total                    3.066              7.771             51.439
 Electronic               0.000              0.000              1.377
 Translational            0.889              2.981             35.068
 Rotational               0.592              1.987             13.286
 Vibrational              1.585              2.803              1.708
 Vibration     1          0.793              1.402              0.854
 Vibration     2          0.793              1.402              0.854

 Normal termination of Gaussian 16 at Fri Aug 22 17:12:01 2025.
