 Gaussian 16, Revision C.01,
 Gaussian 16:  ES64L-G16RevC.01  3-Jul-2019

 -----------------------------------------
 # sp b3lyp/6-311g** Force nosymm scf=(qc)
 -----------------------------------------

 -------------------
 Title Card Required
 -------------------
 Symbolic Z-matrix:
 Charge =  0 Multiplicity = 2

                          Input orientation:
 ---------------------------------------------------------------------
 Center     Atomic      Atomic             Coordinates (Angstroms)
 Number     Number       Type             X           Y           Z
 ---------------------------------------------------------------------
      1          1           0        0.000000    0.000000    0.000000
      2          1           0       -0.500000    0.000000    0.000000
      3          9           0        2.900000    0.000000    0.000000
 ---------------------------------------------------------------------

 SCF Done:  E(UB3LYP) =  -100.862240538     a.u. after    5 cycles

 Alpha  occ. eigenvalues --  -24.76603  -1.22392  -0.55585  -0.49222  -0.46734
 Alpha  occ. eigenvalues --   -0.46689
 Alpha virt. eigenvalues --    0.10522   0.18591   0.56703   0.85889   0.90760
 Alpha virt. eigenvalues --    0.93955   1.08856   1.12211   1.12220   1.62102
 Alpha virt. eigenvalues --    1.86127   1.99745   1.99757   2.37045   3.64686

  Beta  occ. eigenvalues --  -24.73440  -1.13302  -0.49166  -0.43570  -0.43563
  Beta virt. eigenvalues --   -0.26204   0.10597   0.18636   0.56830   0.92258
  Beta virt. eigenvalues --    0.95344   0.95881   1.12210   1.12219   1.12354
  Beta virt. eigenvalues --    1.62131   1.86158   1.99745   1.99756   2.37052

 Mulliken charges and spin densities:
               1          2
     1  H   -0.010616  -0.002152
     2  H   -0.000853   0.000519
     3  F    0.011470   1.001633
 Sum of Mulliken charges =   0.00000   1.00000

 Dipole moment (field-independent basis, Debye):
    X=              0.0975    Y=             -0.0000    Z=              0.0000  Tot=              0.0975
 Quadrupole moment (field-independent basis, Debye-Ang):
   XX=             -5.9520   YY=             -5.7335   ZZ=             -6.5968
   XY=              0.0000   XZ=              0.0000   YZ=             -0.0059

  Exact polarizability:       5.872       0.000       2.269       0.000      -0.003       1.811
 Approx polarizability:       6.124       0.000       2.467       0.000      -0.004       1.893

 ******    2 imaginary frequencies (negative Signs) ******

                      1                      2                      3
                      A                      A                      A
 Frequencies --  -4822.2183             -4821.7663                89.8571
 Red. masses --      1.0085                 1.0085                 1.1085
 Frc consts  --     13.8166                13.8140                 0.0053
 IR Inten    --      0.0934                 0.0937                 0.1514

                      4
                      A
 Frequencies --   9960.3226
 Red. masses --      1.0078
 Frc consts  --     58.9091
 IR Inten    --      0.3534

 - Thermochemistry -
 -------------------
 Temperature   298.150 Kelvin.  Pressure   1.00000 Atm.
 Atom     1 has atomic number  1 and mass   1.00783

 Molecular mass:    21.01405 amu.
 Principal axes and moments of inertia in atomic units:
                           1         2         3
     Eigenvalues --     0.00000  65.02143  65.02143
           X            1.00000  -0.00000   0.00000
           Y            0.00000   1.00000   0.00000
           Z            0.00000   0.00000   1.00000
 This molecule is a prolate symmetric top.
 Rotational symmetry number  1.
 Rotational temperature (Kelvin)      1.33208
 Rotational constant (GHZ):          27.756097
    2 imaginary frequencies ignored.
 Zero-point vibrational energy      60113.4 (Joules/Mol)
                                   14.36745 (Kcal/Mol)
 Warning -- explicit consideration of   1 degrees of freedom as
           vibrations may cause significant error
 Vibrational temperatures:    129.28 14330.68
          (Kelvin)

 Zero-point correction=                           0.022896 (Hartree/Particle)
 Thermal correction to Energy=                    0.026011
 Thermal correction to Enthalpy=                  0.026955
 Thermal correction to Gibbs Free Energy=         0.001845
 Sum of electronic and zero-point Energies=           -100.839345
 Sum of electronic and thermal Energies=              -100.836230
 Sum of electronic and thermal Enthalpies=            -100.835286
 Sum of electronic and thermal Free Energies=         -100.860396

                     E (Thermal)             CV                S
                      KCal/Mol        Cal/Mol-Kelvin    Cal/Mol-Kelvin
 Total                   16.322              6.924             52.848
 Electronic               0.000              0.000              1.377
 Translational            0.889              2.981             35.068
 Rotational               0.592              1.987             12.740
 Vibrational             14.841              1.956              3.663
 Vibration     1          0.602              1.956              3.663

 Normal termination of Gaussian 16 at Fri Aug 22 18:55:28 2025.
