 Gaussian 16, Revision C.01,
 Gaussian 16:  ES64L-G16RevC.01  3-Jul-2019

 -----------------------------------------
 # sp b3lyp/6-311g** Force nosymm scf=(qc)
 -----------------------------------------

 -------------------
 Title Card Required
 -------------------
 Symbolic Z-matrix:
 Charge =  0 Multiplicity = 2

                          Input orientation:
 ---------------------------------------------------------------------
 Center     Atomic      Atomic             Coordinates (Angstroms)
 Number     Number       Type             X           Y           Z
 ---------------------------------------------------------------------
      1          1           0        0.000000    0.000000    0.000000
      2          1           0       -3.300000    0.000000    0.000000
      3          9           0        0.550000    0.000000    0.000000
 ---------------------------------------------------------------------

 SCF Done:  E(UB3LYP) =  -100.519250936     a.u. after    6 cycles

 Alpha  occ. eigenvalues --  -24.62692  -1.38431  -0.62257  -0.43632  -0.43632
 Alpha  occ. eigenvalues --   -0.33425
 Alpha virt. eigenvalues --    0.07819   0.25300   0.60309   0.91194   0.91216
 Alpha virt. eigenvalues --    0.91216   1.23594   1.24089   1.24089   1.36741
 Alpha virt. eigenvalues --    1.54137   1.54137   1.96804   2.15148   3.65611

  Beta  occ. eigenvalues --  -24.62692  -1.38428  -0.62257  -0.43632  -0.43632
  Beta virt. eigenvalues --   -0.05390   0.08473   0.39500   0.60375   0.91193
  Beta virt. eigenvalues --    0.91214   0.91214   1.35217   1.50430   1.50430
  Beta virt. eigenvalues --    1.51764   1.54139   1.54139   1.96739   2.45142

 Mulliken charges and spin densities:
               1          2
     1  H    0.199559   0.000684
     2  H    0.001078   0.998698
     3  F   -0.200636   0.000618
 Sum of Mulliken charges =   0.00000   1.00000

 Dipole moment (field-independent basis, Debye):
    X=             -1.3743    Y=             -0.0000    Z=             -0.0000  Tot=              1.3743
 Quadrupole moment (field-independent basis, Debye-Ang):
   XX=             -6.7839   YY=             -6.4955   ZZ=             -6.4955
   XY=             -0.0000   XZ=              0.0000   YZ=             -0.0000

  Exact polarizability:       3.400      -0.000       2.431       0.000      -0.000       2.431
 Approx polarizability:       3.566       0.000       2.409      -0.000      -0.000       2.409

 ******    3 imaginary frequencies (negative Signs) ******

                      1                      2                      3
                      A                      A                      A
 Frequencies --  -7502.3741             -7502.3741               -29.3553
 Red. masses --      1.0442                 1.0442                 1.0532
 Frc consts  --     34.6284                34.6284                 0.0005
 IR Inten    --    257.1235               257.1235                 0.0388

                      4
                      A
 Frequencies --  15777.8726
 Red. masses --      1.0583
 Frc consts  --    155.2246
 IR Inten    --     89.9429

 - Thermochemistry -
 -------------------
 Temperature   298.150 Kelvin.  Pressure   1.00000 Atm.
 Atom     1 has atomic number  1 and mass   1.00783

 Molecular mass:    21.01405 amu.
 Principal axes and moments of inertia in atomic units:
                           1         2         3
     Eigenvalues --     0.00000  51.09333  51.09333
           X            1.00000  -0.00000   0.00000
           Y            0.00000   1.00000   0.00000
           Z            0.00000   0.00000   1.00000
 This molecule is a prolate symmetric top.
 Rotational symmetry number  1.
 Rotational temperature (Kelvin)      1.69521
 Rotational constant (GHZ):          35.322439
    3 imaginary frequencies ignored.
 Zero-point vibrational energy      94372.6 (Joules/Mol)
                                   22.55560 (Kcal/Mol)
 Vibrational temperatures:  22700.84
          (Kelvin)

 Zero-point correction=                           0.035945 (Hartree/Particle)
 Thermal correction to Energy=                    0.038305
 Thermal correction to Enthalpy=                  0.039249
 Thermal correction to Gibbs Free Energy=         0.016107
 Sum of electronic and zero-point Energies=           -100.483306
 Sum of electronic and thermal Energies=              -100.480946
 Sum of electronic and thermal Enthalpies=            -100.480002
 Sum of electronic and thermal Free Energies=         -100.503143

                     E (Thermal)             CV                S
                      KCal/Mol        Cal/Mol-Kelvin    Cal/Mol-Kelvin
 Total                   24.037              4.968             48.706
 Electronic               0.000              0.000              1.377
 Translational            0.889              2.981             35.068
 Rotational               0.592              1.987             12.261
 Vibrational             22.556              0.000              0.000

 Normal termination of Gaussian 16 at Fri Aug 22 15:40:10 2025.
