 Gaussian 16, Revision C.01,
 Gaussian 16:  ES64L-G16RevC.01  3-Jul-2019

 -----------------------------------------
 # sp b3lyp/6-311g** Force nosymm scf=(qc)
 -----------------------------------------

 -------------------
 Title Card Required
 -------------------
 Symbolic Z-matrix:
 Charge =  0 Multiplicity = 2

                          Input orientation:
 ---------------------------------------------------------------------
 Center     Atomic      Atomic             Coordinates (Angstroms)
 Number     Number       Type             X           Y           Z
 ---------------------------------------------------------------------
      1          1           0        0.000000    0.000000    0.000000
      2          1           0       -1.650000    0.000000    0.000000
      3          9           0        3.750000    0.000000    0.000000
 ---------------------------------------------------------------------

 SCF Done:  E(UB3LYP) =  -100.800080810     a.u. after   77 cycles

 Alpha  occ. eigenvalues --  -24.76245  -1.22141  -0.55344  -0.46521  -0.46500
 Alpha  occ. eigenvalues --   -0.33159
 Alpha virt. eigenvalues --   -0.10422   0.25592   0.30751   0.86028   0.90905
 Alpha virt. eigenvalues --    0.91516   1.00979   1.06955   1.23202   1.23204
 Alpha virt. eigenvalues --    1.38798   1.38801   1.71047   2.18102   2.42666

  Beta  occ. eigenvalues --  -24.73091  -1.13069  -0.43362  -0.43337  -0.33151
  Beta virt. eigenvalues --   -0.25994  -0.10453   0.25572   0.30798   0.92406
  Beta virt. eigenvalues --    0.92977   0.95495   1.05103   1.06952   1.23197
  Beta virt. eigenvalues --    1.23200   1.38790   1.38791   1.71069   2.18245

 Mulliken charges and spin densities:
               1          2
     1  H    0.000807  -0.540803
     2  H   -0.002092   0.540775
     3  F    0.001285   1.000028
 Sum of Mulliken charges =   0.00000   1.00000

 Dipole moment (field-independent basis, Debye):
    X=              0.0305    Y=             -0.0000    Z=              0.0000  Tot=              0.0305
 Quadrupole moment (field-independent basis, Debye-Ang):
   XX=             -6.5183   YY=             -7.3342   ZZ=             -7.3423
   XY=             -0.0000   XZ=              0.0000   YZ=             -0.4323

  Exact polarizability:      23.749      -0.000       2.258       0.000      -0.233       2.253
 Approx polarizability:      39.619      -0.000       2.285       0.000      -0.291       2.280

 ******    2 imaginary frequencies (negative Signs) ******

                      1                      2                      3
                      A                      A                      A
 Frequencies --  -1987.9849               -45.0175               980.9706
 Red. masses --      1.0078                 1.1085                 1.0110
 Frc consts  --      2.3467                 0.0013                 0.5732
 IR Inten    --      0.0212                 0.0714                 0.0018

                      4
                      A
 Frequencies --    981.0109
 Red. masses --      1.0110
 Frc consts  --      0.5733
 IR Inten    --      0.0017

 - Thermochemistry -
 -------------------
 Temperature   298.150 Kelvin.  Pressure   1.00000 Atm.
 Atom     1 has atomic number  1 and mass   1.00783

 Molecular mass:    21.01405 amu.
 Principal axes and moments of inertia in atomic units:
                           1         2         3
     Eigenvalues --     0.00000 141.10706 141.10706
           X            1.00000  -0.00000   0.00000
           Y            0.00000   1.00000   0.00000
           Z            0.00000   0.00000   1.00000
 This molecule is a prolate symmetric top.
 Rotational symmetry number  1.
 Rotational temperature (Kelvin)      0.61382
 Rotational constant (GHZ):          12.789871
    2 imaginary frequencies ignored.
 Zero-point vibrational energy      11735.3 (Joules/Mol)
                                    2.80479 (Kcal/Mol)
 Vibrational temperatures:   1411.40  1411.46
          (Kelvin)

 Zero-point correction=                           0.004470 (Hartree/Particle)
 Thermal correction to Energy=                    0.006909
 Thermal correction to Enthalpy=                  0.007854
 Thermal correction to Gibbs Free Energy=        -0.016343
 Sum of electronic and zero-point Energies=           -100.795611
 Sum of electronic and thermal Energies=              -100.793171
 Sum of electronic and thermal Enthalpies=            -100.792227
 Sum of electronic and thermal Free Energies=         -100.816424

                     E (Thermal)             CV                S
                      KCal/Mol        Cal/Mol-Kelvin    Cal/Mol-Kelvin
 Total                    4.336              5.765             50.927
 Electronic               0.000              0.000              1.377
 Translational            0.889              2.981             35.068
 Rotational               0.592              1.987             14.279
 Vibrational              2.855              0.797              0.202

 Normal termination of Gaussian 16 at Sat Aug 23 00:21:15 2025.
