 Gaussian 16, Revision C.01,
 Gaussian 16:  ES64L-G16RevC.01  3-Jul-2019

 -----------------------------------------
 # sp b3lyp/6-311g** Force nosymm scf=(qc)
 -----------------------------------------

 -------------------
 Title Card Required
 -------------------
 Symbolic Z-matrix:
 Charge =  0 Multiplicity = 2

                          Input orientation:
 ---------------------------------------------------------------------
 Center     Atomic      Atomic             Coordinates (Angstroms)
 Number     Number       Type             X           Y           Z
 ---------------------------------------------------------------------
      1          1           0        0.000000    0.000000    0.000000
      2          1           0       -0.500000    0.000000    0.000000
      3          9           0        3.350000    0.000000    0.000000
 ---------------------------------------------------------------------

 SCF Done:  E(UB3LYP) =  -100.861921525     a.u. after   74 cycles

 Alpha  occ. eigenvalues --  -24.76402  -1.22233  -0.55432  -0.49251  -0.46606
 Alpha  occ. eigenvalues --   -0.46584
 Alpha virt. eigenvalues --    0.10057   0.18336   0.55682   0.86000   0.90874
 Alpha virt. eigenvalues --    0.93754   1.03886   1.12097   1.12102   1.61565
 Alpha virt. eigenvalues --    1.85770   1.99629   1.99634   2.36325   3.64806

  Beta  occ. eigenvalues --  -24.73242  -1.13150  -0.49242  -0.43444  -0.43416
  Beta virt. eigenvalues --   -0.26064   0.10096   0.18355   0.55791   0.92373
  Beta virt. eigenvalues --    0.95437   0.95461   1.07684   1.12097   1.12101
  Beta virt. eigenvalues --    1.61582   1.85804   1.99628   1.99634   2.36327

 Mulliken charges and spin densities:
               1          2
     1  H   -0.005735  -0.001072
     2  H   -0.000702   0.000283
     3  F    0.006437   1.000789
 Sum of Mulliken charges =   0.00000   1.00000

 Dipole moment (field-independent basis, Debye):
    X=              0.0623    Y=              0.0000    Z=              0.0000  Tot=              0.0623
 Quadrupole moment (field-independent basis, Debye-Ang):
   XX=             -6.0369   YY=             -5.7409   ZZ=             -6.5793
   XY=              0.0000   XZ=              0.0000   YZ=              0.1041

  Exact polarizability:       5.616       0.000       2.258       0.000       0.056       1.808
 Approx polarizability:       5.904       0.000       2.454       0.000       0.070       1.891

 ******    2 imaginary frequencies (negative Signs) ******

                      1                      2                      3
                      A                      A                      A
 Frequencies --  -4828.2743             -4828.0270                25.1964
 Red. masses --      1.0083                 1.0083                 1.1085
 Frc consts  --     13.8493                13.8479                 0.0004
 IR Inten    --      0.0263                 0.0245                 0.1413

                      4
                      A
 Frequencies --   9960.4341
 Red. masses --      1.0078
 Frc consts  --     58.9104
 IR Inten    --      0.0956

 - Thermochemistry -
 -------------------
 Temperature   298.150 Kelvin.  Pressure   1.00000 Atm.
 Atom     1 has atomic number  1 and mass   1.00783

 Molecular mass:    21.01405 amu.
 Principal axes and moments of inertia in atomic units:
                           1         2         3
     Eigenvalues --     0.00000  84.78823  84.78823
           X            1.00000  -0.00000   0.00000
           Y            0.00000   1.00000   0.00000
           Z            0.00000   0.00000   1.00000
 This molecule is a prolate symmetric top.
 Rotational symmetry number  1.
 Rotational temperature (Kelvin)      1.02153
 Rotational constant (GHZ):          21.285279
    2 imaginary frequencies ignored.
 Zero-point vibrational energy      59727.3 (Joules/Mol)
                                   14.27518 (Kcal/Mol)
 Warning -- explicit consideration of   1 degrees of freedom as
           vibrations may cause significant error
 Vibrational temperatures:     36.25 14330.84
          (Kelvin)

 Zero-point correction=                           0.022749 (Hartree/Particle)
 Thermal correction to Energy=                    0.025997
 Thermal correction to Enthalpy=                  0.026942
 Thermal correction to Gibbs Free Energy=         0.000387
 Sum of electronic and zero-point Energies=           -100.839173
 Sum of electronic and thermal Energies=              -100.835924
 Sum of electronic and thermal Enthalpies=            -100.834980
 Sum of electronic and thermal Free Energies=         -100.861534

                     E (Thermal)             CV                S
                      KCal/Mol        Cal/Mol-Kelvin    Cal/Mol-Kelvin
 Total                   16.314              6.953             55.888
 Electronic               0.000              0.000              1.377
 Translational            0.889              2.981             35.068
 Rotational               0.592              1.987             13.267
 Vibrational             14.832              1.985              6.176
 Vibration     1          0.593              1.985              6.176

 Normal termination of Gaussian 16 at Fri Aug 22 20:50:54 2025.
