 Gaussian 16, Revision C.01,
 Gaussian 16:  ES64L-G16RevC.01  3-Jul-2019

 -----------------------------------------
 # sp b3lyp/6-311g** Force nosymm scf=(qc)
 -----------------------------------------

 -------------------
 Title Card Required
 -------------------
 Symbolic Z-matrix:
 Charge =  0 Multiplicity = 2

                          Input orientation:
 ---------------------------------------------------------------------
 Center     Atomic      Atomic             Coordinates (Angstroms)
 Number     Number       Type             X           Y           Z
 ---------------------------------------------------------------------
      1          1           0        0.000000    0.000000    0.000000
      2          1           0       -3.000000    0.000000    0.000000
      3          9           0        2.200000    0.000000    0.000000
 ---------------------------------------------------------------------

 SCF Done:  E(UB3LYP) =  -100.775789660     a.u. after   20 cycles

 Alpha  occ. eigenvalues --  -24.66876  -1.08460  -0.38236  -0.38236  -0.36975
 Alpha  occ. eigenvalues --   -0.33259
 Alpha virt. eigenvalues --   -0.21798   0.21452   0.27707   0.91965   0.95752
 Alpha virt. eigenvalues --    0.95752   1.08529   1.21516   1.21516   1.23959
 Alpha virt. eigenvalues --    1.23959   1.24533   1.42249   2.12646   2.14689

  Beta  occ. eigenvalues --  -24.69482  -1.15809  -0.48534  -0.40819  -0.40819
  Beta virt. eigenvalues --   -0.12938  -0.04719   0.32089   0.39516   0.88965
  Beta virt. eigenvalues --    0.94680   0.94680   1.06572   1.37546   1.37546
  Beta virt. eigenvalues --    1.47414   1.47414   1.47760   1.52330   2.33218

 Mulliken charges and spin densities:
               1          2
     1  H    0.144839   0.824878
     2  H    0.004317   0.995778
     3  F   -0.149156  -0.820657
 Sum of Mulliken charges =   0.00000   1.00000

 Dipole moment (field-independent basis, Debye):
    X=             -1.7062    Y=             -0.0000    Z=              0.0000  Tot=              1.7062
 Quadrupole moment (field-independent basis, Debye-Ang):
   XX=             -9.8518   YY=             -7.5124   ZZ=             -7.5124
   XY=             -0.0000   XZ=              0.0000   YZ=             -0.0000

  Exact polarizability:      33.446      -0.000       2.040       0.000      -0.000       2.040
 Approx polarizability:      45.370      -0.000       1.931       0.000       0.000       1.931

 ******    1 imaginary frequencies (negative Signs) ******

                      1                      2                      3
                      A                      A                      A
 Frequencies --   -840.2617               141.0355               349.4196
 Red. masses --      1.0623                 1.0493                 1.0221
 Frc consts  --      0.4419                 0.0123                 0.0735
 IR Inten    --     78.6369                 2.1075                19.0316

                      4
                      A
 Frequencies --    349.4196
 Red. masses --      1.0221
 Frc consts  --      0.0735
 IR Inten    --     19.0316

 - Thermochemistry -
 -------------------
 Temperature   298.150 Kelvin.  Pressure   1.00000 Atm.
 Atom     1 has atomic number  1 and mass   1.00783

 Molecular mass:    21.01405 amu.
 Principal axes and moments of inertia in atomic units:
                           1         2         3
     Eigenvalues --     0.00000 105.28444 105.28444
           X            1.00000  -0.00000   0.00000
           Y            0.00000   1.00000   0.00000
           Z            0.00000   0.00000   1.00000
 This molecule is a prolate symmetric top.
 Rotational symmetry number  1.
 Rotational temperature (Kelvin)      0.82267
 Rotational constant (GHZ):          17.141576
    1 imaginary frequencies ignored.
 Zero-point vibrational energy       5023.6 (Joules/Mol)
                                    1.20066 (Kcal/Mol)
 Warning -- explicit consideration of   3 degrees of freedom as
           vibrations may cause significant error
 Vibrational temperatures:    202.92   502.74   502.74
          (Kelvin)

 Zero-point correction=                           0.001913 (Hartree/Particle)
 Thermal correction to Energy=                    0.005657
 Thermal correction to Enthalpy=                  0.006601
 Thermal correction to Gibbs Free Energy=        -0.019660
 Sum of electronic and zero-point Energies=           -100.773876
 Sum of electronic and thermal Energies=              -100.770133
 Sum of electronic and thermal Enthalpies=            -100.769189
 Sum of electronic and thermal Free Energies=         -100.795449

                     E (Thermal)             CV                S
                      KCal/Mol        Cal/Mol-Kelvin    Cal/Mol-Kelvin
 Total                    3.550             10.033             55.270
 Electronic               0.000              0.000              1.377
 Translational            0.889              2.981             35.068
 Rotational               0.592              1.987             13.697
 Vibrational              2.068              5.065              5.127
 Vibration     1          0.615              1.912              2.790
 Vibration     2          0.727              1.576              1.169
 Vibration     3          0.727              1.576              1.169

 Normal termination of Gaussian 16 at Fri Aug 22 17:12:37 2025.
