 Gaussian 16, Revision C.01,
 Gaussian 16:  ES64L-G16RevC.01  3-Jul-2019

 -----------------------------------------
 # sp b3lyp/6-311g** Force nosymm scf=(qc)
 -----------------------------------------

 -------------------
 Title Card Required
 -------------------
 Symbolic Z-matrix:
 Charge =  0 Multiplicity = 2

                          Input orientation:
 ---------------------------------------------------------------------
 Center     Atomic      Atomic             Coordinates (Angstroms)
 Number     Number       Type             X           Y           Z
 ---------------------------------------------------------------------
      1          1           0        0.000000    0.000000    0.000000
      2          1           0       -2.450000    0.000000    0.000000
      3          9           0        2.750000    0.000000    0.000000
 ---------------------------------------------------------------------

 SCF Done:  E(UB3LYP) =  -100.767657451     a.u. after   22 cycles

 Alpha  occ. eigenvalues --  -24.73108  -1.19231  -0.52219  -0.43850  -0.43850
 Alpha  occ. eigenvalues --   -0.33457
 Alpha virt. eigenvalues --   -0.11262   0.25161   0.33264   0.90232   0.92862
 Alpha virt. eigenvalues --    0.92862   1.05523   1.24218   1.24218   1.26518
 Alpha virt. eigenvalues --    1.38692   1.38692   1.41465   2.14852   2.35208

  Beta  occ. eigenvalues --  -24.70153  -1.10785  -0.40897  -0.40897  -0.34453
  Beta virt. eigenvalues --   -0.24226  -0.09611   0.25779   0.34551   0.94295
  Beta virt. eigenvalues --    0.94295   0.98505   1.09203   1.23070   1.23070
  Beta virt. eigenvalues --    1.26032   1.41370   1.41370   1.43461   2.15496

 Mulliken charges and spin densities:
               1          2
     1  H    0.048602  -0.901365
     2  H    0.009045   0.966101
     3  F   -0.057648   0.935264
 Sum of Mulliken charges =   0.00000   1.00000

 Dipole moment (field-independent basis, Debye):
    X=             -0.9173    Y=             -0.0000    Z=             -0.0000  Tot=              0.9173
 Quadrupole moment (field-independent basis, Debye-Ang):
   XX=             -8.3520   YY=             -7.6406   ZZ=             -7.6406
   XY=             -0.0000   XZ=             -0.0000   YZ=              0.0000

  Exact polarizability:      46.252      -0.000       2.012      -0.000       0.000       2.012
 Approx polarizability:      45.474      -0.000       1.919      -0.000      -0.000       1.919

 ******    2 imaginary frequencies (negative Signs) ******

                      1                      2                      3
                      A                      A                      A
 Frequencies --   -784.8722              -294.7503               300.7476
 Red. masses --      1.0123                 1.1032                 1.0166
 Frc consts  --      0.3674                 0.0565                 0.0542
 IR Inten    --     34.7673                26.4642                 1.8433

                      4
                      A
 Frequencies --    300.7476
 Red. masses --      1.0166
 Frc consts  --      0.0542
 IR Inten    --      1.8433

 - Thermochemistry -
 -------------------
 Temperature   298.150 Kelvin.  Pressure   1.00000 Atm.
 Atom     1 has atomic number  1 and mass   1.00783

 Molecular mass:    21.01405 amu.
 Principal axes and moments of inertia in atomic units:
                           1         2         3
     Eigenvalues --     0.00000 113.62550 113.62550
           X            1.00000  -0.00000   0.00000
           Y            0.00000   1.00000   0.00000
           Z            0.00000   0.00000   1.00000
 This molecule is a prolate symmetric top.
 Rotational symmetry number  1.
 Rotational temperature (Kelvin)      0.76228
 Rotational constant (GHZ):          15.883240
    2 imaginary frequencies ignored.
 Zero-point vibrational energy       3597.7 (Joules/Mol)
                                    0.85988 (Kcal/Mol)
 Warning -- explicit consideration of   2 degrees of freedom as
           vibrations may cause significant error
 Vibrational temperatures:    432.71   432.71
          (Kelvin)

 Zero-point correction=                           0.001370 (Hartree/Particle)
 Thermal correction to Energy=                    0.004569
 Thermal correction to Enthalpy=                  0.005513
 Thermal correction to Gibbs Free Energy=        -0.019726
 Sum of electronic and zero-point Energies=           -100.766287
 Sum of electronic and thermal Energies=              -100.763088
 Sum of electronic and thermal Enthalpies=            -100.762144
 Sum of electronic and thermal Free Energies=         -100.787383

                     E (Thermal)             CV                S
                      KCal/Mol        Cal/Mol-Kelvin    Cal/Mol-Kelvin
 Total                    2.867              8.313             53.120
 Electronic               0.000              0.000              1.377
 Translational            0.889              2.981             35.068
 Rotational               0.592              1.987             13.849
 Vibrational              1.386              3.345              2.825
 Vibration     1          0.693              1.672              1.413
 Vibration     2          0.693              1.672              1.413

 Normal termination of Gaussian 16 at Fri Aug 22 18:34:06 2025.
