 Gaussian 16, Revision C.01,
 Gaussian 16:  ES64L-G16RevC.01  3-Jul-2019

 -----------------------------------------
 # sp b3lyp/6-311g** Force nosymm scf=(qc)
 -----------------------------------------

 -------------------
 Title Card Required
 -------------------
 Symbolic Z-matrix:
 Charge =  0 Multiplicity = 2

                          Input orientation:
 ---------------------------------------------------------------------
 Center     Atomic      Atomic             Coordinates (Angstroms)
 Number     Number       Type             X           Y           Z
 ---------------------------------------------------------------------
      1          1           0        0.000000    0.000000    0.000000
      2          1           0       -0.550000    0.000000    0.000000
      3          9           0        0.950000    0.000000    0.000000
 ---------------------------------------------------------------------

 SCF Done:  E(UB3LYP) =  -100.835905760     a.u. after    6 cycles

 Alpha  occ. eigenvalues --  -24.67824  -1.23549  -0.68349  -0.42894  -0.42894
 Alpha  occ. eigenvalues --   -0.33199
 Alpha virt. eigenvalues --    0.14352   0.18154   0.69313   0.86332   0.86332
 Alpha virt. eigenvalues --    0.93327   1.12823   1.12823   1.48678   1.71536
 Alpha virt. eigenvalues --    1.86597   1.88662   1.88662   2.75423   3.78050

  Beta  occ. eigenvalues --  -24.66013  -1.18939  -0.60552  -0.41264  -0.41264
  Beta virt. eigenvalues --   -0.15073   0.16713   0.18861   0.73919   0.88268
  Beta virt. eigenvalues --    0.88268   0.96918   1.16704   1.16704   1.50892
  Beta virt. eigenvalues --    1.78441   1.88928   1.92769   1.92769   2.81481

 Mulliken charges and spin densities:
               1          2
     1  H    0.276178  -0.022061
     2  H   -0.082535   0.590876
     3  F   -0.193643   0.431184
 Sum of Mulliken charges =   0.00000   1.00000

 Dipole moment (field-independent basis, Debye):
    X=             -1.1628    Y=              0.0000    Z=             -0.0000  Tot=              1.1628
 Quadrupole moment (field-independent basis, Debye-Ang):
   XX=             -7.3188   YY=             -6.3803   ZZ=             -6.3803
   XY=              0.0000   XZ=             -0.0000   YZ=              0.0000

  Exact polarizability:      11.090       0.000       2.475       0.000      -0.000       2.475
 Approx polarizability:      12.681       0.000       2.554       0.000       0.000       2.554

 ******    2 imaginary frequencies (negative Signs) ******

                      1                      2                      3
                      A                      A                      A
 Frequencies --  -4368.0770             -4368.0770              2729.6131
 Red. masses --      1.0127                 1.0127                 1.1085
 Frc consts  --     11.3842                11.3842                 4.8660
 IR Inten    --     27.0296                27.0296                51.6569

                      4
                      A
 Frequencies --   8101.0271
 Red. masses --      1.0079
 Frc consts  --     38.9700
 IR Inten    --     51.4966

 - Thermochemistry -
 -------------------
 Temperature   298.150 Kelvin.  Pressure   1.00000 Atm.
 Atom     1 has atomic number  1 and mass   1.00783

 Molecular mass:    21.01405 amu.
 Principal axes and moments of inertia in atomic units:
                           1         2         3
     Eigenvalues --     0.00000  10.30980  10.30980
           X            1.00000  -0.00000   0.00000
           Y            0.00000   1.00000   0.00000
           Z            0.00000   0.00000   1.00000
 This molecule is a prolate symmetric top.
 Rotational symmetry number  1.
 Rotational temperature (Kelvin)      8.40112
 Rotational constant (GHZ):         175.051015
    2 imaginary frequencies ignored.
 Zero-point vibrational energy      64781.6 (Joules/Mol)
                                   15.48318 (Kcal/Mol)
 Vibrational temperatures:   3927.30 11655.57
          (Kelvin)

 Zero-point correction=                           0.024674 (Hartree/Particle)
 Thermal correction to Energy=                    0.027034
 Thermal correction to Enthalpy=                  0.027979
 Thermal correction to Gibbs Free Energy=         0.006348
 Sum of electronic and zero-point Energies=           -100.811232
 Sum of electronic and thermal Energies=              -100.808871
 Sum of electronic and thermal Enthalpies=            -100.807927
 Sum of electronic and thermal Free Energies=         -100.829558

                     E (Thermal)             CV                S
                      KCal/Mol        Cal/Mol-Kelvin    Cal/Mol-Kelvin
 Total                   16.964              4.969             45.525
 Electronic               0.000              0.000              1.377
 Translational            0.889              2.981             35.068
 Rotational               0.592              1.987              9.080
 Vibrational             15.483              0.001              0.000

 Normal termination of Gaussian 16 at Fri Aug 22 15:57:08 2025.
