 Gaussian 16, Revision C.01,
 Gaussian 16:  ES64L-G16RevC.01  3-Jul-2019

 -----------------------------------------
 # sp b3lyp/6-311g** Force nosymm scf=(qc)
 -----------------------------------------

 -------------------
 Title Card Required
 -------------------
 Symbolic Z-matrix:
 Charge =  0 Multiplicity = 2

                          Input orientation:
 ---------------------------------------------------------------------
 Center     Atomic      Atomic             Coordinates (Angstroms)
 Number     Number       Type             X           Y           Z
 ---------------------------------------------------------------------
      1          1           0        0.000000    0.000000    0.000000
      2          1           0       -1.750000    0.000000    0.000000
      3          9           0        3.450000    0.000000    0.000000
 ---------------------------------------------------------------------

 SCF Done:  E(UB3LYP) =  -100.790366442     a.u. after   51 cycles

 Alpha  occ. eigenvalues --  -24.75779  -1.21713  -0.54896  -0.46112  -0.46106
 Alpha  occ. eigenvalues --   -0.33370
 Alpha virt. eigenvalues --   -0.11042   0.25613   0.30769   0.87391   0.91206
 Alpha virt. eigenvalues --    0.91470   1.01730   1.08307   1.23949   1.23949
 Alpha virt. eigenvalues --    1.37522   1.37523   1.64173   2.15538   2.40503

  Beta  occ. eigenvalues --  -24.72651  -1.12722  -0.42980  -0.42971  -0.33346
  Beta virt. eigenvalues --   -0.25779  -0.10930   0.25584   0.31071   0.92699
  Beta virt. eigenvalues --    0.92848   0.96703   1.05780   1.08359   1.23972
  Beta virt. eigenvalues --    1.23973   1.37644   1.37644   1.64322   2.16016

 Mulliken charges and spin densities:
               1          2
     1  H   -0.000096  -0.668035
     2  H    0.006518   0.676354
     3  F   -0.006422   0.991681
 Sum of Mulliken charges =   0.00000   1.00000

 Dipole moment (field-independent basis, Debye):
    X=             -0.1698    Y=             -0.0000    Z=             -0.0009  Tot=              0.1698
 Quadrupole moment (field-independent basis, Debye-Ang):
   XX=             -6.2961   YY=             -7.7594   ZZ=             -7.6124
   XY=             -0.0002   XZ=             -0.3236   YZ=              0.0001

  Exact polarizability:      32.534       0.000       2.010      -0.042       0.000       2.091
 Approx polarizability:      47.291      -0.000       1.967      -0.182       0.000       2.067

 ******    2 imaginary frequencies (negative Signs) ******

                      1                      2                      3
                      A                      A                      A
 Frequencies --  -1814.9463              -113.5566               833.2478
 Red. masses --      1.0078                 1.1085                 1.0118
 Frc consts  --      1.9560                 0.0084                 0.4139
 IR Inten    --      0.5071                 1.6670                 0.0232

                      4
                      A
 Frequencies --    833.2601
 Red. masses --      1.0118
 Frc consts  --      0.4139
 IR Inten    --      0.0056

 - Thermochemistry -
 -------------------
 Temperature   298.150 Kelvin.  Pressure   1.00000 Atm.
 Atom     1 has atomic number  1 and mass   1.00783

 Molecular mass:    21.01405 amu.
 Principal axes and moments of inertia in atomic units:
                           1         2         3
     Eigenvalues --     0.00000 127.23951 127.23951
           X            1.00000  -0.00000   0.00000
           Y            0.00000   1.00000   0.00000
           Z            0.00000   0.00000   1.00000
 This molecule is a prolate symmetric top.
 Rotational symmetry number  1.
 Rotational temperature (Kelvin)      0.68072
 Rotational constant (GHZ):          14.183811
    2 imaginary frequencies ignored.
 Zero-point vibrational energy       9967.9 (Joules/Mol)
                                    2.38239 (Kcal/Mol)
 Vibrational temperatures:   1198.86  1198.88
          (Kelvin)

 Zero-point correction=                           0.003797 (Hartree/Particle)
 Thermal correction to Energy=                    0.006296
 Thermal correction to Enthalpy=                  0.007240
 Thermal correction to Gibbs Free Energy=        -0.016936
 Sum of electronic and zero-point Energies=           -100.786570
 Sum of electronic and thermal Energies=              -100.784071
 Sum of electronic and thermal Enthalpies=            -100.783127
 Sum of electronic and thermal Free Energies=         -100.807303

                     E (Thermal)             CV                S
                      KCal/Mol        Cal/Mol-Kelvin    Cal/Mol-Kelvin
 Total                    3.951              6.163             50.883
 Electronic               0.000              0.000              1.377
 Translational            0.889              2.981             35.068
 Rotational               0.592              1.987             14.074
 Vibrational              2.469              1.195              0.364

 Normal termination of Gaussian 16 at Fri Aug 22 21:40:32 2025.
