 Gaussian 16, Revision C.01,
 Gaussian 16:  ES64L-G16RevC.01  3-Jul-2019

 -----------------------------------------
 # sp b3lyp/6-311g** Force nosymm scf=(qc)
 -----------------------------------------

 -------------------
 Title Card Required
 -------------------
 Symbolic Z-matrix:
 Charge =  0 Multiplicity = 2

                          Input orientation:
 ---------------------------------------------------------------------
 Center     Atomic      Atomic             Coordinates (Angstroms)
 Number     Number       Type             X           Y           Z
 ---------------------------------------------------------------------
      1          1           0        0.000000    0.000000    0.000000
      2          1           0       -2.200000    0.000000    0.000000
      3          9           0        2.850000    0.000000    0.000000
 ---------------------------------------------------------------------

 SCF Done:  E(UB3LYP) =  -100.770905976     a.u. after   23 cycles

 Alpha  occ. eigenvalues --  -24.73627  -1.19713  -0.52741  -0.44284  -0.44284
 Alpha  occ. eigenvalues --   -0.33668
 Alpha virt. eigenvalues --   -0.11662   0.25373   0.32625   0.90091   0.92557
 Alpha virt. eigenvalues --    0.92557   1.04919   1.23529   1.24167   1.24167
 Alpha virt. eigenvalues --    1.37507   1.37507   1.43835   2.13206   2.35094

  Beta  occ. eigenvalues --  -24.70635  -1.11149  -0.41292  -0.41292  -0.34168
  Beta virt. eigenvalues --   -0.24553  -0.10565   0.26008   0.33444   0.94005
  Beta virt. eigenvalues --    0.94005   0.98620   1.08778   1.23158   1.23545
  Beta virt. eigenvalues --    1.23545   1.39297   1.39297   1.45293   2.14344

 Mulliken charges and spin densities:
               1          2
     1  H    0.033094  -0.874923
     2  H    0.013441   0.927403
     3  F   -0.046535   0.947521
 Sum of Mulliken charges =   0.00000   1.00000

 Dipole moment (field-independent basis, Debye):
    X=             -0.8209    Y=              0.0000    Z=             -0.0000  Tot=              0.8209
 Quadrupole moment (field-independent basis, Debye-Ang):
   XX=             -7.8932   YY=             -7.6743   ZZ=             -7.6743
   XY=              0.0000   XZ=             -0.0000   YZ=             -0.0000

  Exact polarizability:      54.267       0.000       2.007      -0.000       0.000       2.007
 Approx polarizability:      50.207       0.000       1.922      -0.000      -0.000       1.922

 ******    2 imaginary frequencies (negative Signs) ******

                      1                      2                      3
                      A                      A                      A
 Frequencies --  -1053.2393              -281.6716               407.7711
 Red. masses --      1.0087                 1.1075                 1.0151
 Frc consts  --      0.6592                 0.0518                 0.0994
 IR Inten    --     31.2503                32.4608                 0.6813

                      4
                      A
 Frequencies --    407.7711
 Red. masses --      1.0151
 Frc consts  --      0.0994
 IR Inten    --      0.6813

 - Thermochemistry -
 -------------------
 Temperature   298.150 Kelvin.  Pressure   1.00000 Atm.
 Atom     1 has atomic number  1 and mass   1.00783

 Molecular mass:    21.01405 amu.
 Principal axes and moments of inertia in atomic units:
                           1         2         3
     Eigenvalues --     0.00000 110.24426 110.24426
           X            1.00000  -0.00000   0.00000
           Y            0.00000   1.00000   0.00000
           Z            0.00000   0.00000   1.00000
 This molecule is a prolate symmetric top.
 Rotational symmetry number  1.
 Rotational temperature (Kelvin)      0.78565
 Rotational constant (GHZ):          16.370386
    2 imaginary frequencies ignored.
 Zero-point vibrational energy       4878.0 (Joules/Mol)
                                    1.16588 (Kcal/Mol)
 Warning -- explicit consideration of   2 degrees of freedom as
           vibrations may cause significant error
 Vibrational temperatures:    586.69   586.69
          (Kelvin)

 Zero-point correction=                           0.001858 (Hartree/Particle)
 Thermal correction to Energy=                    0.004822
 Thermal correction to Enthalpy=                  0.005766
 Thermal correction to Gibbs Free Energy=        -0.018990
 Sum of electronic and zero-point Energies=           -100.769048
 Sum of electronic and thermal Energies=              -100.766084
 Sum of electronic and thermal Enthalpies=            -100.765140
 Sum of electronic and thermal Free Energies=         -100.789896

                     E (Thermal)             CV                S
                      KCal/Mol        Cal/Mol-Kelvin    Cal/Mol-Kelvin
 Total                    3.026              7.875             52.103
 Electronic               0.000              0.000              1.377
 Translational            0.889              2.981             35.068
 Rotational               0.592              1.987             13.789
 Vibrational              1.545              2.907              1.869
 Vibration     1          0.772              1.453              0.935
 Vibration     2          0.772              1.453              0.935

 Normal termination of Gaussian 16 at Fri Aug 22 18:53:33 2025.
