 Gaussian 16, Revision C.01,
 Gaussian 16:  ES64L-G16RevC.01  3-Jul-2019

 -----------------------------------------
 # sp b3lyp/6-311g** Force nosymm scf=(qc)
 -----------------------------------------

 -------------------
 Title Card Required
 -------------------
 Symbolic Z-matrix:
 Charge =  0 Multiplicity = 2

                          Input orientation:
 ---------------------------------------------------------------------
 Center     Atomic      Atomic             Coordinates (Angstroms)
 Number     Number       Type             X           Y           Z
 ---------------------------------------------------------------------
      1          1           0        0.000000    0.000000    0.000000
      2          1           0       -1.550000    0.000000    0.000000
      3          9           0        3.850000    0.000000    0.000000
 ---------------------------------------------------------------------

 SCF Done:  E(UB3LYP) =  -100.812631152     a.u. after  138 cycles

 Alpha  occ. eigenvalues --  -24.76240  -1.22140  -0.55343  -0.46519  -0.46499
 Alpha  occ. eigenvalues --   -0.33428
 Alpha virt. eigenvalues --   -0.10064   0.25191   0.30480   0.86026   0.90903
 Alpha virt. eigenvalues --    0.91373   1.00900   1.06883   1.21434   1.21436
 Alpha virt. eigenvalues --    1.40384   1.40386   1.78059   2.20740   2.44943

  Beta  occ. eigenvalues --  -24.73085  -1.13067  -0.43358  -0.43336  -0.33425
  Beta virt. eigenvalues --   -0.25993  -0.10080   0.25183   0.30503   0.92404
  Beta virt. eigenvalues --    0.92851   0.95493   1.05033   1.06889   1.21430
  Beta virt. eigenvalues --    1.21432   1.40379   1.40381   1.78073   2.20798

 Mulliken charges and spin densities:
               1          2
     1  H    0.000999  -0.335129
     2  H   -0.002022   0.335065
     3  F    0.001023   1.000064
 Sum of Mulliken charges =  -0.00000   1.00000

 Dipole moment (field-independent basis, Debye):
    X=              0.0263    Y=              0.0000    Z=              0.0000  Tot=              0.0263
 Quadrupole moment (field-independent basis, Debye-Ang):
   XX=             -6.3862   YY=             -7.6132   ZZ=             -7.0533
   XY=              0.0000   XZ=              0.0000   YZ=              0.3294

  Exact polarizability:      23.069       0.000       2.115       0.000       0.176       2.414
 Approx polarizability:      42.225       0.000       2.122       0.000       0.222       2.499

 ******    2 imaginary frequencies (negative Signs) ******

                      1                      2                      3
                      A                      A                      A
 Frequencies --  -2127.7912               -48.2939              1137.9707
 Red. masses --      1.0078                 1.1085                 1.0106
 Frc consts  --      2.6884                 0.0015                 0.7711
 IR Inten    --      0.0167                 0.0523                 0.0018

                      4
                      A
 Frequencies --   1140.0367
 Red. masses --      1.0106
 Frc consts  --      0.7739
 IR Inten    --      0.0001

 - Thermochemistry -
 -------------------
 Temperature   298.150 Kelvin.  Pressure   1.00000 Atm.
 Atom     1 has atomic number  1 and mass   1.00783

 Molecular mass:    21.01405 amu.
 Principal axes and moments of inertia in atomic units:
                           1         2         3
     Eigenvalues --     0.00000 143.52471 143.52471
           X            1.00000  -0.00000   0.00000
           Y            0.00000   1.00000   0.00000
           Z            0.00000   0.00000   1.00000
 This molecule is a prolate symmetric top.
 Rotational symmetry number  1.
 Rotational temperature (Kelvin)      0.60348
 Rotational constant (GHZ):          12.574428
    2 imaginary frequencies ignored.
 Zero-point vibrational energy      13625.5 (Joules/Mol)
                                    3.25658 (Kcal/Mol)
 Vibrational temperatures:   1637.29  1640.26
          (Kelvin)

 Zero-point correction=                           0.005190 (Hartree/Particle)
 Thermal correction to Energy=                    0.007593
 Thermal correction to Enthalpy=                  0.008537
 Thermal correction to Gibbs Free Energy=        -0.015630
 Sum of electronic and zero-point Energies=           -100.807441
 Sum of electronic and thermal Energies=              -100.805038
 Sum of electronic and thermal Enthalpies=            -100.804094
 Sum of electronic and thermal Free Energies=         -100.828262

                     E (Thermal)             CV                S
                      KCal/Mol        Cal/Mol-Kelvin    Cal/Mol-Kelvin
 Total                    4.765              5.465             50.865
 Electronic               0.000              0.000              1.377
 Translational            0.889              2.981             35.068
 Rotational               0.592              1.987             14.313
 Vibrational              3.283              0.497              0.106

 Normal termination of Gaussian 16 at Sat Aug 23 01:03:13 2025.
