 Gaussian 16, Revision C.01,
 Gaussian 16:  ES64L-G16RevC.01  3-Jul-2019

 -----------------------------------------
 # sp b3lyp/6-311g** Force nosymm scf=(qc)
 -----------------------------------------

 -------------------
 Title Card Required
 -------------------
 Symbolic Z-matrix:
 Charge =  0 Multiplicity = 2

                          Input orientation:
 ---------------------------------------------------------------------
 Center     Atomic      Atomic             Coordinates (Angstroms)
 Number     Number       Type             X           Y           Z
 ---------------------------------------------------------------------
      1          1           0        0.000000    0.000000    0.000000
      2          1           0       -3.350000    0.000000    0.000000
      3          9           0        2.100000    0.000000    0.000000
 ---------------------------------------------------------------------

 SCF Done:  E(UB3LYP) =  -100.780778730     a.u. after   18 cycles

 Alpha  occ. eigenvalues --  -24.66405  -1.08200  -0.37862  -0.37862  -0.37371
 Alpha  occ. eigenvalues --   -0.33297
 Alpha virt. eigenvalues --   -0.21317   0.20468   0.27875   0.90551   0.95670
 Alpha virt. eigenvalues --    0.95670   1.08252   1.21605   1.21605   1.24125
 Alpha virt. eigenvalues --    1.24125   1.24265   1.47576   2.11551   2.14944

  Beta  occ. eigenvalues --  -24.68911  -1.15240  -0.47933  -0.40340  -0.40340
  Beta virt. eigenvalues --   -0.13370  -0.04819   0.30307   0.39891   0.88551
  Beta virt. eigenvalues --    0.94784   0.94784   1.06006   1.36521   1.36521
  Beta virt. eigenvalues --    1.47458   1.47458   1.47703   1.56050   2.31146

 Mulliken charges and spin densities:
               1          2
     1  H    0.167626   0.790389
     2  H    0.001873   0.998177
     3  F   -0.169498  -0.788566
 Sum of Mulliken charges =   0.00000   1.00000

 Dipole moment (field-independent basis, Debye):
    X=             -1.8017    Y=             -0.0000    Z=             -0.0000  Tot=              1.8017
 Quadrupole moment (field-independent basis, Debye-Ang):
   XX=             -9.9778   YY=             -7.4984   ZZ=             -7.4984
   XY=             -0.0000   XZ=             -0.0000   YZ=              0.0000

  Exact polarizability:      28.415      -0.000       2.050      -0.000      -0.000       2.050
 Approx polarizability:      40.084      -0.000       1.937      -0.000       0.000       1.937

 ******    1 imaginary frequencies (negative Signs) ******

                      1                      2                      3
                      A                      A                      A
 Frequencies --   -972.1023                82.1650               410.0744
 Red. masses --      1.0595                 1.0520                 1.0245
 Frc consts  --      0.5899                 0.0042                 0.1015
 IR Inten    --    102.2259                 0.4712                26.2190

                      4
                      A
 Frequencies --    410.0744
 Red. masses --      1.0245
 Frc consts  --      0.1015
 IR Inten    --     26.2190

 - Thermochemistry -
 -------------------
 Temperature   298.150 Kelvin.  Pressure   1.00000 Atm.
 Atom     1 has atomic number  1 and mass   1.00783

 Molecular mass:    21.01405 amu.
 Principal axes and moments of inertia in atomic units:
                           1         2         3
     Eigenvalues --     0.00000 112.93215 112.93215
           X            1.00000  -0.00000   0.00000
           Y            0.00000   1.00000   0.00000
           Z            0.00000   0.00000   1.00000
 This molecule is a prolate symmetric top.
 Rotational symmetry number  1.
 Rotational temperature (Kelvin)      0.76696
 Rotational constant (GHZ):          15.980756
    1 imaginary frequencies ignored.
 Zero-point vibrational energy       5397.0 (Joules/Mol)
                                    1.28992 (Kcal/Mol)
 Warning -- explicit consideration of   3 degrees of freedom as
           vibrations may cause significant error
 Vibrational temperatures:    118.22   590.01   590.01
          (Kelvin)

 Zero-point correction=                           0.002056 (Hartree/Particle)
 Thermal correction to Energy=                    0.005785
 Thermal correction to Enthalpy=                  0.006729
 Thermal correction to Gibbs Free Energy=        -0.019866
 Sum of electronic and zero-point Energies=           -100.778723
 Sum of electronic and thermal Energies=              -100.774994
 Sum of electronic and thermal Enthalpies=            -100.774050
 Sum of electronic and thermal Free Energies=         -100.800645

                     E (Thermal)             CV                S
                      KCal/Mol        Cal/Mol-Kelvin    Cal/Mol-Kelvin
 Total                    3.630              9.826             55.973
 Electronic               0.000              0.000              1.377
 Translational            0.889              2.981             35.068
 Rotational               0.592              1.987             13.837
 Vibrational              2.149              4.858              5.691
 Vibration     1          0.600              1.961              3.838
 Vibration     2          0.774              1.448              0.926
 Vibration     3          0.774              1.448              0.926

 Normal termination of Gaussian 16 at Fri Aug 22 17:05:09 2025.
