 Gaussian 16, Revision C.01,
 Gaussian 16:  ES64L-G16RevC.01  3-Jul-2019

 -----------------------------------------
 # sp b3lyp/6-311g** Force nosymm scf=(qc)
 -----------------------------------------

 -------------------
 Title Card Required
 -------------------
 Symbolic Z-matrix:
 Charge =  0 Multiplicity = 2

                          Input orientation:
 ---------------------------------------------------------------------
 Center     Atomic      Atomic             Coordinates (Angstroms)
 Number     Number       Type             X           Y           Z
 ---------------------------------------------------------------------
      1          1           0        0.000000    0.000000    0.000000
      2          1           0       -3.750000    0.000000    0.000000
      3          9           0        2.900000    0.000000    0.000000
 ---------------------------------------------------------------------

 SCF Done:  E(UB3LYP) =  -100.761678789     a.u. after   20 cycles

 Alpha  occ. eigenvalues --  -24.73697  -1.19786  -0.52816  -0.44350  -0.44350
 Alpha  occ. eigenvalues --   -0.32542
 Alpha virt. eigenvalues --   -0.08270   0.23822   0.36089   0.89641   0.92507
 Alpha virt. eigenvalues --    0.92507   1.04454   1.24959   1.24959   1.25017
 Alpha virt. eigenvalues --    1.43695   1.43695   1.44378   2.14472   2.40039

  Beta  occ. eigenvalues --  -24.70697  -1.11197  -0.41349  -0.41349  -0.33989
  Beta virt. eigenvalues --   -0.24550  -0.06219   0.23817   0.38079   0.93959
  Beta virt. eigenvalues --    0.93959   0.98138   1.08036   1.23325   1.23325
  Beta virt. eigenvalues --    1.24132   1.46267   1.46472   1.46472   2.14347

 Mulliken charges and spin densities:
               1          2
     1  H    0.044975  -0.949179
     2  H    0.000273   0.998889
     3  F   -0.045248   0.950290
 Sum of Mulliken charges =  -0.00000   1.00000

 Dipole moment (field-independent basis, Debye):
    X=             -0.6782    Y=             -0.0000    Z=             -0.0000  Tot=              0.6782
 Quadrupole moment (field-independent basis, Debye-Ang):
   XX=             -8.5384   YY=             -7.6015   ZZ=             -7.6015
   XY=             -0.0000   XZ=             -0.0000   YZ=             -0.0000

  Exact polarizability:      31.570      -0.000       2.026      -0.000      -0.000       2.026
 Approx polarizability:      34.045      -0.000       1.925      -0.000       0.000       1.925

 ******    2 imaginary frequencies (negative Signs) ******

                      1                      2                      3
                      A                      A                      A
 Frequencies --   -407.0340               -91.1106               145.1090
 Red. masses --      1.0528                 1.0588                 1.0213
 Frc consts  --      0.1028                 0.0052                 0.0127
 IR Inten    --     46.9715                 0.1778                 1.9374

                      4
                      A
 Frequencies --    145.1090
 Red. masses --      1.0213
 Frc consts  --      0.0127
 IR Inten    --      1.9374

 - Thermochemistry -
 -------------------
 Temperature   298.150 Kelvin.  Pressure   1.00000 Atm.
 Atom     1 has atomic number  1 and mass   1.00783

 Molecular mass:    21.01405 amu.
 Principal axes and moments of inertia in atomic units:
                           1         2         3
     Eigenvalues --     0.00000 173.68263 173.68263
           X            1.00000  -0.00000   0.00000
           Y            0.00000   1.00000   0.00000
           Z            0.00000   0.00000   1.00000
 This molecule is a prolate symmetric top.
 Rotational symmetry number  1.
 Rotational temperature (Kelvin)      0.49869
 Rotational constant (GHZ):          10.391028
    2 imaginary frequencies ignored.
 Zero-point vibrational energy       1735.9 (Joules/Mol)
                                    0.41489 (Kcal/Mol)
 Warning -- explicit consideration of   2 degrees of freedom as
           vibrations may cause significant error
 Vibrational temperatures:    208.78   208.78
          (Kelvin)

 Zero-point correction=                           0.000661 (Hartree/Particle)
 Thermal correction to Energy=                    0.004325
 Thermal correction to Enthalpy=                  0.005270
 Thermal correction to Gibbs Free Energy=        -0.021627
 Sum of electronic and zero-point Energies=           -100.761018
 Sum of electronic and thermal Energies=              -100.757353
 Sum of electronic and thermal Enthalpies=            -100.756409
 Sum of electronic and thermal Free Energies=         -100.783306

                     E (Thermal)             CV                S
                      KCal/Mol        Cal/Mol-Kelvin    Cal/Mol-Kelvin
 Total                    2.714              8.784             56.608
 Electronic               0.000              0.000              1.377
 Translational            0.889              2.981             35.068
 Rotational               0.592              1.987             14.692
 Vibrational              1.233              3.816              5.471
 Vibration     1          0.616              1.908              2.735
 Vibration     2          0.616              1.908              2.735

 Normal termination of Gaussian 16 at Fri Aug 22 19:05:02 2025.
