 Gaussian 16, Revision C.01,
 Gaussian 16:  ES64L-G16RevC.01  3-Jul-2019

 -----------------------------------------
 # sp b3lyp/6-311g** Force nosymm scf=(qc)
 -----------------------------------------

 -------------------
 Title Card Required
 -------------------
 Symbolic Z-matrix:
 Charge =  0 Multiplicity = 2

                          Input orientation:
 ---------------------------------------------------------------------
 Center     Atomic      Atomic             Coordinates (Angstroms)
 Number     Number       Type             X           Y           Z
 ---------------------------------------------------------------------
      1          1           0        0.000000    0.000000    0.000000
      2          1           0       -3.900000    0.000000    0.000000
      3          9           0        1.400000    0.000000    0.000000
 ---------------------------------------------------------------------

 SCF Done:  E(UB3LYP) =  -100.877273508     a.u. after    7 cycles

 Alpha  occ. eigenvalues --  -24.64384  -1.10288  -0.44566  -0.36721  -0.36721
 Alpha  occ. eigenvalues --   -0.33619
 Alpha virt. eigenvalues --   -0.11920   0.20870   0.27377   0.93099   0.93099
 Alpha virt. eigenvalues --    1.03157   1.15177   1.23853   1.23888   1.23888
 Alpha virt. eigenvalues --    1.32590   1.32590   1.71329   2.13033   2.21339

  Beta  occ. eigenvalues --  -24.64380  -1.10275  -0.44554  -0.36717  -0.36717
  Beta virt. eigenvalues --   -0.12081  -0.05965   0.23798   0.38408   0.93097
  Beta virt. eigenvalues --    0.93097   1.03169   1.15189   1.32571   1.32571
  Beta virt. eigenvalues --    1.46698   1.47013   1.47013   1.71346   2.20393

 Mulliken charges and spin densities:
               1          2
     1  H    0.356770  -0.000917
     2  H    0.000617   0.999349
     3  F   -0.357386   0.001568
 Sum of Mulliken charges =   0.00000   1.00000

 Dipole moment (field-independent basis, Debye):
    X=             -2.5007    Y=              0.0000    Z=             -0.0000  Tot=              2.5007
 Quadrupole moment (field-independent basis, Debye-Ang):
   XX=             -9.6043   YY=             -7.2635   ZZ=             -7.2635
   XY=              0.0000   XZ=             -0.0000   YZ=             -0.0000

  Exact polarizability:      12.692      -0.000       2.232      -0.000      -0.000       2.232
 Approx polarizability:      22.005      -0.000       2.165      -0.000      -0.000       2.165

 ******    2 imaginary frequencies (negative Signs) ******

                      1                      2                      3
                      A                      A                      A
 Frequencies --  -1012.1603               -42.3997              1098.1468
 Red. masses --      1.0580                 1.0535                 1.0334
 Frc consts  --      0.6386                 0.0011                 0.7343
 IR Inten    --     45.7697                 0.0318               128.7622

                      4
                      A
 Frequencies --   1098.1468
 Red. masses --      1.0334
 Frc consts  --      0.7343
 IR Inten    --    128.7622

 - Thermochemistry -
 -------------------
 Temperature   298.150 Kelvin.  Pressure   1.00000 Atm.
 Atom     1 has atomic number  1 and mass   1.00783

 Molecular mass:    21.01405 amu.
 Principal axes and moments of inertia in atomic units:
                           1         2         3
     Eigenvalues --     0.00000 100.40188 100.40188
           X            1.00000  -0.00000   0.00000
           Y            0.00000   1.00000   0.00000
           Z            0.00000   0.00000   1.00000
 This molecule is a prolate symmetric top.
 Rotational symmetry number  1.
 Rotational temperature (Kelvin)      0.86267
 Rotational constant (GHZ):          17.975173
    2 imaginary frequencies ignored.
 Zero-point vibrational energy      13136.8 (Joules/Mol)
                                    3.13976 (Kcal/Mol)
 Vibrational temperatures:   1579.99  1579.99
          (Kelvin)

 Zero-point correction=                           0.005004 (Hartree/Particle)
 Thermal correction to Energy=                    0.007414
 Thermal correction to Enthalpy=                  0.008358
 Thermal correction to Gibbs Free Energy=        -0.015481
 Sum of electronic and zero-point Energies=           -100.872270
 Sum of electronic and thermal Energies=              -100.869859
 Sum of electronic and thermal Enthalpies=            -100.868915
 Sum of electronic and thermal Free Energies=         -100.892754

                     E (Thermal)             CV                S
                      KCal/Mol        Cal/Mol-Kelvin    Cal/Mol-Kelvin
 Total                    4.652              5.531             50.174
 Electronic               0.000              0.000              1.377
 Translational            0.889              2.981             35.068
 Rotational               0.592              1.987             13.603
 Vibrational              3.171              0.563              0.126

 Normal termination of Gaussian 16 at Fri Aug 22 16:21:28 2025.
