 Gaussian 16, Revision C.01,
 Gaussian 16:  ES64L-G16RevC.01  3-Jul-2019

 -----------------------------------------
 # sp b3lyp/6-311g** Force nosymm scf=(qc)
 -----------------------------------------

 -------------------
 Title Card Required
 -------------------
 Symbolic Z-matrix:
 Charge =  0 Multiplicity = 2

                          Input orientation:
 ---------------------------------------------------------------------
 Center     Atomic      Atomic             Coordinates (Angstroms)
 Number     Number       Type             X           Y           Z
 ---------------------------------------------------------------------
      1          1           0        0.000000    0.000000    0.000000
      2          1           0       -3.500000    0.000000    0.000000
      3          9           0        3.100000    0.000000    0.000000
 ---------------------------------------------------------------------

 SCF Done:  E(UB3LYP) =  -100.760475106     a.u. after   23 cycles

 Alpha  occ. eigenvalues --  -24.74421  -1.20457  -0.53542  -0.44956  -0.44956
 Alpha  occ. eigenvalues --   -0.32491
 Alpha virt. eigenvalues --   -0.07852   0.24093   0.36249   0.89034   0.92073
 Alpha virt. eigenvalues --    0.92073   1.03358   1.25015   1.25015   1.25172
 Alpha virt. eigenvalues --    1.44279   1.44279   1.44524   2.14868   2.40507

  Beta  occ. eigenvalues --  -24.71371  -1.11708  -0.41902  -0.41902  -0.33501
  Beta virt. eigenvalues --   -0.24964  -0.06548   0.23964   0.37880   0.93542
  Beta virt. eigenvalues --    0.93542   0.97847   1.07165   1.23851   1.23851
  Beta virt. eigenvalues --    1.24134   1.45835   1.46087   1.46087   2.15143

 Mulliken charges and spin densities:
               1          2
     1  H    0.029888  -0.964737
     2  H    0.000382   0.997927
     3  F   -0.030270   0.966810
 Sum of Mulliken charges =  -0.00000   1.00000

 Dipole moment (field-independent basis, Debye):
    X=             -0.4885    Y=              0.0000    Z=             -0.0000  Tot=              0.4885
 Quadrupole moment (field-independent basis, Debye-Ang):
   XX=             -8.1037   YY=             -7.6134   ZZ=             -7.6134
   XY=              0.0000   XZ=             -0.0000   YZ=              0.0000

  Exact polarizability:      31.103       0.000       2.027      -0.000       0.000       2.027
 Approx polarizability:      29.999       0.000       1.928      -0.000      -0.000       1.928

 ******    2 imaginary frequencies (negative Signs) ******

                      1                      2                      3
                      A                      A                      A
 Frequencies --   -343.6096              -116.1089               119.5404
 Red. masses --      1.0436                 1.0682                 1.0195
 Frc consts  --      0.0726                 0.0085                 0.0086
 IR Inten    --     32.3241                 0.8055                 0.8295

                      4
                      A
 Frequencies --    119.5404
 Red. masses --      1.0195
 Frc consts  --      0.0086
 IR Inten    --      0.8295

 - Thermochemistry -
 -------------------
 Temperature   298.150 Kelvin.  Pressure   1.00000 Atm.
 Atom     1 has atomic number  1 and mass   1.00783

 Molecular mass:    21.01405 amu.
 Principal axes and moments of inertia in atomic units:
                           1         2         3
     Eigenvalues --     0.00000 175.11870 175.11870
           X            1.00000  -0.00000   0.00000
           Y            0.00000   1.00000   0.00000
           Z            0.00000   0.00000   1.00000
 This molecule is a prolate symmetric top.
 Rotational symmetry number  1.
 Rotational temperature (Kelvin)      0.49460
 Rotational constant (GHZ):          10.305817
    2 imaginary frequencies ignored.
 Zero-point vibrational energy       1430.0 (Joules/Mol)
                                    0.34178 (Kcal/Mol)
 Warning -- explicit consideration of   2 degrees of freedom as
           vibrations may cause significant error
 Vibrational temperatures:    171.99   171.99
          (Kelvin)

 Zero-point correction=                           0.000545 (Hartree/Particle)
 Thermal correction to Energy=                    0.004301
 Thermal correction to Enthalpy=                  0.005245
 Thermal correction to Gibbs Free Energy=        -0.022013
 Sum of electronic and zero-point Energies=           -100.759930
 Sum of electronic and thermal Energies=              -100.756174
 Sum of electronic and thermal Enthalpies=            -100.755230
 Sum of electronic and thermal Free Energies=         -100.782488

                     E (Thermal)             CV                S
                      KCal/Mol        Cal/Mol-Kelvin    Cal/Mol-Kelvin
 Total                    2.699              8.834             57.370
 Electronic               0.000              0.000              1.377
 Translational            0.889              2.981             35.068
 Rotational               0.592              1.987             14.708
 Vibrational              1.218              3.866              6.216
 Vibration     1          0.609              1.933              3.108
 Vibration     2          0.609              1.933              3.108

 Normal termination of Gaussian 16 at Fri Aug 22 19:56:20 2025.
