 Gaussian 16, Revision C.01,
 Gaussian 16:  ES64L-G16RevC.01  3-Jul-2019

 -----------------------------------------
 # sp b3lyp/6-311g** Force nosymm scf=(qc)
 -----------------------------------------

 -------------------
 Title Card Required
 -------------------
 Symbolic Z-matrix:
 Charge =  0 Multiplicity = 2

                          Input orientation:
 ---------------------------------------------------------------------
 Center     Atomic      Atomic             Coordinates (Angstroms)
 Number     Number       Type             X           Y           Z
 ---------------------------------------------------------------------
      1          1           0        0.000000    0.000000    0.000000
      2          1           0       -2.500000    0.000000    0.000000
      3          9           0        3.300000    0.000000    0.000000
 ---------------------------------------------------------------------

 SCF Done:  E(UB3LYP) =  -100.763446114     a.u. after   27 cycles

 Alpha  occ. eigenvalues --  -24.75053  -1.21040  -0.54174  -0.45486  -0.45486
 Alpha  occ. eigenvalues --   -0.32801
 Alpha virt. eigenvalues --   -0.09831   0.25578   0.33986   0.88332   0.91685
 Alpha virt. eigenvalues --    0.91685   1.02431   1.24851   1.24851   1.26495
 Alpha virt. eigenvalues --    1.40869   1.40869   1.42503   2.15624   2.36797

  Beta  occ. eigenvalues --  -24.71963  -1.12165  -0.42389  -0.42389  -0.33235
  Beta virt. eigenvalues --   -0.25323  -0.09118   0.25450   0.34958   0.93167
  Beta virt. eigenvalues --    0.93167   0.97370   1.06414   1.24324   1.24324
  Beta virt. eigenvalues --    1.25839   1.41998   1.41998   1.43632   2.16400

 Mulliken charges and spin densities:
               1          2
     1  H    0.014700  -0.950015
     2  H    0.003366   0.970177
     3  F   -0.018065   0.979838
 Sum of Mulliken charges =  -0.00000   1.00000

 Dipole moment (field-independent basis, Debye):
    X=             -0.3461    Y=              0.0000    Z=             -0.0000  Tot=              0.3461
 Quadrupole moment (field-independent basis, Debye-Ang):
   XX=             -7.4021   YY=             -7.6619   ZZ=             -7.6619
   XY=             -0.0000   XZ=              0.0000   YZ=              0.0000

  Exact polarizability:      38.831      -0.000       2.019       0.000       0.000       2.019
 Approx polarizability:      30.916      -0.000       1.926       0.000      -0.000       1.926

 ******    2 imaginary frequencies (negative Signs) ******

                      1                      2                      3
                      A                      A                      A
 Frequencies --   -680.0234              -176.0787               250.3653
 Red. masses --      1.0084                 1.1078                 1.0149
 Frc consts  --      0.2748                 0.0202                 0.0375
 IR Inten    --     11.6130                11.0820                 0.1564

                      4
                      A
 Frequencies --    250.3653
 Red. masses --      1.0149
 Frc consts  --      0.0375
 IR Inten    --      0.1564

 - Thermochemistry -
 -------------------
 Temperature   298.150 Kelvin.  Pressure   1.00000 Atm.
 Atom     1 has atomic number  1 and mass   1.00783

 Molecular mass:    21.01405 amu.
 Principal axes and moments of inertia in atomic units:
                           1         2         3
     Eigenvalues --     0.00000 145.97027 145.97027
           X            1.00000  -0.00000   0.00000
           Y            0.00000   1.00000   0.00000
           Z            0.00000   0.00000   1.00000
 This molecule is a prolate symmetric top.
 Rotational symmetry number  1.
 Rotational temperature (Kelvin)      0.59337
 Rotational constant (GHZ):          12.363759
    2 imaginary frequencies ignored.
 Zero-point vibrational energy       2995.0 (Joules/Mol)
                                    0.71583 (Kcal/Mol)
 Warning -- explicit consideration of   2 degrees of freedom as
           vibrations may cause significant error
 Vibrational temperatures:    360.22   360.22
          (Kelvin)

 Zero-point correction=                           0.001141 (Hartree/Particle)
 Thermal correction to Energy=                    0.004473
 Thermal correction to Enthalpy=                  0.005417
 Thermal correction to Gibbs Free Energy=        -0.020358
 Sum of electronic and zero-point Energies=           -100.762305
 Sum of electronic and thermal Energies=              -100.758973
 Sum of electronic and thermal Enthalpies=            -100.758029
 Sum of electronic and thermal Free Energies=         -100.783804

                     E (Thermal)             CV                S
                      KCal/Mol        Cal/Mol-Kelvin    Cal/Mol-Kelvin
 Total                    2.807              8.492             54.248
 Electronic               0.000              0.000              1.377
 Translational            0.889              2.981             35.068
 Rotational               0.592              1.987             14.347
 Vibrational              1.326              3.524              3.456
 Vibration     1          0.663              1.762              1.728
 Vibration     2          0.663              1.762              1.728

 Normal termination of Gaussian 16 at Fri Aug 22 20:48:50 2025.
