 Gaussian 16, Revision C.01,
 Gaussian 16:  ES64L-G16RevC.01  3-Jul-2019

 -----------------------------------------
 # sp b3lyp/6-311g** Force nosymm scf=(qc)
 -----------------------------------------

 -------------------
 Title Card Required
 -------------------
 Symbolic Z-matrix:
 Charge =  0 Multiplicity = 2

                          Input orientation:
 ---------------------------------------------------------------------
 Center     Atomic      Atomic             Coordinates (Angstroms)
 Number     Number       Type             X           Y           Z
 ---------------------------------------------------------------------
      1          1           0        0.000000    0.000000    0.000000
      2          1           0       -0.550000    0.000000    0.000000
      3          9           0        3.200000    0.000000    0.000000
 ---------------------------------------------------------------------

 SCF Done:  E(UB3LYP) =  -100.894534359     a.u. after  184 cycles

 Alpha  occ. eigenvalues --  -24.76477  -1.22295  -0.55492  -0.47880  -0.46643
 Alpha  occ. eigenvalues --   -0.46616
 Alpha virt. eigenvalues --    0.09422   0.18672   0.53835   0.85955   0.90828
 Alpha virt. eigenvalues --    0.93908   1.04957   1.11148   1.11154   1.61740
 Alpha virt. eigenvalues --    1.83443   1.96277   1.96283   2.36888   3.64754

  Beta  occ. eigenvalues --  -24.73316  -1.13210  -0.47829  -0.43496  -0.43474
  Beta virt. eigenvalues --   -0.26119   0.09468   0.18697   0.53948   0.92327
  Beta virt. eigenvalues --    0.95414   0.95674   1.08655   1.11148   1.11153
  Beta virt. eigenvalues --    1.61759   1.83484   1.96276   1.96283   2.36892

 Mulliken charges and spin densities:
               1          2
     1  H   -0.006604  -0.001266
     2  H   -0.001281   0.000257
     3  F    0.007885   1.001009
 Sum of Mulliken charges =   0.00000   1.00000

 Dipole moment (field-independent basis, Debye):
    X=              0.0739    Y=              0.0000    Z=             -0.0000  Tot=              0.0739
 Quadrupole moment (field-independent basis, Debye-Ang):
   XX=             -6.0274   YY=             -6.4877   ZZ=             -5.9872
   XY=             -0.0000   XZ=              0.0000   YZ=             -0.3519

  Exact polarizability:       6.186       0.000       1.935       0.000      -0.188       2.203
 Approx polarizability:       6.574      -0.000       2.042       0.000      -0.236       2.377

 ******    2 imaginary frequencies (negative Signs) ******

                      1                      2                      3
                      A                      A                      A
 Frequencies --  -3691.5708             -3691.2604                53.4266
 Red. masses --      1.0085                 1.0085                 1.1085
 Frc consts  --      8.0971                 8.0957                 0.0019
 IR Inten    --      0.0310                 0.0293                 0.1478

                      4
                      A
 Frequencies --   8342.9079
 Red. masses --      1.0078
 Frc consts  --     41.3305
 IR Inten    --      0.1395

 - Thermochemistry -
 -------------------
 Temperature   298.150 Kelvin.  Pressure   1.00000 Atm.
 Atom     1 has atomic number  1 and mass   1.00783

 Molecular mass:    21.01405 amu.
 Principal axes and moments of inertia in atomic units:
                           1         2         3
     Eigenvalues --     0.00000  79.12756  79.12756
           X            1.00000  -0.00000   0.00000
           Y            0.00000   1.00000   0.00000
           Z            0.00000   0.00000   1.00000
 This molecule is a prolate symmetric top.
 Rotational symmetry number  1.
 Rotational temperature (Kelvin)      1.09461
 Rotational constant (GHZ):          22.807998
    2 imaginary frequencies ignored.
 Zero-point vibrational energy      50221.2 (Joules/Mol)
                                   12.00316 (Kcal/Mol)
 Warning -- explicit consideration of   1 degrees of freedom as
           vibrations may cause significant error
 Vibrational temperatures:     76.87 12003.58
          (Kelvin)

 Zero-point correction=                           0.019128 (Hartree/Particle)
 Thermal correction to Energy=                    0.022316
 Thermal correction to Enthalpy=                  0.023261
 Thermal correction to Gibbs Free Energy=        -0.002521
 Sum of electronic and zero-point Energies=           -100.875406
 Sum of electronic and thermal Energies=              -100.872218
 Sum of electronic and thermal Enthalpies=            -100.871274
 Sum of electronic and thermal Free Energies=         -100.897055

                     E (Thermal)             CV                S
                      KCal/Mol        Cal/Mol-Kelvin    Cal/Mol-Kelvin
 Total                   14.004              6.944             54.262
 Electronic               0.000              0.000              1.377
 Translational            0.889              2.981             35.068
 Rotational               0.592              1.987             13.130
 Vibrational             12.523              1.976              4.686
 Vibration     1          0.596              1.976              4.686

 Normal termination of Gaussian 16 at Fri Aug 22 20:13:12 2025.
