 Gaussian 16, Revision C.01,
 Gaussian 16:  ES64L-G16RevC.01  3-Jul-2019

 -----------------------------------------
 # sp b3lyp/6-311g** Force nosymm scf=(qc)
 -----------------------------------------

 -------------------
 Title Card Required
 -------------------
 Symbolic Z-matrix:
 Charge =  0 Multiplicity = 2

                          Input orientation:
 ---------------------------------------------------------------------
 Center     Atomic      Atomic             Coordinates (Angstroms)
 Number     Number       Type             X           Y           Z
 ---------------------------------------------------------------------
      1          1           0        0.000000    0.000000    0.000000
      2          1           0       -3.700000    0.000000    0.000000
      3          9           0        1.500000    0.000000    0.000000
 ---------------------------------------------------------------------

 SCF Done:  E(UB3LYP) =  -100.854645672     a.u. after    8 cycles

 Alpha  occ. eigenvalues --  -24.64360  -1.09690  -0.43238  -0.36435  -0.36435
 Alpha  occ. eigenvalues --   -0.33806
 Alpha virt. eigenvalues --   -0.14508   0.20321   0.27445   0.93497   0.93497
 Alpha virt. eigenvalues --    1.03518   1.09382   1.23689   1.23703   1.23703
 Alpha virt. eigenvalues --    1.31132   1.31132   1.72949   2.12981   2.18906

  Beta  occ. eigenvalues --  -24.64338  -1.09632  -0.43188  -0.36415  -0.36415
  Beta virt. eigenvalues --   -0.14697  -0.06371   0.23146   0.38289   0.93488
  Beta virt. eigenvalues --    0.93488   1.03572   1.09386   1.31027   1.31027
  Beta virt. eigenvalues --    1.46150   1.46552   1.46552   1.72928   2.17856

 Mulliken charges and spin densities:
               1          2
     1  H    0.349312  -0.005731
     2  H    0.001153   0.998785
     3  F   -0.350465   0.006946
 Sum of Mulliken charges =  -0.00000   1.00000

 Dipole moment (field-independent basis, Debye):
    X=             -2.6037    Y=              0.0000    Z=              0.0000  Tot=              2.6037
 Quadrupole moment (field-independent basis, Debye-Ang):
   XX=             -9.9293   YY=             -7.3213   ZZ=             -7.3213
   XY=              0.0000   XZ=             -0.0000   YZ=              0.0000

  Exact polarizability:      15.049      -0.000       2.187       0.000      -0.000       2.187
 Approx polarizability:      28.607       0.000       2.111       0.000      -0.000       2.111

 ******    2 imaginary frequencies (negative Signs) ******

                      1                      2                      3
                      A                      A                      A
 Frequencies --  -1147.8406               -62.7418              1019.0179
 Red. masses --      1.0578                 1.0537                 1.0315
 Frc consts  --      0.8212                 0.0024                 0.6311
 IR Inten    --     41.0887                 0.0960               118.6849

                      4
                      A
 Frequencies --   1019.0179
 Red. masses --      1.0315
 Frc consts  --      0.6311
 IR Inten    --    118.6849

 - Thermochemistry -
 -------------------
 Temperature   298.150 Kelvin.  Pressure   1.00000 Atm.
 Atom     1 has atomic number  1 and mass   1.00783

 Molecular mass:    21.01405 amu.
 Principal axes and moments of inertia in atomic units:
                           1         2         3
     Eigenvalues --     0.00000  97.66664  97.66664
           X            1.00000  -0.00000   0.00000
           Y            0.00000   1.00000   0.00000
           Z            0.00000   0.00000   1.00000
 This molecule is a prolate symmetric top.
 Rotational symmetry number  1.
 Rotational temperature (Kelvin)      0.88683
 Rotational constant (GHZ):          18.478585
    2 imaginary frequencies ignored.
 Zero-point vibrational energy      12190.2 (Joules/Mol)
                                    2.91352 (Kcal/Mol)
 Vibrational temperatures:   1466.14  1466.14
          (Kelvin)

 Zero-point correction=                           0.004643 (Hartree/Particle)
 Thermal correction to Energy=                    0.007072
 Thermal correction to Enthalpy=                  0.008016
 Thermal correction to Gibbs Free Energy=        -0.015820
 Sum of electronic and zero-point Energies=           -100.850003
 Sum of electronic and thermal Energies=              -100.847574
 Sum of electronic and thermal Enthalpies=            -100.846630
 Sum of electronic and thermal Free Energies=         -100.870465

                     E (Thermal)             CV                S
                      KCal/Mol        Cal/Mol-Kelvin    Cal/Mol-Kelvin
 Total                    4.438              5.682             50.167
 Electronic               0.000              0.000              1.377
 Translational            0.889              2.981             35.068
 Rotational               0.592              1.987             13.548
 Vibrational              2.956              0.714              0.173

 Normal termination of Gaussian 16 at Fri Aug 22 16:26:45 2025.
