 Gaussian 16, Revision C.01,
 Gaussian 16:  ES64L-G16RevC.01  3-Jul-2019

 -----------------------------------------
 # sp b3lyp/6-311g** Force nosymm scf=(qc)
 -----------------------------------------

 -------------------
 Title Card Required
 -------------------
 Symbolic Z-matrix:
 Charge =  0 Multiplicity = 2

                          Input orientation:
 ---------------------------------------------------------------------
 Center     Atomic      Atomic             Coordinates (Angstroms)
 Number     Number       Type             X           Y           Z
 ---------------------------------------------------------------------
      1          1           0        0.000000    0.000000    0.000000
      2          1           0       -2.900000    0.000000    0.000000
      3          9           0        1.000000    0.000000    0.000000
 ---------------------------------------------------------------------

 SCF Done:  E(UB3LYP) =  -100.966308459     a.u. after    6 cycles

 Alpha  occ. eigenvalues --  -24.64140  -1.16020  -0.51631  -0.38764  -0.38764
 Alpha  occ. eigenvalues --   -0.34345
 Alpha virt. eigenvalues --    0.00972   0.24922   0.34201   0.94076   0.94076
 Alpha virt. eigenvalues --    0.98600   1.22405   1.23190   1.23190   1.32464
 Alpha virt. eigenvalues --    1.35970   1.35970   1.90642   2.14417   2.34248

  Beta  occ. eigenvalues --  -24.64132  -1.16000  -0.51601  -0.38757  -0.38757
  Beta virt. eigenvalues --   -0.07997   0.02322   0.34150   0.38165   0.94077
  Beta virt. eigenvalues --    0.94077   0.98604   1.30232   1.35960   1.35960
  Beta virt. eigenvalues --    1.47288   1.47288   1.49174   1.90830   2.34188

 Mulliken charges and spin densities:
               1          2
     1  H    0.317943   0.001550
     2  H    0.003316   0.995691
     3  F   -0.321259   0.002759
 Sum of Mulliken charges =   0.00000   1.00000

 Dipole moment (field-independent basis, Debye):
    X=             -2.0718    Y=              0.0000    Z=             -0.0000  Tot=              2.0718
 Quadrupole moment (field-independent basis, Debye-Ang):
   XX=             -8.1004   YY=             -6.9606   ZZ=             -6.9606
   XY=              0.0000   XZ=             -0.0000   YZ=             -0.0000

  Exact polarizability:       7.738       0.000       2.411      -0.000       0.000       2.411
 Approx polarizability:       9.117       0.000       2.385       0.000       0.000       2.385

 ******    1 imaginary frequencies (negative Signs) ******

                      1                      2                      3
                      A                      A                      A
 Frequencies --    -78.7572               974.5934               974.5934
 Red. masses --      1.0531                 1.0341                 1.0341
 Frc consts  --      0.0038                 0.5787                 0.5787
 IR Inten    --      0.3467               162.4500               162.4500

                      4
                      A
 Frequencies --   3022.4968
 Red. masses --      1.0585
 Frc consts  --      5.6972
 IR Inten    --    103.4788

 - Thermochemistry -
 -------------------
 Temperature   298.150 Kelvin.  Pressure   1.00000 Atm.
 Atom     1 has atomic number  1 and mass   1.00783

 Molecular mass:    21.01405 amu.
 Principal axes and moments of inertia in atomic units:
                           1         2         3
     Eigenvalues --     0.00000  54.19564  54.19564
           X            1.00000  -0.00000   0.00000
           Y            0.00000   1.00000   0.00000
           Z            0.00000   0.00000   1.00000
 This molecule is a prolate symmetric top.
 Rotational symmetry number  1.
 Rotational temperature (Kelvin)      1.59817
 Rotational constant (GHZ):          33.300489
    1 imaginary frequencies ignored.
 Zero-point vibrational energy      29737.3 (Joules/Mol)
                                    7.10738 (Kcal/Mol)
 Vibrational temperatures:   1402.22  1402.22  4348.70
          (Kelvin)

 Zero-point correction=                           0.011326 (Hartree/Particle)
 Thermal correction to Energy=                    0.013768
 Thermal correction to Enthalpy=                  0.014712
 Thermal correction to Gibbs Free Energy=        -0.008584
 Sum of electronic and zero-point Energies=           -100.954982
 Sum of electronic and thermal Energies=              -100.952540
 Sum of electronic and thermal Enthalpies=            -100.951596
 Sum of electronic and thermal Free Energies=         -100.974892

                     E (Thermal)             CV                S
                      KCal/Mol        Cal/Mol-Kelvin    Cal/Mol-Kelvin
 Total                    8.640              5.780             49.030
 Electronic               0.000              0.000              1.377
 Translational            0.889              2.981             35.068
 Rotational               0.592              1.987             12.378
 Vibrational              7.158              0.812              0.207

 Normal termination of Gaussian 16 at Fri Aug 22 16:01:09 2025.
