 Gaussian 16, Revision C.01,
 Gaussian 16:  ES64L-G16RevC.01  3-Jul-2019

 -----------------------------------------
 # sp b3lyp/6-311g** Force nosymm scf=(qc)
 -----------------------------------------

 -------------------
 Title Card Required
 -------------------
 Symbolic Z-matrix:
 Charge =  0 Multiplicity = 2

                          Input orientation:
 ---------------------------------------------------------------------
 Center     Atomic      Atomic             Coordinates (Angstroms)
 Number     Number       Type             X           Y           Z
 ---------------------------------------------------------------------
      1          1           0        0.000000    0.000000    0.000000
      2          1           0       -3.500000    0.000000    0.000000
      3          9           0        1.900000    0.000000    0.000000
 ---------------------------------------------------------------------

 SCF Done:  E(UB3LYP) =  -100.794876415     a.u. after   14 cycles

 Alpha  occ. eigenvalues --  -24.67433  -1.13711  -0.46337  -0.39077  -0.39077
 Alpha  occ. eigenvalues --   -0.33574
 Alpha virt. eigenvalues --   -0.14407   0.22012   0.31003   0.90357   0.94868
 Alpha virt. eigenvalues --    0.94868   1.05682   1.23942   1.23942   1.24036
 Alpha virt. eigenvalues --    1.34489   1.34489   1.65276   2.13855   2.27838

  Beta  occ. eigenvalues --  -24.65255  -1.07664  -0.38606  -0.36941  -0.36941
  Beta virt. eigenvalues --   -0.20051  -0.07041   0.22267   0.37841   0.91253
  Beta virt. eigenvalues --    0.95197   0.95197   1.08065   1.22651   1.22651
  Beta virt. eigenvalues --    1.45383   1.45821   1.45821   1.59316   2.12047

 Mulliken charges and spin densities:
               1          2
     1  H    0.221781  -0.682265
     2  H    0.001798   0.997565
     3  F   -0.223579   0.684699
 Sum of Mulliken charges =   0.00000   1.00000

 Dipole moment (field-independent basis, Debye):
    X=             -2.1152    Y=             -0.0000    Z=              0.0000  Tot=              2.1152
 Quadrupole moment (field-independent basis, Debye-Ang):
   XX=            -10.1038   YY=             -7.4661   ZZ=             -7.4661
   XY=              0.0000   XZ=             -0.0000   YZ=              0.0000

  Exact polarizability:      24.825       0.000       2.077      -0.000       0.000       2.077
 Approx polarizability:      36.821       0.000       1.964      -0.000      -0.000       1.964

 ******    2 imaginary frequencies (negative Signs) ******

                      1                      2                      3
                      A                      A                      A
 Frequencies --  -1308.0980              -118.5735               559.0153
 Red. masses --      1.0573                 1.0542                 1.0267
 Frc consts  --      1.0660                 0.0087                 0.1890
 IR Inten    --    128.6252                 0.2959                45.7846

                      4
                      A
 Frequencies --    559.0153
 Red. masses --      1.0267
 Frc consts  --      0.1890
 IR Inten    --     45.7846

 - Thermochemistry -
 -------------------
 Temperature   298.150 Kelvin.  Pressure   1.00000 Atm.
 Atom     1 has atomic number  1 and mass   1.00783

 Molecular mass:    21.01405 amu.
 Principal axes and moments of inertia in atomic units:
                           1         2         3
     Eigenvalues --     0.00000 108.74129 108.74129
           X            1.00000  -0.00000   0.00000
           Y            0.00000   1.00000   0.00000
           Z            0.00000   0.00000   1.00000
 This molecule is a prolate symmetric top.
 Rotational symmetry number  1.
 Rotational temperature (Kelvin)      0.79651
 Rotational constant (GHZ):          16.596651
    2 imaginary frequencies ignored.
 Zero-point vibrational energy       6687.3 (Joules/Mol)
                                    1.59830 (Kcal/Mol)
 Warning -- explicit consideration of   2 degrees of freedom as
           vibrations may cause significant error
 Vibrational temperatures:    804.30   804.30
          (Kelvin)

 Zero-point correction=                           0.002547 (Hartree/Particle)
 Thermal correction to Energy=                    0.005275
 Thermal correction to Enthalpy=                  0.006220
 Thermal correction to Gibbs Free Energy=        -0.018135
 Sum of electronic and zero-point Energies=           -100.792329
 Sum of electronic and thermal Energies=              -100.789601
 Sum of electronic and thermal Enthalpies=            -100.788657
 Sum of electronic and thermal Free Energies=         -100.813011

                     E (Thermal)             CV                S
                      KCal/Mol        Cal/Mol-Kelvin    Cal/Mol-Kelvin
 Total                    3.310              7.208             51.259
 Electronic               0.000              0.000              1.377
 Translational            0.889              2.981             35.068
 Rotational               0.592              1.987             13.762
 Vibrational              1.829              2.240              1.052
 Vibration     1          0.915              1.120              0.526
 Vibration     2          0.915              1.120              0.526

 Normal termination of Gaussian 16 at Fri Aug 22 16:51:18 2025.
