 Gaussian 16, Revision C.01,
 Gaussian 16:  ES64L-G16RevC.01  3-Jul-2019

 -----------------------------------------
 # sp b3lyp/6-311g** Force nosymm scf=(qc)
 -----------------------------------------

 -------------------
 Title Card Required
 -------------------
 Symbolic Z-matrix:
 Charge =  0 Multiplicity = 2

                          Input orientation:
 ---------------------------------------------------------------------
 Center     Atomic      Atomic             Coordinates (Angstroms)
 Number     Number       Type             X           Y           Z
 ---------------------------------------------------------------------
      1          1           0        0.000000    0.000000    0.000000
      2          1           0       -2.550000    0.000000    0.000000
      3          9           0        1.350000    0.000000    0.000000
 ---------------------------------------------------------------------

 SCF Done:  E(UB3LYP) =  -100.890081228     a.u. after    7 cycles

 Alpha  occ. eigenvalues --  -24.64125  -1.10509  -0.45249  -0.36674  -0.36674
 Alpha  occ. eigenvalues --   -0.35401
 Alpha virt. eigenvalues --   -0.09707   0.23535   0.27044   0.93238   0.93238
 Alpha virt. eigenvalues --    1.02772   1.18065   1.22109   1.22109   1.25916
 Alpha virt. eigenvalues --    1.33570   1.33570   1.72255   2.13240   2.23912

  Beta  occ. eigenvalues --  -24.64045  -1.10300  -0.44952  -0.36599  -0.36599
  Beta virt. eigenvalues --   -0.13210  -0.05791   0.26198   0.36153   0.93222
  Beta virt. eigenvalues --    0.93222   1.02966   1.19843   1.33321   1.33321
  Beta virt. eigenvalues --    1.43158   1.43158   1.44141   1.72545   2.23389

 Mulliken charges and spin densities:
               1          2
     1  H    0.348860  -0.010027
     2  H    0.012825   0.984846
     3  F   -0.361684   0.025180
 Sum of Mulliken charges =  -0.00000   1.00000

 Dipole moment (field-independent basis, Debye):
    X=             -2.6140    Y=              0.0000    Z=             -0.0000  Tot=              2.6140
 Quadrupole moment (field-independent basis, Debye-Ang):
   XX=             -8.9835   YY=             -7.2309   ZZ=             -7.2309
   XY=              0.0000   XZ=             -0.0000   YZ=             -0.0000

  Exact polarizability:      16.393      -0.000       2.274       0.000       0.000       2.274
 Approx polarizability:      23.639       0.000       2.217      -0.000       0.000       2.217

 ******    2 imaginary frequencies (negative Signs) ******

                      1                      2                      3
                      A                      A                      A
 Frequencies --   -966.1942              -186.5523              1106.2485
 Red. masses --      1.0481                 1.0636                 1.0271
 Frc consts  --      0.5765                 0.0218                 0.7406
 IR Inten    --    123.0063                 0.7841               115.7067

                      4
                      A
 Frequencies --   1106.2485
 Red. masses --      1.0271
 Frc consts  --      0.7406
 IR Inten    --    115.7067

 - Thermochemistry -
 -------------------
 Temperature   298.150 Kelvin.  Pressure   1.00000 Atm.
 Atom     1 has atomic number  1 and mass   1.00783

 Molecular mass:    21.01405 amu.
 Principal axes and moments of inertia in atomic units:
                           1         2         3
     Eigenvalues --     0.00000  56.54263  56.54263
           X            1.00000  -0.00000   0.00000
           Y            0.00000   1.00000   0.00000
           Z            0.00000   0.00000   1.00000
 This molecule is a prolate symmetric top.
 Rotational symmetry number  1.
 Rotational temperature (Kelvin)      1.53183
 Rotational constant (GHZ):          31.918237
    2 imaginary frequencies ignored.
 Zero-point vibrational energy      13233.7 (Joules/Mol)
                                    3.16292 (Kcal/Mol)
 Vibrational temperatures:   1591.64  1591.64
          (Kelvin)

 Zero-point correction=                           0.005040 (Hartree/Particle)
 Thermal correction to Energy=                    0.007450
 Thermal correction to Enthalpy=                  0.008394
 Thermal correction to Gibbs Free Energy=        -0.014902
 Sum of electronic and zero-point Energies=           -100.885041
 Sum of electronic and thermal Energies=              -100.882632
 Sum of electronic and thermal Enthalpies=            -100.881687
 Sum of electronic and thermal Free Energies=         -100.904983

                     E (Thermal)             CV                S
                      KCal/Mol        Cal/Mol-Kelvin    Cal/Mol-Kelvin
 Total                    4.675              5.517             49.029
 Electronic               0.000              0.000              1.377
 Translational            0.889              2.981             35.068
 Rotational               0.592              1.987             12.462
 Vibrational              3.193              0.549              0.122

 Normal termination of Gaussian 16 at Fri Aug 22 16:17:59 2025.
