 Gaussian 16, Revision C.01,
 Gaussian 16:  ES64L-G16RevC.01  3-Jul-2019

 -----------------------------------------
 # sp b3lyp/6-311g** Force nosymm scf=(qc)
 -----------------------------------------

 -------------------
 Title Card Required
 -------------------
 Symbolic Z-matrix:
 Charge =  0 Multiplicity = 2

                          Input orientation:
 ---------------------------------------------------------------------
 Center     Atomic      Atomic             Coordinates (Angstroms)
 Number     Number       Type             X           Y           Z
 ---------------------------------------------------------------------
      1          1           0        0.000000    0.000000    0.000000
      2          1           0       -1.400000    0.000000    0.000000
      3          9           0        2.200000    0.000000    0.000000
 ---------------------------------------------------------------------

 SCF Done:  E(UB3LYP) =  -100.842819706     a.u. after   15 cycles

 Alpha  occ. eigenvalues --  -24.72186  -1.18407  -0.51537  -0.43127  -0.43127
 Alpha  occ. eigenvalues --   -0.37380
 Alpha virt. eigenvalues --   -0.09145   0.22770   0.32052   0.86839   0.92953
 Alpha virt. eigenvalues --    0.92953   1.04001   1.15030   1.15030   1.24110
 Alpha virt. eigenvalues --    1.42652   1.42652   1.88382   2.22841   2.48702

  Beta  occ. eigenvalues --  -24.69360  -1.10379  -0.40313  -0.40313  -0.36816
  Beta virt. eigenvalues --   -0.24602  -0.07862   0.23975   0.32261   0.92610
  Beta virt. eigenvalues --    0.94250   0.94250   1.07333   1.16125   1.16125
  Beta virt. eigenvalues --    1.27765   1.43404   1.43404   1.89526   2.23987

 Mulliken charges and spin densities:
               1          2
     1  H    0.038237  -0.227676
     2  H    0.050051   0.337472
     3  F   -0.088287   0.890204
 Sum of Mulliken charges =  -0.00000   1.00000

 Dipole moment (field-independent basis, Debye):
    X=             -1.3033    Y=             -0.0000    Z=             -0.0000  Tot=              1.3033
 Quadrupole moment (field-independent basis, Debye-Ang):
   XX=             -7.0743   YY=             -7.5586   ZZ=             -7.5586
   XY=             -0.0000   XZ=             -0.0000   YZ=             -0.0000

  Exact polarizability:      52.462      -0.000       2.103      -0.000      -0.000       2.103
 Approx polarizability:      78.009       0.000       2.080       0.000       0.000       2.080

 ******    2 imaginary frequencies (negative Signs) ******

                      1                      2                      3
                      A                      A                      A
 Frequencies --  -1916.7951              -348.3033              1225.0836
 Red. masses --      1.0104                 1.1054                 1.0134
 Frc consts  --      2.1873                 0.0790                 0.8961
 IR Inten    --    978.3869                17.2876                 0.1115

                      4
                      A
 Frequencies --   1225.0836
 Red. masses --      1.0134
 Frc consts  --      0.8961
 IR Inten    --      0.1115

 - Thermochemistry -
 -------------------
 Temperature   298.150 Kelvin.  Pressure   1.00000 Atm.
 Atom     1 has atomic number  1 and mass   1.00783

 Molecular mass:    21.01405 amu.
 Principal axes and moments of inertia in atomic units:
                           1         2         3
     Eigenvalues --     0.00000  58.25586  58.25586
           X            1.00000  -0.00000   0.00000
           Y            0.00000   1.00000   0.00000
           Z            0.00000   0.00000   1.00000
 This molecule is a prolate symmetric top.
 Rotational symmetry number  1.
 Rotational temperature (Kelvin)      1.48678
 Rotational constant (GHZ):          30.979567
    2 imaginary frequencies ignored.
 Zero-point vibrational energy      14655.3 (Joules/Mol)
                                    3.50269 (Kcal/Mol)
 Vibrational temperatures:   1762.62  1762.62
          (Kelvin)

 Zero-point correction=                           0.005582 (Hartree/Particle)
 Thermal correction to Energy=                    0.007973
 Thermal correction to Enthalpy=                  0.008917
 Thermal correction to Gibbs Free Energy=        -0.014384
 Sum of electronic and zero-point Energies=           -100.837238
 Sum of electronic and thermal Energies=              -100.834847
 Sum of electronic and thermal Enthalpies=            -100.833903
 Sum of electronic and thermal Free Energies=         -100.857204

                     E (Thermal)             CV                S
                      KCal/Mol        Cal/Mol-Kelvin    Cal/Mol-Kelvin
 Total                    5.003              5.346             49.041
 Electronic               0.000              0.000              1.377
 Translational            0.889              2.981             35.068
 Rotational               0.592              1.987             12.521
 Vibrational              3.522              0.378              0.075

 Normal termination of Gaussian 16 at Fri Aug 22 17:11:05 2025.
