 Gaussian 16, Revision C.01,
 Gaussian 16:  ES64L-G16RevC.01  3-Jul-2019

 -----------------------------------------
 # sp b3lyp/6-311g** Force nosymm scf=(qc)
 -----------------------------------------

 -------------------
 Title Card Required
 -------------------
 Symbolic Z-matrix:
 Charge =  0 Multiplicity = 2

                          Input orientation:
 ---------------------------------------------------------------------
 Center     Atomic      Atomic             Coordinates (Angstroms)
 Number     Number       Type             X           Y           Z
 ---------------------------------------------------------------------
      1          1           0        0.000000    0.000000    0.000000
      2          1           0       -1.750000    0.000000    0.000000
      3          9           0        1.700000    0.000000    0.000000
 ---------------------------------------------------------------------

 SCF Done:  E(UB3LYP) =  -100.836927036     a.u. after   13 cycles

 Alpha  occ. eigenvalues --  -24.65809  -1.12156  -0.45625  -0.38111  -0.37733
 Alpha  occ. eigenvalues --   -0.37733
 Alpha virt. eigenvalues --   -0.11619   0.22457   0.29229   0.90336   0.94604
 Alpha virt. eigenvalues --    0.94604   1.03887   1.18890   1.18890   1.34887
 Alpha virt. eigenvalues --    1.35170   1.35170   1.75463   2.14045   2.34209

  Beta  occ. eigenvalues --  -24.64003  -1.07214  -0.39379  -0.35978  -0.35978
  Beta virt. eigenvalues --   -0.21189  -0.09041   0.25348   0.30132   0.93491
  Beta virt. eigenvalues --    0.94672   0.94672   1.07498   1.24795   1.24795
  Beta virt. eigenvalues --    1.35879   1.35879   1.42470   1.76569   2.15541

 Mulliken charges and spin densities:
               1          2
     1  H    0.207400  -0.391315
     2  H    0.064350   0.825601
     3  F   -0.271750   0.565714
 Sum of Mulliken charges =   0.00000   1.00000

 Dipole moment (field-independent basis, Debye):
    X=             -2.8030    Y=              0.0000    Z=             -0.0000  Tot=              2.8030
 Quadrupole moment (field-independent basis, Debye-Ang):
   XX=             -8.5032   YY=             -7.4094   ZZ=             -7.4094
   XY=              0.0000   XZ=             -0.0000   YZ=              0.0000

  Exact polarizability:      43.207       0.000       2.169      -0.000       0.000       2.169
 Approx polarizability:      59.166       0.000       2.089      -0.000       0.000       2.089

 ******    2 imaginary frequencies (negative Signs) ******

                      1                      2                      3
                      A                      A                      A
 Frequencies --  -2198.9191              -606.9377               892.1762
 Red. masses --      1.0242                 1.0894                 1.0183
 Frc consts  --      2.9178                 0.2364                 0.4776
 IR Inten    --    241.4326                 4.2884                23.4733

                      4
                      A
 Frequencies --    892.1762
 Red. masses --      1.0183
 Frc consts  --      0.4776
 IR Inten    --     23.4733

 - Thermochemistry -
 -------------------
 Temperature   298.150 Kelvin.  Pressure   1.00000 Atm.
 Atom     1 has atomic number  1 and mass   1.00783

 Molecular mass:    21.01405 amu.
 Principal axes and moments of inertia in atomic units:
                           1         2         3
     Eigenvalues --     0.00000  48.66037  48.66037
           X            1.00000  -0.00000   0.00000
           Y            0.00000   1.00000   0.00000
           Z            0.00000   0.00000   1.00000
 This molecule is a prolate symmetric top.
 Rotational symmetry number  1.
 Rotational temperature (Kelvin)      1.77997
 Rotational constant (GHZ):          37.088524
    2 imaginary frequencies ignored.
 Zero-point vibrational energy      10672.8 (Joules/Mol)
                                    2.55086 (Kcal/Mol)
 Vibrational temperatures:   1283.64  1283.64
          (Kelvin)

 Zero-point correction=                           0.004065 (Hartree/Particle)
 Thermal correction to Energy=                    0.006537
 Thermal correction to Enthalpy=                  0.007481
 Thermal correction to Gibbs Free Energy=        -0.015752
 Sum of electronic and zero-point Energies=           -100.832862
 Sum of electronic and thermal Energies=              -100.830390
 Sum of electronic and thermal Enthalpies=            -100.829446
 Sum of electronic and thermal Free Energies=         -100.852679

                     E (Thermal)             CV                S
                      KCal/Mol        Cal/Mol-Kelvin    Cal/Mol-Kelvin
 Total                    4.102              5.990             48.897
 Electronic               0.000              0.000              1.377
 Translational            0.889              2.981             35.068
 Rotational               0.592              1.987             12.164
 Vibrational              2.621              1.022              0.288

 Normal termination of Gaussian 16 at Fri Aug 22 16:37:12 2025.
