 Gaussian 16, Revision C.01,
 Gaussian 16:  ES64L-G16RevC.01  3-Jul-2019

 -----------------------------------------
 # sp b3lyp/6-311g** Force nosymm scf=(qc)
 -----------------------------------------

 -------------------
 Title Card Required
 -------------------
 Symbolic Z-matrix:
 Charge =  0 Multiplicity = 2

                          Input orientation:
 ---------------------------------------------------------------------
 Center     Atomic      Atomic             Coordinates (Angstroms)
 Number     Number       Type             X           Y           Z
 ---------------------------------------------------------------------
      1          1           0        0.000000    0.000000    0.000000
      2          1           0       -3.350000    0.000000    0.000000
      3          9           0        1.850000    0.000000    0.000000
 ---------------------------------------------------------------------

 SCF Done:  E(UB3LYP) =  -100.799040748     a.u. after   20 cycles

 Alpha  occ. eigenvalues --  -24.64874  -1.07512  -0.38984  -0.36630  -0.36630
 Alpha  occ. eigenvalues --   -0.33684
 Alpha virt. eigenvalues --   -0.19597   0.19787   0.27456   0.92246   0.95055
 Alpha virt. eigenvalues --    0.95055   1.08067   1.23146   1.23146   1.23774
 Alpha virt. eigenvalues --    1.23774   1.23903   1.62173   2.11886   2.14512

  Beta  occ. eigenvalues --  -24.66912  -1.13149  -0.45748  -0.38624  -0.38624
  Beta virt. eigenvalues --   -0.15060  -0.05386   0.27462   0.39225   0.91605
  Beta virt. eigenvalues --    0.94897   0.94897   1.05886   1.34070   1.34070
  Beta virt. eigenvalues --    1.46731   1.46731   1.46919   1.67718   2.26803

 Mulliken charges and spin densities:
               1          2
     1  H    0.239817   0.643061
     2  H    0.002310   0.997771
     3  F   -0.242127  -0.640832
 Sum of Mulliken charges =   0.00000   1.00000

 Dipole moment (field-independent basis, Debye):
    X=             -2.2304    Y=             -0.0000    Z=             -0.0000  Tot=              2.2304
 Quadrupole moment (field-independent basis, Debye-Ang):
   XX=            -10.1794   YY=             -7.4441   ZZ=             -7.4441
   XY=             -0.0000   XZ=             -0.0000   YZ=              0.0000

  Exact polarizability:      25.045      -0.000       2.087      -0.000       0.000       2.087
 Approx polarizability:      38.035      -0.000       1.976      -0.000      -0.000       1.976

 ******    1 imaginary frequencies (negative Signs) ******

                      1                      2                      3
                      A                      A                      A
 Frequencies --  -1401.4274                51.7860               602.8884
 Red. masses --      1.0589                 1.0527                 1.0265
 Frc consts  --      1.2253                 0.0017                 0.2198
 IR Inten    --    122.1013                 0.6460                53.0492

                      4
                      A
 Frequencies --    602.8884
 Red. masses --      1.0265
 Frc consts  --      0.2198
 IR Inten    --     53.0492

 - Thermochemistry -
 -------------------
 Temperature   298.150 Kelvin.  Pressure   1.00000 Atm.
 Atom     1 has atomic number  1 and mass   1.00783

 Molecular mass:    21.01405 amu.
 Principal axes and moments of inertia in atomic units:
                           1         2         3
     Eigenvalues --     0.00000 101.05580 101.05580
           X            1.00000  -0.00000   0.00000
           Y            0.00000   1.00000   0.00000
           Z            0.00000   0.00000   1.00000
 This molecule is a prolate symmetric top.
 Rotational symmetry number  1.
 Rotational temperature (Kelvin)      0.85709
 Rotational constant (GHZ):          17.858858
    1 imaginary frequencies ignored.
 Zero-point vibrational energy       7521.9 (Joules/Mol)
                                    1.79778 (Kcal/Mol)
 Warning -- explicit consideration of   3 degrees of freedom as
           vibrations may cause significant error
 Vibrational temperatures:     74.51   867.42   867.42
          (Kelvin)

 Zero-point correction=                           0.002865 (Hartree/Particle)
 Thermal correction to Energy=                    0.006373
 Thermal correction to Enthalpy=                  0.007317
 Thermal correction to Gibbs Free Energy=        -0.019147
 Sum of electronic and zero-point Energies=           -100.796176
 Sum of electronic and thermal Energies=              -100.792667
 Sum of electronic and thermal Enthalpies=            -100.791723
 Sum of electronic and thermal Free Energies=         -100.818188

                     E (Thermal)             CV                S
                      KCal/Mol        Cal/Mol-Kelvin    Cal/Mol-Kelvin
 Total                    3.999              8.996             55.699
 Electronic               0.000              0.000              1.377
 Translational            0.889              2.981             35.068
 Rotational               0.592              1.987             13.616
 Vibrational              2.518              4.028              5.637
 Vibration     1          0.596              1.977              4.748
 Vibration     2          0.961              1.026              0.445
 Vibration     3          0.961              1.026              0.445

 Normal termination of Gaussian 16 at Fri Aug 22 16:48:05 2025.
