 Gaussian 16, Revision C.01,
 Gaussian 16:  ES64L-G16RevC.01  3-Jul-2019

 -----------------------------------------
 # sp b3lyp/6-311g** Force nosymm scf=(qc)
 -----------------------------------------

 -------------------
 Title Card Required
 -------------------
 Symbolic Z-matrix:
 Charge =  0 Multiplicity = 2

                          Input orientation:
 ---------------------------------------------------------------------
 Center     Atomic      Atomic             Coordinates (Angstroms)
 Number     Number       Type             X           Y           Z
 ---------------------------------------------------------------------
      1          1           0        0.000000    0.000000    0.000000
      2          1           0       -1.700000    0.000000    0.000000
      3          9           0        3.250000    0.000000    0.000000
 ---------------------------------------------------------------------

 SCF Done:  E(UB3LYP) =  -100.795324683     a.u. after   30 cycles

 Alpha  occ. eigenvalues --  -24.75418  -1.21380  -0.54543  -0.45804  -0.45804
 Alpha  occ. eigenvalues --   -0.33736
 Alpha virt. eigenvalues --   -0.11193   0.25314   0.30348   0.88522   0.91429
 Alpha virt. eigenvalues --    0.91429   1.02537   1.06950   1.23148   1.23148
 Alpha virt. eigenvalues --    1.37554   1.37554   1.67180   2.16301   2.41673

  Beta  occ. eigenvalues --  -24.72314  -1.12464  -0.42693  -0.42693  -0.33667
  Beta virt. eigenvalues --   -0.25630  -0.11000   0.25451   0.30689   0.92913
  Beta virt. eigenvalues --    0.92913   0.97523   1.06470   1.07144   1.23229
  Beta virt. eigenvalues --    1.23229   1.37740   1.37740   1.67432   2.16970

 Mulliken charges and spin densities:
               1          2
     1  H    0.000953  -0.607236
     2  H    0.012312   0.623242
     3  F   -0.013265   0.983995
 Sum of Mulliken charges =   0.00000   1.00000

 Dipole moment (field-independent basis, Debye):
    X=             -0.3191    Y=             -0.0000    Z=             -0.0000  Tot=              0.3191
 Quadrupole moment (field-independent basis, Debye-Ang):
   XX=             -6.3231   YY=             -7.7564   ZZ=             -7.7564
   XY=              0.0000   XZ=              0.0000   YZ=             -0.0000

  Exact polarizability:      50.961      -0.000       2.005      -0.000      -0.000       2.005
 Approx polarizability:      56.731       0.000       1.975       0.000       0.000       1.975

 ******    2 imaginary frequencies (negative Signs) ******

                      1                      2                      3
                      A                      A                      A
 Frequencies --  -1913.7627              -162.5342               897.5233
 Red. masses --      1.0078                 1.1085                 1.0120
 Frc consts  --      2.1748                 0.0173                 0.4803
 IR Inten    --     53.0653                12.3111                 0.0140

                      4
                      A
 Frequencies --    897.5233
 Red. masses --      1.0120
 Frc consts  --      0.4803
 IR Inten    --      0.0140

 - Thermochemistry -
 -------------------
 Temperature   298.150 Kelvin.  Pressure   1.00000 Atm.
 Atom     1 has atomic number  1 and mass   1.00783

 Molecular mass:    21.01405 amu.
 Principal axes and moments of inertia in atomic units:
                           1         2         3
     Eigenvalues --     0.00000 114.59315 114.59315
           X            1.00000  -0.00000   0.00000
           Y            0.00000   1.00000   0.00000
           Z            0.00000   0.00000   1.00000
 This molecule is a prolate symmetric top.
 Rotational symmetry number  1.
 Rotational temperature (Kelvin)      0.75584
 Rotational constant (GHZ):          15.749120
    2 imaginary frequencies ignored.
 Zero-point vibrational energy      10736.8 (Joules/Mol)
                                    2.56615 (Kcal/Mol)
 Vibrational temperatures:   1291.34  1291.34
          (Kelvin)

 Zero-point correction=                           0.004089 (Hartree/Particle)
 Thermal correction to Energy=                    0.006559
 Thermal correction to Enthalpy=                  0.007503
 Thermal correction to Gibbs Free Energy=        -0.016535
 Sum of electronic and zero-point Energies=           -100.791235
 Sum of electronic and thermal Energies=              -100.788766
 Sum of electronic and thermal Enthalpies=            -100.787822
 Sum of electronic and thermal Free Energies=         -100.811860

                     E (Thermal)             CV                S
                      KCal/Mol        Cal/Mol-Kelvin    Cal/Mol-Kelvin
 Total                    4.116              5.975             50.593
 Electronic               0.000              0.000              1.377
 Translational            0.889              2.981             35.068
 Rotational               0.592              1.987             13.866
 Vibrational              2.635              1.007              0.282

 Normal termination of Gaussian 16 at Fri Aug 22 20:33:55 2025.
