 Gaussian 16, Revision C.01,
 Gaussian 16:  ES64L-G16RevC.01  3-Jul-2019

 -----------------------------------------
 # sp b3lyp/6-311g** Force nosymm scf=(qc)
 -----------------------------------------

 -------------------
 Title Card Required
 -------------------
 Symbolic Z-matrix:
 Charge =  0 Multiplicity = 2

                          Input orientation:
 ---------------------------------------------------------------------
 Center     Atomic      Atomic             Coordinates (Angstroms)
 Number     Number       Type             X           Y           Z
 ---------------------------------------------------------------------
      1          1           0        0.000000    0.000000    0.000000
      2          1           0       -1.700000    0.000000    0.000000
      3          9           0        2.850000    0.000000    0.000000
 ---------------------------------------------------------------------

 SCF Done:  E(UB3LYP) =  -100.797037639     a.u. after   37 cycles

 Alpha  occ. eigenvalues --  -24.74224  -1.20272  -0.53353  -0.44797  -0.44797
 Alpha  occ. eigenvalues --   -0.34463
 Alpha virt. eigenvalues --   -0.11694   0.24866   0.30516   0.90000   0.92164
 Alpha virt. eigenvalues --    0.92164   1.04168   1.07972   1.22390   1.22390
 Alpha virt. eigenvalues --    1.36790   1.36790   1.66428   2.15508   2.41671

  Beta  occ. eigenvalues --  -24.71202  -1.11612  -0.41772  -0.41772  -0.34279
  Beta virt. eigenvalues --   -0.25052  -0.11295   0.25731   0.30572   0.93618
  Beta virt. eigenvalues --    0.93618   0.98258   1.06209   1.10519   1.22619
  Beta virt. eigenvalues --    1.22619   1.37202   1.37202   1.66929   2.16531

 Mulliken charges and spin densities:
               1          2
     1  H    0.012280  -0.595153
     2  H    0.024239   0.637887
     3  F   -0.036519   0.957265
 Sum of Mulliken charges =   0.00000   1.00000

 Dipole moment (field-independent basis, Debye):
    X=             -0.7281    Y=              0.0000    Z=             -0.0000  Tot=              0.7281
 Quadrupole moment (field-independent basis, Debye-Ang):
   XX=             -6.9259   YY=             -7.7317   ZZ=             -7.7317
   XY=             -0.0000   XZ=             -0.0000   YZ=              0.0000

  Exact polarizability:      61.840      -0.000       2.016       0.000       0.000       2.016
 Approx polarizability:      71.078      -0.000       1.972       0.000      -0.000       1.972

 ******    2 imaginary frequencies (negative Signs) ******

                      1                      2                      3
                      A                      A                      A
 Frequencies --  -1915.6284              -256.4391               886.8385
 Red. masses --      1.0080                 1.1084                 1.0129
 Frc consts  --      2.1793                 0.0429                 0.4694
 IR Inten    --    151.7136                32.8319                 0.0045

                      4
                      A
 Frequencies --    886.8385
 Red. masses --      1.0129
 Frc consts  --      0.4694
 IR Inten    --      0.0045

 - Thermochemistry -
 -------------------
 Temperature   298.150 Kelvin.  Pressure   1.00000 Atm.
 Atom     1 has atomic number  1 and mass   1.00783

 Molecular mass:    21.01405 amu.
 Principal axes and moments of inertia in atomic units:
                           1         2         3
     Eigenvalues --     0.00000  94.28947  94.28947
           X            1.00000  -0.00000   0.00000
           Y            0.00000   1.00000   0.00000
           Z            0.00000   0.00000   1.00000
 This molecule is a prolate symmetric top.
 Rotational symmetry number  1.
 Rotational temperature (Kelvin)      0.91860
 Rotational constant (GHZ):          19.140433
    2 imaginary frequencies ignored.
 Zero-point vibrational energy      10608.9 (Joules/Mol)
                                    2.53560 (Kcal/Mol)
 Vibrational temperatures:   1275.96  1275.96
          (Kelvin)

 Zero-point correction=                           0.004041 (Hartree/Particle)
 Thermal correction to Energy=                    0.006515
 Thermal correction to Enthalpy=                  0.007459
 Thermal correction to Gibbs Free Energy=        -0.016401
 Sum of electronic and zero-point Energies=           -100.792997
 Sum of electronic and thermal Energies=              -100.790523
 Sum of electronic and thermal Enthalpies=            -100.789579
 Sum of electronic and thermal Free Energies=         -100.813439

                     E (Thermal)             CV                S
                      KCal/Mol        Cal/Mol-Kelvin    Cal/Mol-Kelvin
 Total                    4.088              6.005             50.218
 Electronic               0.000              0.000              1.377
 Translational            0.889              2.981             35.068
 Rotational               0.592              1.987             13.478
 Vibrational              2.607              1.037              0.294

 Normal termination of Gaussian 16 at Fri Aug 22 18:52:51 2025.
