 Gaussian 16, Revision C.01,
 Gaussian 16:  ES64L-G16RevC.01  3-Jul-2019

 -----------------------------------------
 # sp b3lyp/6-311g** Force nosymm scf=(qc)
 -----------------------------------------

 -------------------
 Title Card Required
 -------------------
 Symbolic Z-matrix:
 Charge =  0 Multiplicity = 2

                          Input orientation:
 ---------------------------------------------------------------------
 Center     Atomic      Atomic             Coordinates (Angstroms)
 Number     Number       Type             X           Y           Z
 ---------------------------------------------------------------------
      1          1           0        0.000000    0.000000    0.000000
      2          1           0       -2.700000    0.000000    0.000000
      3          9           0        1.550000    0.000000    0.000000
 ---------------------------------------------------------------------

 SCF Done:  E(UB3LYP) =  -100.845018802     a.u. after    9 cycles

 Alpha  occ. eigenvalues --  -24.64351  -1.09877  -0.43100  -0.36370  -0.36370
 Alpha  occ. eigenvalues --   -0.35262
 Alpha virt. eigenvalues --   -0.14603   0.22280   0.27228   0.94040   0.94040
 Alpha virt. eigenvalues --    1.02545   1.08654   1.22252   1.22252   1.23755
 Alpha virt. eigenvalues --    1.31779   1.31779   1.74724   2.13310   2.20231

  Beta  occ. eigenvalues --  -24.63880  -1.08622  -0.41961  -0.35921  -0.35921
  Beta virt. eigenvalues --   -0.16597  -0.08211   0.24235   0.36041   0.93854
  Beta virt. eigenvalues --    0.93854   1.03519   1.08645   1.29420   1.29420
  Beta virt. eigenvalues --    1.43150   1.43150   1.43446   1.73912   2.16673

 Mulliken charges and spin densities:
               1          2
     1  H    0.331158  -0.133538
     2  H    0.013411   0.984640
     3  F   -0.344569   0.148898
 Sum of Mulliken charges =  -0.00000   1.00000

 Dipole moment (field-independent basis, Debye):
    X=             -2.7885    Y=              0.0000    Z=              0.0000  Tot=              2.7885
 Quadrupole moment (field-independent basis, Debye-Ang):
   XX=             -9.6242   YY=             -7.3533   ZZ=             -7.3533
   XY=              0.0000   XZ=              0.0000   YZ=              0.0000

  Exact polarizability:      22.910      -0.000       2.174       0.000       0.000       2.174
 Approx polarizability:      36.699       0.000       2.096      -0.000       0.000       2.096

 ******    2 imaginary frequencies (negative Signs) ******

                      1                      2                      3
                      A                      A                      A
 Frequencies --  -1685.2699              -224.4589               953.3623
 Red. masses --      1.0524                 1.0592                 1.0258
 Frc consts  --      1.7611                 0.0314                 0.5493
 IR Inten    --      3.4141                 3.1506                97.9639

                      4
                      A
 Frequencies --    953.3623
 Red. masses --      1.0258
 Frc consts  --      0.5493
 IR Inten    --     97.9639

 - Thermochemistry -
 -------------------
 Temperature   298.150 Kelvin.  Pressure   1.00000 Atm.
 Atom     1 has atomic number  1 and mass   1.00783

 Molecular mass:    21.01405 amu.
 Principal axes and moments of inertia in atomic units:
                           1         2         3
     Eigenvalues --     0.00000  67.84721  67.84721
           X            1.00000  -0.00000   0.00000
           Y            0.00000   1.00000   0.00000
           Z            0.00000   0.00000   1.00000
 This molecule is a prolate symmetric top.
 Rotational symmetry number  1.
 Rotational temperature (Kelvin)      1.27660
 Rotational constant (GHZ):          26.600079
    2 imaginary frequencies ignored.
 Zero-point vibrational energy      11404.7 (Joules/Mol)
                                    2.72580 (Kcal/Mol)
 Vibrational temperatures:   1371.68  1371.68
          (Kelvin)

 Zero-point correction=                           0.004344 (Hartree/Particle)
 Thermal correction to Energy=                    0.006792
 Thermal correction to Enthalpy=                  0.007737
 Thermal correction to Gibbs Free Energy=        -0.015780
 Sum of electronic and zero-point Energies=           -100.840675
 Sum of electronic and thermal Energies=              -100.838226
 Sum of electronic and thermal Enthalpies=            -100.837282
 Sum of electronic and thermal Free Energies=         -100.860799

                     E (Thermal)             CV                S
                      KCal/Mol        Cal/Mol-Kelvin    Cal/Mol-Kelvin
 Total                    4.262              5.830             49.495
 Electronic               0.000              0.000              1.377
 Translational            0.889              2.981             35.068
 Rotational               0.592              1.987             12.824
 Vibrational              2.781              0.862              0.226

 Normal termination of Gaussian 16 at Fri Aug 22 16:28:53 2025.
