 Gaussian 16, Revision C.01,
 Gaussian 16:  ES64L-G16RevC.01  3-Jul-2019

 -----------------------------------------
 # sp b3lyp/6-311g** Force nosymm scf=(qc)
 -----------------------------------------

 -------------------
 Title Card Required
 -------------------
 Symbolic Z-matrix:
 Charge =  0 Multiplicity = 2

                          Input orientation:
 ---------------------------------------------------------------------
 Center     Atomic      Atomic             Coordinates (Angstroms)
 Number     Number       Type             X           Y           Z
 ---------------------------------------------------------------------
      1          1           0        0.000000    0.000000    0.000000
      2          1           0       -0.700000    0.000000    0.000000
      3          9           0        2.400000    0.000000    0.000000
 ---------------------------------------------------------------------

 SCF Done:  E(UB3LYP) =  -100.932840315     a.u. after  151 cycles

 Alpha  occ. eigenvalues --  -24.76994  -1.22773  -0.55938  -0.47702  -0.47084
 Alpha  occ. eigenvalues --   -0.43316
 Alpha virt. eigenvalues --    0.08147   0.20460   0.49678   0.85504   0.90354
 Alpha virt. eigenvalues --    0.93340   1.09392   1.09427   1.13104   1.58559
 Alpha virt. eigenvalues --    1.86285   1.86314   1.90906   2.40534   3.56922

  Beta  occ. eigenvalues --  -24.73829  -1.13679  -0.45344  -0.43911  -0.42496
  Beta virt. eigenvalues --   -0.26547   0.08255   0.20533   0.49778   0.91844
  Beta virt. eigenvalues --    0.94913   0.95197   1.09427   1.09430   1.16677
  Beta virt. eigenvalues --    1.58587   1.86287   1.86311   1.90910   2.40549

 Mulliken charges and spin densities:
               1          2
     1  H   -0.008465  -0.002088
     2  H   -0.008489  -0.000505
     3  F    0.016954   1.002593
 Sum of Mulliken charges =   0.00000   1.00000

 Dipole moment (field-independent basis, Debye):
    X=              0.1731    Y=              0.0000    Z=             -0.0000  Tot=              0.1731
 Quadrupole moment (field-independent basis, Debye-Ang):
   XX=             -6.0184   YY=             -6.1788   ZZ=             -6.7470
   XY=             -0.0000   XZ=              0.0000   YZ=             -0.3247

  Exact polarizability:       8.278      -0.000       2.333      -0.000      -0.162       2.049
 Approx polarizability:       9.159      -0.000       2.517       0.000      -0.209       2.152

 ******    2 imaginary frequencies (negative Signs) ******

                      1                      2                      3
                      A                      A                      A
 Frequencies --  -1384.0432             -1152.3931               255.6243
 Red. masses --      1.0094                 1.0094                 1.1085
 Frc consts  --      1.1393                 0.7898                 0.0427
 IR Inten    --      0.0104                 0.0356                 0.8923

                      4
                      A
 Frequencies --   5089.8624
 Red. masses --      1.0078
 Frc consts  --     15.3832
 IR Inten    --      5.2308

 - Thermochemistry -
 -------------------
 Temperature   298.150 Kelvin.  Pressure   1.00000 Atm.
 Atom     1 has atomic number  1 and mass   1.00783

 Molecular mass:    21.01405 amu.
 Principal axes and moments of inertia in atomic units:
                           1         2         3
     Eigenvalues --     0.00000  50.09540  50.09540
           X            1.00000  -0.00000   0.00000
           Y            0.00000   1.00000   0.00000
           Z            0.00000   0.00000   1.00000
 This molecule is a prolate symmetric top.
 Rotational symmetry number  1.
 Rotational temperature (Kelvin)      1.72898
 Rotational constant (GHZ):          36.026085
    2 imaginary frequencies ignored.
 Zero-point vibrational energy      31973.1 (Joules/Mol)
                                    7.64176 (Kcal/Mol)
 Warning -- explicit consideration of   1 degrees of freedom as
           vibrations may cause significant error
 Vibrational temperatures:    367.79  7323.18
          (Kelvin)

 Zero-point correction=                           0.012178 (Hartree/Particle)
 Thermal correction to Energy=                    0.015017
 Thermal correction to Enthalpy=                  0.015961
 Thermal correction to Gibbs Free Energy=        -0.007966
 Sum of electronic and zero-point Energies=           -100.920662
 Sum of electronic and thermal Energies=              -100.917823
 Sum of electronic and thermal Enthalpies=            -100.916879
 Sum of electronic and thermal Free Energies=         -100.940806

                     E (Thermal)             CV                S
                      KCal/Mol        Cal/Mol-Kelvin    Cal/Mol-Kelvin
 Total                    9.423              6.721             50.358
 Electronic               0.000              0.000              1.377
 Translational            0.889              2.981             35.068
 Rotational               0.592              1.987             12.221
 Vibrational              7.942              1.753              1.691
 Vibration     1          0.666              1.753              1.691

 Normal termination of Gaussian 16 at Fri Aug 22 17:30:08 2025.
