 Gaussian 16, Revision C.01,
 Gaussian 16:  ES64L-G16RevC.01  3-Jul-2019

 -----------------------------------------
 # sp b3lyp/6-311g** Force nosymm scf=(qc)
 -----------------------------------------

 -------------------
 Title Card Required
 -------------------
 Symbolic Z-matrix:
 Charge =  0 Multiplicity = 2

                          Input orientation:
 ---------------------------------------------------------------------
 Center     Atomic      Atomic             Coordinates (Angstroms)
 Number     Number       Type             X           Y           Z
 ---------------------------------------------------------------------
      1          1           0        0.000000    0.000000    0.000000
      2          1           0       -1.550000    0.000000    0.000000
      3          9           0        1.250000    0.000000    0.000000
 ---------------------------------------------------------------------

 SCF Done:  E(UB3LYP) =  -100.921390744     a.u. after    9 cycles

 Alpha  occ. eigenvalues --  -24.63491  -1.11431  -0.48678  -0.37712  -0.36672
 Alpha  occ. eigenvalues --   -0.36672
 Alpha virt. eigenvalues --   -0.01175   0.20979   0.29073   0.93556   0.93556
 Alpha virt. eigenvalues --    1.01619   1.05902   1.15880   1.15880   1.39780
 Alpha virt. eigenvalues --    1.39780   1.53131   1.83670   2.21850   2.38505

  Beta  occ. eigenvalues --  -24.62914  -1.09956  -0.45474  -0.36140  -0.36140
  Beta virt. eigenvalues --   -0.18883   0.02366   0.25257   0.31969   0.93664
  Beta virt. eigenvalues --    0.93664   1.03009   1.13159   1.25834   1.25834
  Beta virt. eigenvalues --    1.43534   1.43534   1.56299   1.90829   2.28542

 Mulliken charges and spin densities:
               1          2
     1  H    0.306049  -0.054919
     2  H    0.055515   0.882725
     3  F   -0.361564   0.172194
 Sum of Mulliken charges =   0.00000   1.00000

 Dipole moment (field-independent basis, Debye):
    X=             -2.7875    Y=              0.0000    Z=              0.0000  Tot=              2.7875
 Quadrupole moment (field-independent basis, Debye-Ang):
   XX=             -8.0705   YY=             -7.0435   ZZ=             -7.0435
   XY=              0.0000   XZ=              0.0000   YZ=              0.0000

  Exact polarizability:      21.375      -0.000       2.411      -0.000      -0.000       2.411
 Approx polarizability:      27.363       0.000       2.378      -0.000      -0.000       2.378

 ******    1 imaginary frequencies (negative Signs) ******

                      1                      2                      3
                      A                      A                      A
 Frequencies --  -1712.2051               431.4158              1121.1070
 Red. masses --      1.0188                 1.0955                 1.0208
 Frc consts  --      1.7598                 0.1201                 0.7559
 IR Inten    --     58.1503                26.0926                66.7661

                      4
                      A
 Frequencies --   1121.1070
 Red. masses --      1.0208
 Frc consts  --      0.7559
 IR Inten    --     66.7661

 - Thermochemistry -
 -------------------
 Temperature   298.150 Kelvin.  Pressure   1.00000 Atm.
 Atom     1 has atomic number  1 and mass   1.00783

 Molecular mass:    21.01405 amu.
 Principal axes and moments of inertia in atomic units:
                           1         2         3
     Eigenvalues --     0.00000  31.00849  31.00849
           X            1.00000  -0.00000   0.00000
           Y            0.00000   1.00000   0.00000
           Z            0.00000   0.00000   1.00000
 This molecule is a prolate symmetric top.
 Rotational symmetry number  1.
 Rotational temperature (Kelvin)      2.79323
 Rotational constant (GHZ):          58.201513
    1 imaginary frequencies ignored.
 Zero-point vibrational energy      15991.9 (Joules/Mol)
                                    3.82215 (Kcal/Mol)
 Warning -- explicit consideration of   1 degrees of freedom as
           vibrations may cause significant error
 Vibrational temperatures:    620.71  1613.02  1613.02
          (Kelvin)

 Zero-point correction=                           0.006091 (Hartree/Particle)
 Thermal correction to Energy=                    0.008777
 Thermal correction to Enthalpy=                  0.009722
 Thermal correction to Gibbs Free Energy=        -0.013409
 Sum of electronic and zero-point Energies=           -100.915300
 Sum of electronic and thermal Energies=              -100.912613
 Sum of electronic and thermal Enthalpies=            -100.911669
 Sum of electronic and thermal Free Energies=         -100.934800

                     E (Thermal)             CV                S
                      KCal/Mol        Cal/Mol-Kelvin    Cal/Mol-Kelvin
 Total                    5.508              6.895             48.682
 Electronic               0.000              0.000              1.377
 Translational            0.889              2.981             35.068
 Rotational               0.592              1.987             11.268
 Vibrational              4.027              1.927              0.968
 Vibration     1          0.792              1.402              0.854

 Normal termination of Gaussian 16 at Fri Aug 22 16:12:16 2025.
