 Gaussian 16, Revision C.01,
 Gaussian 16:  ES64L-G16RevC.01  3-Jul-2019

 -----------------------------------------
 # sp b3lyp/6-311g** Force nosymm scf=(qc)
 -----------------------------------------

 -------------------
 Title Card Required
 -------------------
 Symbolic Z-matrix:
 Charge =  0 Multiplicity = 2

                          Input orientation:
 ---------------------------------------------------------------------
 Center     Atomic      Atomic             Coordinates (Angstroms)
 Number     Number       Type             X           Y           Z
 ---------------------------------------------------------------------
      1          1           0        0.000000    0.000000    0.000000
      2          1           0       -2.650000    0.000000    0.000000
      3          9           0        2.100000    0.000000    0.000000
 ---------------------------------------------------------------------

 SCF Done:  E(UB3LYP) =  -100.757388946     a.u. after   16 cycles

 Alpha  occ. eigenvalues --  -24.63644  -1.07886  -0.38676  -0.36106  -0.35312
 Alpha  occ. eigenvalues --   -0.34198
 Alpha virt. eigenvalues --   -0.23317   0.21505   0.26624   0.90913   0.97923
 Alpha virt. eigenvalues --    0.97952   1.09828   1.21526   1.21526   1.22948
 Alpha virt. eigenvalues --    1.22954   1.23378   1.48424   2.12531   2.14355

  Beta  occ. eigenvalues --  -24.63665  -1.07947  -0.38355  -0.35334  -0.34535
  Beta virt. eigenvalues --   -0.23434  -0.10183   0.25072   0.34483   0.91281
  Beta virt. eigenvalues --    0.97942   0.97968   1.10083   1.23731   1.23737
  Beta virt. eigenvalues --    1.41198   1.41198   1.41573   1.49411   2.15462

 Mulliken charges and spin densities:
               1          2
     1  H    0.244361   0.044039
     2  H    0.034146   0.963023
     3  F   -0.278507  -0.007063
 Sum of Mulliken charges =   0.00000   1.00000

 Dipole moment (field-independent basis, Debye):
    X=             -3.4077    Y=              0.0006    Z=              0.0002  Tot=              3.4077
 Quadrupole moment (field-independent basis, Debye-Ang):
   XX=            -11.2010   YY=             -7.5283   ZZ=             -7.5692
   XY=             -0.0005   XZ=             -0.0001   YZ=              0.0138

  Exact polarizability:      57.116       0.001       2.028       0.002      -0.034       2.128
 Approx polarizability:     145.254      -0.034       1.926      -0.010       0.008       1.901

 ******    2 imaginary frequencies (negative Signs) ******

                      1                      2                      3
                      A                      A                      A
 Frequencies --  -1225.1117              -288.6294               580.1640
 Red. masses --      1.0497                 1.0619                 1.0210
 Frc consts  --      0.9283                 0.0521                 0.2025
 IR Inten    --     31.4987                27.8872                57.1099

                      4
                      A
 Frequencies --    605.9248
 Red. masses --      1.0210
 Frc consts  --      0.2209
 IR Inten    --     51.0528

 - Thermochemistry -
 -------------------
 Temperature   298.150 Kelvin.  Pressure   1.00000 Atm.
 Atom     1 has atomic number  1 and mass   1.00783

 Molecular mass:    21.01405 amu.
 Principal axes and moments of inertia in atomic units:
                           1         2         3
     Eigenvalues --     0.00000  88.97511  88.97511
           X            1.00000  -0.00000   0.00000
           Y            0.00000   1.00000   0.00000
           Z            0.00000   0.00000   1.00000
 This molecule is a prolate symmetric top.
 Rotational symmetry number  1.
 Rotational temperature (Kelvin)      0.97346
 Rotational constant (GHZ):          20.283664
    2 imaginary frequencies ignored.
 Zero-point vibrational energy       7094.4 (Joules/Mol)
                                    1.69560 (Kcal/Mol)
 Warning -- explicit consideration of   2 degrees of freedom as
           vibrations may cause significant error
 Vibrational temperatures:    834.73   871.79
          (Kelvin)

 Zero-point correction=                           0.002702 (Hartree/Particle)
 Thermal correction to Energy=                    0.005391
 Thermal correction to Enthalpy=                  0.006335
 Thermal correction to Gibbs Free Energy=        -0.017770
 Sum of electronic and zero-point Energies=           -100.754687
 Sum of electronic and thermal Energies=              -100.751998
 Sum of electronic and thermal Enthalpies=            -100.751054
 Sum of electronic and thermal Free Energies=         -100.775159

                     E (Thermal)             CV                S
                      KCal/Mol        Cal/Mol-Kelvin    Cal/Mol-Kelvin
 Total                    3.383              7.061             50.733
 Electronic               0.000              0.000              1.377
 Translational            0.889              2.981             35.068
 Rotational               0.592              1.987             13.363
 Vibrational              1.901              2.093              0.925
 Vibration     1          0.937              1.074              0.485
 Vibration     2          0.965              1.019              0.440

 Normal termination of Gaussian 16 at Fri Aug 22 17:04:27 2025.
