 Gaussian 16, Revision C.01,
 Gaussian 16:  ES64L-G16RevC.01  3-Jul-2019

 -----------------------------------------
 # sp b3lyp/6-311g** Force nosymm scf=(qc)
 -----------------------------------------

 -------------------
 Title Card Required
 -------------------
 Symbolic Z-matrix:
 Charge =  0 Multiplicity = 2

                          Input orientation:
 ---------------------------------------------------------------------
 Center     Atomic      Atomic             Coordinates (Angstroms)
 Number     Number       Type             X           Y           Z
 ---------------------------------------------------------------------
      1          1           0        0.000000    0.000000    0.000000
      2          1           0       -3.650000    0.000000    0.000000
      3          9           0        1.700000    0.000000    0.000000
 ---------------------------------------------------------------------

 SCF Done:  E(UB3LYP) =  -100.814491902     a.u. after   10 cycles

 Alpha  occ. eigenvalues --  -24.64240  -1.08856  -0.40965  -0.36005  -0.36005
 Alpha  occ. eigenvalues --   -0.33903
 Alpha virt. eigenvalues --   -0.18793   0.19818   0.27268   0.94861   0.94861
 Alpha virt. eigenvalues --    0.96451   1.07322   1.23599   1.23603   1.23603
 Alpha virt. eigenvalues --    1.27608   1.27608   1.70181   2.12545   2.16637

  Beta  occ. eigenvalues --  -24.64251  -1.08886  -0.40980  -0.36017  -0.36017
  Beta virt. eigenvalues --   -0.18844  -0.06699   0.22597   0.38102   0.94868
  Beta virt. eigenvalues --    0.94868   0.96480   1.07326   1.27699   1.27699
  Beta virt. eigenvalues --    1.45731   1.46161   1.46161   1.70251   2.15581

 Mulliken charges and spin densities:
               1          2
     1  H    0.326363   0.005339
     2  H    0.001750   0.998180
     3  F   -0.328113  -0.003520
 Sum of Mulliken charges =  -0.00000   1.00000

 Dipole moment (field-independent basis, Debye):
    X=             -2.7787    Y=             -0.0000    Z=             -0.0000  Tot=              2.7787
 Quadrupole moment (field-independent basis, Debye-Ang):
   XX=            -10.6522   YY=             -7.4185   ZZ=             -7.4185
   XY=             -0.0000   XZ=             -0.0000   YZ=             -0.0000

  Exact polarizability:      19.967       0.000       2.103      -0.000      -0.000       2.103
 Approx polarizability:      46.709      -0.000       2.015      -0.000       0.000       2.015

 ******    2 imaginary frequencies (negative Signs) ******

                      1                      2                      3
                      A                      A                      A
 Frequencies --  -1183.9679               -78.3949               868.3663
 Red. masses --      1.0576                 1.0539                 1.0292
 Frc consts  --      0.8735                 0.0038                 0.4573
 IR Inten    --     35.1945                 0.2548               102.2821

                      4
                      A
 Frequencies --    868.3663
 Red. masses --      1.0292
 Frc consts  --      0.4573
 IR Inten    --    102.2821

 - Thermochemistry -
 -------------------
 Temperature   298.150 Kelvin.  Pressure   1.00000 Atm.
 Atom     1 has atomic number  1 and mass   1.00783

 Molecular mass:    21.01405 amu.
 Principal axes and moments of inertia in atomic units:
                           1         2         3
     Eigenvalues --     0.00000 104.83476 104.83476
           X            1.00000  -0.00000   0.00000
           Y            0.00000   1.00000   0.00000
           Z            0.00000   0.00000   1.00000
 This molecule is a prolate symmetric top.
 Rotational symmetry number  1.
 Rotational temperature (Kelvin)      0.82619
 Rotational constant (GHZ):          17.215103
    2 imaginary frequencies ignored.
 Zero-point vibrational energy      10388.0 (Joules/Mol)
                                    2.48278 (Kcal/Mol)
 Vibrational temperatures:   1249.39  1249.39
          (Kelvin)

 Zero-point correction=                           0.003957 (Hartree/Particle)
 Thermal correction to Energy=                    0.006439
 Thermal correction to Enthalpy=                  0.007383
 Thermal correction to Gibbs Free Energy=        -0.016588
 Sum of electronic and zero-point Energies=           -100.810535
 Sum of electronic and thermal Energies=              -100.808053
 Sum of electronic and thermal Enthalpies=            -100.807109
 Sum of electronic and thermal Free Energies=         -100.831080

                     E (Thermal)             CV                S
                      KCal/Mol        Cal/Mol-Kelvin    Cal/Mol-Kelvin
 Total                    4.040              6.057             50.451
 Electronic               0.000              0.000              1.377
 Translational            0.889              2.981             35.068
 Rotational               0.592              1.987             13.689
 Vibrational              2.559              1.089              0.317

 Normal termination of Gaussian 16 at Fri Aug 22 16:38:53 2025.
