 Gaussian 16, Revision C.01,
 Gaussian 16:  ES64L-G16RevC.01  3-Jul-2019

 -----------------------------------------
 # sp b3lyp/6-311g** Force nosymm scf=(qc)
 -----------------------------------------

 -------------------
 Title Card Required
 -------------------
 Symbolic Z-matrix:
 Charge =  0 Multiplicity = 2

                          Input orientation:
 ---------------------------------------------------------------------
 Center     Atomic      Atomic             Coordinates (Angstroms)
 Number     Number       Type             X           Y           Z
 ---------------------------------------------------------------------
      1          1           0        0.000000    0.000000    0.000000
      2          1           0       -3.100000    0.000000    0.000000
      3          9           0        3.450000    0.000000    0.000000
 ---------------------------------------------------------------------

 SCF Done:  E(UB3LYP) =  -100.759833403     a.u. after   36 cycles

 Alpha  occ. eigenvalues --  -24.75310  -1.21279  -0.54432  -0.45702  -0.45702
 Alpha  occ. eigenvalues --   -0.32436
 Alpha virt. eigenvalues --   -0.07877   0.24773   0.36119   0.87773   0.91528
 Alpha virt. eigenvalues --    0.91528   1.01950   1.25091   1.25091   1.25643
 Alpha virt. eigenvalues --    1.44037   1.44113   1.44113   2.15574   2.39873

  Beta  occ. eigenvalues --  -24.72201  -1.12348  -0.42587  -0.42587  -0.32924
  Beta virt. eigenvalues --   -0.25447  -0.07274   0.24553   0.37068   0.93015
  Beta virt. eigenvalues --    0.93015   0.96884   1.05949   1.24525   1.24525
  Beta virt. eigenvalues --    1.25041   1.44946   1.45082   1.45082   2.15900

 Mulliken charges and spin densities:
               1          2
     1  H    0.012444  -0.979848
     2  H    0.000566   0.994203
     3  F   -0.013010   0.985644
 Sum of Mulliken charges =  -0.00000   1.00000

 Dipole moment (field-independent basis, Debye):
    X=             -0.2392    Y=             -0.0000    Z=              0.0000  Tot=              0.2392
 Quadrupole moment (field-independent basis, Debye-Ang):
   XX=             -7.4100   YY=             -7.6302   ZZ=             -7.6302
   XY=             -0.0000   XZ=              0.0000   YZ=             -0.0000

  Exact polarizability:      26.809      -0.000       2.030       0.000       0.000       2.030
 Approx polarizability:      21.335      -0.000       1.931       0.000       0.000       1.931

 ******    2 imaginary frequencies (negative Signs) ******

                      1                      2                      3
                      A                      A                      A
 Frequencies --   -331.0638              -131.8597               113.3616
 Red. masses --      1.0138                 1.1014                 1.0167
 Frc consts  --      0.0655                 0.0113                 0.0077
 IR Inten    --      9.7989                 3.9104                 0.1320

                      4
                      A
 Frequencies --    113.3616
 Red. masses --      1.0167
 Frc consts  --      0.0077
 IR Inten    --      0.1320

 - Thermochemistry -
 -------------------
 Temperature   298.150 Kelvin.  Pressure   1.00000 Atm.
 Atom     1 has atomic number  1 and mass   1.00783

 Molecular mass:    21.01405 amu.
 Principal axes and moments of inertia in atomic units:
                           1         2         3
     Eigenvalues --     0.00000 179.98297 179.98297
           X            1.00000  -0.00000   0.00000
           Y            0.00000   1.00000   0.00000
           Z            0.00000   0.00000   1.00000
 This molecule is a prolate symmetric top.
 Rotational symmetry number  1.
 Rotational temperature (Kelvin)      0.48123
 Rotational constant (GHZ):          10.027289
    2 imaginary frequencies ignored.
 Zero-point vibrational energy       1356.1 (Joules/Mol)
                                    0.32412 (Kcal/Mol)
 Warning -- explicit consideration of   2 degrees of freedom as
           vibrations may cause significant error
 Vibrational temperatures:    163.10   163.10
          (Kelvin)

 Zero-point correction=                           0.000517 (Hartree/Particle)
 Thermal correction to Energy=                    0.004296
 Thermal correction to Enthalpy=                  0.005240
 Thermal correction to Gibbs Free Energy=        -0.022142
 Sum of electronic and zero-point Energies=           -100.759317
 Sum of electronic and thermal Energies=              -100.755538
 Sum of electronic and thermal Enthalpies=            -100.754594
 Sum of electronic and thermal Free Energies=         -100.781975

                     E (Thermal)             CV                S
                      KCal/Mol        Cal/Mol-Kelvin    Cal/Mol-Kelvin
 Total                    2.696              8.845             57.629
 Electronic               0.000              0.000              1.377
 Translational            0.889              2.981             35.068
 Rotational               0.592              1.987             14.763
 Vibrational              1.214              3.877              6.421
 Vibration     1          0.607              1.938              3.211
 Vibration     2          0.607              1.938              3.211

 Normal termination of Gaussian 16 at Fri Aug 22 21:42:41 2025.
