 Gaussian 16, Revision C.01,
 Gaussian 16:  ES64L-G16RevC.01  3-Jul-2019

 -----------------------------------------
 # sp b3lyp/6-311g** Force nosymm scf=(qc)
 -----------------------------------------

 -------------------
 Title Card Required
 -------------------
 Symbolic Z-matrix:
 Charge =  0 Multiplicity = 2

                          Input orientation:
 ---------------------------------------------------------------------
 Center     Atomic      Atomic             Coordinates (Angstroms)
 Number     Number       Type             X           Y           Z
 ---------------------------------------------------------------------
      1          1           0        0.000000    0.000000    0.000000
      2          1           0       -1.100000    0.000000    0.000000
      3          9           0        0.550000    0.000000    0.000000
 ---------------------------------------------------------------------

 SCF Done:  E(UB3LYP) =  -100.482814944     a.u. after    7 cycles

 Alpha  occ. eigenvalues --  -24.64358  -1.41253  -0.65532  -0.45297  -0.45297
 Alpha  occ. eigenvalues --   -0.34204
 Alpha virt. eigenvalues --    0.16144   0.20663   0.76745   0.88005   0.88005
 Alpha virt. eigenvalues --    0.88737   1.11747   1.11747   1.50147   1.72134
 Alpha virt. eigenvalues --    1.72134   1.75869   2.11241   2.41120   3.75634

  Beta  occ. eigenvalues --  -24.64092  -1.40350  -0.64279  -0.45100  -0.45100
  Beta virt. eigenvalues --   -0.11571   0.16942   0.28256   0.82335   0.88937
  Beta virt. eigenvalues --    0.88937   0.89500   1.21492   1.21492   1.50761
  Beta virt. eigenvalues --    1.77531   1.77531   1.82105   2.21651   2.58512

 Mulliken charges and spin densities:
               1          2
     1  H    0.216295   0.001329
     2  H   -0.023135   0.979456
     3  F   -0.193160   0.019215
 Sum of Mulliken charges =   0.00000   1.00000

 Dipole moment (field-independent basis, Debye):
    X=             -1.0435    Y=             -0.0000    Z=              0.0000  Tot=              1.0435
 Quadrupole moment (field-independent basis, Debye-Ang):
   XX=             -7.0781   YY=             -6.3803   ZZ=             -6.3803
   XY=             -0.0000   XZ=              0.0000   YZ=             -0.0000

  Exact polarizability:       6.231      -0.000       2.504      -0.000       0.000       2.504
 Approx polarizability:       5.920       0.000       2.555      -0.000       0.000       2.555

 ******    2 imaginary frequencies (negative Signs) ******

                      1                      2                      3
                      A                      A                      A
 Frequencies --  -7278.3910             -7278.3910              1892.8929
 Red. masses --      1.0281                 1.0281                 1.0540
 Frc consts  --     32.0875                32.0875                 2.2251
 IR Inten    --    169.4020               169.4020                66.3733

                      4
                      A
 Frequencies --  15788.5450
 Red. masses --      1.0576
 Frc consts  --    155.3230
 IR Inten    --     50.9456

 - Thermochemistry -
 -------------------
 Temperature   298.150 Kelvin.  Pressure   1.00000 Atm.
 Atom     1 has atomic number  1 and mass   1.00783

 Molecular mass:    21.01405 amu.
 Principal axes and moments of inertia in atomic units:
                           1         2         3
     Eigenvalues --     0.00000  10.05158  10.05158
           X            1.00000  -0.00000   0.00000
           Y            0.00000   1.00000   0.00000
           Z            0.00000   0.00000   1.00000
 This molecule is a prolate symmetric top.
 Rotational symmetry number  1.
 Rotational temperature (Kelvin)      8.61694
 Rotational constant (GHZ):         179.547952
    2 imaginary frequencies ignored.
 Zero-point vibrational energy     105758.5 (Joules/Mol)
                                   25.27688 (Kcal/Mol)
 Vibrational temperatures:   2723.45 22716.19
          (Kelvin)

 Zero-point correction=                           0.040281 (Hartree/Particle)
 Thermal correction to Energy=                    0.042643
 Thermal correction to Enthalpy=                  0.043587
 Thermal correction to Gibbs Free Energy=         0.021979
 Sum of electronic and zero-point Energies=           -100.442534
 Sum of electronic and thermal Energies=              -100.440172
 Sum of electronic and thermal Enthalpies=            -100.439228
 Sum of electronic and thermal Free Energies=         -100.460836

                     E (Thermal)             CV                S
                      KCal/Mol        Cal/Mol-Kelvin    Cal/Mol-Kelvin
 Total                   26.759              4.986             45.477
 Electronic               0.000              0.000              1.377
 Translational            0.889              2.981             35.068
 Rotational               0.592              1.987              9.030
 Vibrational             25.277              0.018              0.002

 Normal termination of Gaussian 16 at Fri Aug 22 15:38:43 2025.
