 Gaussian 16, Revision C.01,
 Gaussian 16:  ES64L-G16RevC.01  3-Jul-2019

 -----------------------------------------
 # sp b3lyp/6-311g** Force nosymm scf=(qc)
 -----------------------------------------

 -------------------
 Title Card Required
 -------------------
 Symbolic Z-matrix:
 Charge =  0 Multiplicity = 2

                          Input orientation:
 ---------------------------------------------------------------------
 Center     Atomic      Atomic             Coordinates (Angstroms)
 Number     Number       Type             X           Y           Z
 ---------------------------------------------------------------------
      1          1           0        0.000000    0.000000    0.000000
      2          1           0       -3.850000    0.000000    0.000000
      3          9           0        3.350000    0.000000    0.000000
 ---------------------------------------------------------------------

 SCF Done:  E(UB3LYP) =  -100.759268749     a.u. after   26 cycles

 Alpha  occ. eigenvalues --  -24.75086  -1.21072  -0.54208  -0.45514  -0.45514
 Alpha  occ. eigenvalues --   -0.32340
 Alpha virt. eigenvalues --   -0.06750   0.24068   0.36914   0.88087   0.91667
 Alpha virt. eigenvalues --    0.91667   1.02265   1.25156   1.25156   1.25194
 Alpha virt. eigenvalues --    1.45697   1.45697   1.46089   2.14583   2.41914

  Beta  occ. eigenvalues --  -24.71992  -1.12185  -0.42413  -0.42413  -0.33020
  Beta virt. eigenvalues --   -0.25325  -0.06000   0.23807   0.38155   0.93150
  Beta virt. eigenvalues --    0.93150   0.97116   1.06205   1.24375   1.24375
  Beta virt. eigenvalues --    1.24412   1.46496   1.46643   1.46643   2.14806

 Mulliken charges and spin densities:
               1          2
     1  H    0.017092  -0.980283
     2  H    0.000097   0.999111
     3  F   -0.017189   0.981172
 Sum of Mulliken charges =  -0.00000   1.00000

 Dipole moment (field-independent basis, Debye):
    X=             -0.2977    Y=             -0.0000    Z=             -0.0000  Tot=              0.2977
 Quadrupole moment (field-independent basis, Debye-Ang):
   XX=             -7.6662   YY=             -7.6158   ZZ=             -7.6158
   XY=             -0.0000   XZ=             -0.0000   YZ=             -0.0000

  Exact polarizability:      26.445      -0.000       2.033      -0.000      -0.000       2.033
 Approx polarizability:      22.542      -0.000       1.932      -0.000       0.000       1.932

 ******    2 imaginary frequencies (negative Signs) ******

                      1                      2                      3
                      A                      A                      A
 Frequencies --   -255.7022               -78.9820                78.0558
 Red. masses --      1.0468                 1.0649                 1.0197
 Frc consts  --      0.0403                 0.0039                 0.0037
 IR Inten    --     18.1345                 0.2513                 0.2716

                      4
                      A
 Frequencies --     78.0558
 Red. masses --      1.0197
 Frc consts  --      0.0037
 IR Inten    --      0.2716

 - Thermochemistry -
 -------------------
 Temperature   298.150 Kelvin.  Pressure   1.00000 Atm.
 Atom     1 has atomic number  1 and mass   1.00783

 Molecular mass:    21.01405 amu.
 Principal axes and moments of inertia in atomic units:
                           1         2         3
     Eigenvalues --     0.00000 207.75089 207.75089
           X            1.00000  -0.00000   0.00000
           Y            0.00000   1.00000   0.00000
           Z            0.00000   0.00000   1.00000
 This molecule is a prolate symmetric top.
 Rotational symmetry number  1.
 Rotational temperature (Kelvin)      0.41691
 Rotational constant (GHZ):           8.687044
    2 imaginary frequencies ignored.
 Zero-point vibrational energy        933.8 (Joules/Mol)
                                    0.22317 (Kcal/Mol)
 Warning -- explicit consideration of   2 degrees of freedom as
           vibrations may cause significant error
 Vibrational temperatures:    112.30   112.30
          (Kelvin)

 Zero-point correction=                           0.000356 (Hartree/Particle)
 Thermal correction to Energy=                    0.004271
 Thermal correction to Enthalpy=                  0.005215
 Thermal correction to Gibbs Free Energy=        -0.022994
 Sum of electronic and zero-point Energies=           -100.758913
 Sum of electronic and thermal Energies=              -100.754998
 Sum of electronic and thermal Enthalpies=            -100.754053
 Sum of electronic and thermal Free Energies=         -100.782263

                     E (Thermal)             CV                S
                      KCal/Mol        Cal/Mol-Kelvin    Cal/Mol-Kelvin
 Total                    2.680              8.896             59.372
 Electronic               0.000              0.000              1.377
 Translational            0.889              2.981             35.068
 Rotational               0.592              1.987             15.048
 Vibrational              1.199              3.928              7.878
 Vibration     1          0.599              1.964              3.939
 Vibration     2          0.599              1.964              3.939

 Normal termination of Gaussian 16 at Fri Aug 22 21:03:38 2025.
