 Gaussian 16, Revision C.01,
 Gaussian 16:  ES64L-G16RevC.01  3-Jul-2019

 -----------------------------------------
 # sp b3lyp/6-311g** Force nosymm scf=(qc)
 -----------------------------------------

 -------------------
 Title Card Required
 -------------------
 Symbolic Z-matrix:
 Charge =  0 Multiplicity = 2

                          Input orientation:
 ---------------------------------------------------------------------
 Center     Atomic      Atomic             Coordinates (Angstroms)
 Number     Number       Type             X           Y           Z
 ---------------------------------------------------------------------
      1          1           0        0.000000    0.000000    0.000000
      2          1           0       -0.600000    0.000000    0.000000
      3          9           0        1.850000    0.000000    0.000000
 ---------------------------------------------------------------------

 SCF Done:  E(UB3LYP) =  -100.914440464     a.u. after    6 cycles

 Alpha  occ. eigenvalues --  -24.74667  -1.20871  -0.55833  -0.47030  -0.45287
 Alpha  occ. eigenvalues --   -0.45287
 Alpha virt. eigenvalues --    0.10502   0.19947   0.48823   0.90022   0.90022
 Alpha virt. eigenvalues --    0.94459   1.09502   1.09502   1.19758   1.67788
 Alpha virt. eigenvalues --    1.81503   1.91883   1.91883   2.45503   3.68607

  Beta  occ. eigenvalues --  -24.71638  -1.12277  -0.48559  -0.42277  -0.42277
  Beta virt. eigenvalues --   -0.25226   0.11148   0.20577   0.49745   0.91352
  Beta virt. eigenvalues --    0.91352   1.01952   1.10285   1.10285   1.23391
  Beta virt. eigenvalues --    1.69196   1.82119   1.92213   1.92213   2.46417

 Mulliken charges and spin densities:
               1          2
     1  H    0.018972  -0.024274
     2  H    0.022213   0.079639
     3  F   -0.041185   0.944635
 Sum of Mulliken charges =   0.00000   1.00000

 Dipole moment (field-independent basis, Debye):
    X=             -0.4152    Y=              0.0000    Z=              0.0000  Tot=              0.4152
 Quadrupole moment (field-independent basis, Debye-Ang):
   XX=             -6.0227   YY=             -6.6907   ZZ=             -6.6907
   XY=              0.0000   XZ=              0.0000   YZ=             -0.0000

  Exact polarizability:      13.686      -0.000       2.071      -0.000      -0.000       2.071
 Approx polarizability:      14.809       0.000       2.140       0.000       0.000       2.140

 ******    2 imaginary frequencies (negative Signs) ******

                      1                      2                      3
                      A                      A                      A
 Frequencies --  -2825.8221             -2825.8221               232.6133
 Red. masses --      1.0098                 1.0098                 1.1085
 Frc consts  --      4.7507                 4.7507                 0.0353
 IR Inten    --      0.3353                 0.3353                26.1805

                      4
                      A
 Frequencies --   6983.9872
 Red. masses --      1.0078
 Frc consts  --     28.9630
 IR Inten    --    225.0796

 - Thermochemistry -
 -------------------
 Temperature   298.150 Kelvin.  Pressure   1.00000 Atm.
 Atom     1 has atomic number  1 and mass   1.00783

 Molecular mass:    21.01405 amu.
 Principal axes and moments of inertia in atomic units:
                           1         2         3
     Eigenvalues --     0.00000  30.72915  30.72915
           X            1.00000  -0.00000   0.00000
           Y            0.00000   1.00000   0.00000
           Z            0.00000   0.00000   1.00000
 This molecule is a prolate symmetric top.
 Rotational symmetry number  1.
 Rotational temperature (Kelvin)      2.81862
 Rotational constant (GHZ):          58.730586
    2 imaginary frequencies ignored.
 Zero-point vibrational energy      43164.9 (Joules/Mol)
                                   10.31665 (Kcal/Mol)
 Warning -- explicit consideration of   1 degrees of freedom as
           vibrations may cause significant error
 Vibrational temperatures:    334.68 10048.40
          (Kelvin)

 Zero-point correction=                           0.016441 (Hartree/Particle)
 Thermal correction to Energy=                    0.019312
 Thermal correction to Enthalpy=                  0.020257
 Thermal correction to Gibbs Free Energy=        -0.003288
 Sum of electronic and zero-point Energies=           -100.898000
 Sum of electronic and thermal Energies=              -100.895128
 Sum of electronic and thermal Enthalpies=            -100.894184
 Sum of electronic and thermal Free Energies=         -100.917729

                     E (Thermal)             CV                S
                      KCal/Mol        Cal/Mol-Kelvin    Cal/Mol-Kelvin
 Total                   12.119              6.759             49.554
 Electronic               0.000              0.000              1.377
 Translational            0.889              2.981             35.068
 Rotational               0.592              1.987             11.250
 Vibrational             10.638              1.791              1.859
 Vibration     1          0.653              1.791              1.859

 Normal termination of Gaussian 16 at Fri Aug 22 16:45:28 2025.
