 Gaussian 16, Revision C.01,
 Gaussian 16:  ES64L-G16RevC.01  3-Jul-2019

 -----------------------------------------
 # sp b3lyp/6-311g** Force nosymm scf=(qc)
 -----------------------------------------

 -------------------
 Title Card Required
 -------------------
 Symbolic Z-matrix:
 Charge =  0 Multiplicity = 2

                          Input orientation:
 ---------------------------------------------------------------------
 Center     Atomic      Atomic             Coordinates (Angstroms)
 Number     Number       Type             X           Y           Z
 ---------------------------------------------------------------------
      1          1           0        0.000000    0.000000    0.000000
      2          1           0       -1.150000    0.000000    0.000000
      3          9           0        2.550000    0.000000    0.000000
 ---------------------------------------------------------------------

 SCF Done:  E(UB3LYP) =  -100.881596518     a.u. after   62 cycles

 Alpha  occ. eigenvalues --  -24.76298  -1.22158  -0.55338  -0.46699  -0.46529
 Alpha  occ. eigenvalues --   -0.37153
 Alpha virt. eigenvalues --   -0.02796   0.22678   0.36179   0.86909   0.90805
 Alpha virt. eigenvalues --    0.92535   1.08379   1.11458   1.11469   1.26681
 Alpha virt. eigenvalues --    1.56764   1.56773   2.12412   2.33191   2.55852

  Beta  occ. eigenvalues --  -24.73176  -1.13196  -0.43621  -0.43401  -0.36995
  Beta virt. eigenvalues --   -0.26305  -0.02549   0.22830   0.36452   0.92282
  Beta virt. eigenvalues --    0.93343   0.96691   1.11597   1.11602   1.12144
  Beta virt. eigenvalues --    1.27077   1.56875   1.56883   2.12588   2.33358

 Mulliken charges and spin densities:
               1          2
     1  H   -0.002472  -0.013064
     2  H    0.003338   0.025103
     3  F   -0.000866   0.987961
 Sum of Mulliken charges =   0.00000   1.00000

 Dipole moment (field-independent basis, Debye):
    X=             -0.0649    Y=              0.0022    Z=              0.0017  Tot=              0.0650
 Quadrupole moment (field-independent basis, Debye-Ang):
   XX=             -6.0832   YY=             -7.1262   ZZ=             -7.2519
   XY=              0.3295   XZ=              0.2549   YZ=              0.2426

  Exact polarizability:      11.570      -0.902       2.249       1.261       0.138       2.177
 Approx polarizability:      31.699       0.070       2.337       0.054       0.161       2.254

 ******    1 imaginary frequencies (negative Signs) ******

                      1                      2                      3
                      A                      A                      A
 Frequencies --    -70.5685               514.8513              1488.7301
 Red. masses --      1.1068                 1.0091                 1.0111
 Frc consts  --      0.0032                 0.1576                 1.3204
 IR Inten    --      0.4078                 1.9717                 0.9671

                      4
                      A
 Frequencies --   1527.8809
 Red. masses --      1.0112
 Frc consts  --      1.3909
 IR Inten    --    313.4916

 - Thermochemistry -
 -------------------
 Temperature   298.150 Kelvin.  Pressure   1.00000 Atm.
 Atom     1 has atomic number  1 and mass   1.00783

 Molecular mass:    21.01405 amu.
 Principal axes and moments of inertia in atomic units:
                           1         2         3
     Eigenvalues --     0.00000  65.93052  65.93052
           X            1.00000  -0.00000   0.00000
           Y            0.00000   1.00000   0.00000
           Z            0.00000   0.00000   1.00000
 This molecule is a prolate symmetric top.
 Rotational symmetry number  1.
 Rotational temperature (Kelvin)      1.31372
 Rotational constant (GHZ):          27.373379
    1 imaginary frequencies ignored.
 Zero-point vibrational energy      21122.8 (Joules/Mol)
                                    5.04848 (Kcal/Mol)
 Warning -- explicit consideration of   1 degrees of freedom as
           vibrations may cause significant error
 Vibrational temperatures:    740.76  2141.95  2198.28
          (Kelvin)

 Zero-point correction=                           0.008045 (Hartree/Particle)
 Thermal correction to Energy=                    0.010629
 Thermal correction to Enthalpy=                  0.011573
 Thermal correction to Gibbs Free Energy=        -0.012116
 Sum of electronic and zero-point Energies=           -100.873551
 Sum of electronic and thermal Energies=              -100.870968
 Sum of electronic and thermal Enthalpies=            -100.870024
 Sum of electronic and thermal Free Energies=         -100.893713

                     E (Thermal)             CV                S
                      KCal/Mol        Cal/Mol-Kelvin    Cal/Mol-Kelvin
 Total                    6.670              6.331             49.858
 Electronic               0.000              0.000              1.377
 Translational            0.889              2.981             35.068
 Rotational               0.592              1.987             12.767
 Vibrational              5.188              1.363              0.645
 Vibration     1          0.870              1.217              0.622

 Normal termination of Gaussian 16 at Fri Aug 22 17:52:33 2025.
