 Gaussian 16, Revision C.01,
 Gaussian 16:  ES64L-G16RevC.01  3-Jul-2019

 -----------------------------------------
 # sp b3lyp/6-311g** Force nosymm scf=(qc)
 -----------------------------------------

 -------------------
 Title Card Required
 -------------------
 Symbolic Z-matrix:
 Charge =  0 Multiplicity = 2

                          Input orientation:
 ---------------------------------------------------------------------
 Center     Atomic      Atomic             Coordinates (Angstroms)
 Number     Number       Type             X           Y           Z
 ---------------------------------------------------------------------
      1          1           0        0.000000    0.000000    0.000000
      2          1           0       -3.000000    0.000000    0.000000
      3          9           0        1.950000    0.000000    0.000000
 ---------------------------------------------------------------------

 SCF Done:  E(UB3LYP) =  -100.791592249     a.u. after   13 cycles

 Alpha  occ. eigenvalues --  -24.67806  -1.14110  -0.46756  -0.39396  -0.39396
 Alpha  occ. eigenvalues --   -0.34030
 Alpha virt. eigenvalues --   -0.14036   0.22820   0.31201   0.89839   0.94904
 Alpha virt. eigenvalues --    0.94904   1.05927   1.23516   1.23516   1.24254
 Alpha virt. eigenvalues --    1.34884   1.34884   1.62902   2.14213   2.28848

  Beta  occ. eigenvalues --  -24.65524  -1.07750  -0.38211  -0.37151  -0.37151
  Beta virt. eigenvalues --   -0.20426  -0.08205   0.23300   0.36743   0.91181
  Beta virt. eigenvalues --    0.95396   0.95396   1.08313   1.22353   1.22353
  Beta virt. eigenvalues --    1.43813   1.44250   1.44250   1.56827   2.12748

 Mulliken charges and spin densities:
               1          2
     1  H    0.201957  -0.709145
     2  H    0.005909   0.991490
     3  F   -0.207866   0.717655
 Sum of Mulliken charges =   0.00000   1.00000

 Dipole moment (field-independent basis, Debye):
    X=             -2.0815    Y=             -0.0000    Z=              0.0000  Tot=              2.0815
 Quadrupole moment (field-independent basis, Debye-Ang):
   XX=             -9.8590   YY=             -7.4885   ZZ=             -7.4885
   XY=             -0.0000   XZ=              0.0000   YZ=             -0.0000

  Exact polarizability:      28.909       0.000       2.068      -0.000      -0.000       2.068
 Approx polarizability:      39.498       0.000       1.956      -0.000       0.000       1.956

 ******    2 imaginary frequencies (negative Signs) ******

                      1                      2                      3
                      A                      A                      A
 Frequencies --  -1228.5264              -217.9085               518.4111
 Red. masses --      1.0547                 1.0569                 1.0239
 Frc consts  --      0.9379                 0.0296                 0.1621
 IR Inten    --    118.0610                 2.3209                36.5992

                      4
                      A
 Frequencies --    518.4111
 Red. masses --      1.0239
 Frc consts  --      0.1621
 IR Inten    --     36.5992

 - Thermochemistry -
 -------------------
 Temperature   298.150 Kelvin.  Pressure   1.00000 Atm.
 Atom     1 has atomic number  1 and mass   1.00783

 Molecular mass:    21.01405 amu.
 Principal axes and moments of inertia in atomic units:
                           1         2         3
     Eigenvalues --     0.00000  93.65212  93.65212
           X            1.00000  -0.00000   0.00000
           Y            0.00000   1.00000   0.00000
           Z            0.00000   0.00000   1.00000
 This molecule is a prolate symmetric top.
 Rotational symmetry number  1.
 Rotational temperature (Kelvin)      0.92485
 Rotational constant (GHZ):          19.270692
    2 imaginary frequencies ignored.
 Zero-point vibrational energy       6201.6 (Joules/Mol)
                                    1.48221 (Kcal/Mol)
 Warning -- explicit consideration of   2 degrees of freedom as
           vibrations may cause significant error
 Vibrational temperatures:    745.88   745.88
          (Kelvin)

 Zero-point correction=                           0.002362 (Hartree/Particle)
 Thermal correction to Energy=                    0.005144
 Thermal correction to Enthalpy=                  0.006088
 Thermal correction to Gibbs Free Energy=        -0.018209
 Sum of electronic and zero-point Energies=           -100.789230
 Sum of electronic and thermal Energies=              -100.786448
 Sum of electronic and thermal Enthalpies=            -100.785504
 Sum of electronic and thermal Free Energies=         -100.809801

                     E (Thermal)             CV                S
                      KCal/Mol        Cal/Mol-Kelvin    Cal/Mol-Kelvin
 Total                    3.228              7.386             51.137
 Electronic               0.000              0.000              1.377
 Translational            0.889              2.981             35.068
 Rotational               0.592              1.987             13.465
 Vibrational              1.747              2.418              1.227
 Vibration     1          0.873              1.209              0.614
 Vibration     2          0.873              1.209              0.614

 Normal termination of Gaussian 16 at Fri Aug 22 16:54:09 2025.
