 Gaussian 16, Revision C.01,
 Gaussian 16:  ES64L-G16RevC.01  3-Jul-2019

 -----------------------------------------
 # sp b3lyp/6-311g** Force nosymm scf=(qc)
 -----------------------------------------

 -------------------
 Title Card Required
 -------------------
 Symbolic Z-matrix:
 Charge =  0 Multiplicity = 2

                          Input orientation:
 ---------------------------------------------------------------------
 Center     Atomic      Atomic             Coordinates (Angstroms)
 Number     Number       Type             X           Y           Z
 ---------------------------------------------------------------------
      1          1           0        0.000000    0.000000    0.000000
      2          1           0       -2.000000    0.000000    0.000000
      3          9           0        3.950000    0.000000    0.000000
 ---------------------------------------------------------------------

 SCF Done:  E(UB3LYP) =  -100.774245322     a.u. after   77 cycles

 Alpha  occ. eigenvalues --  -24.76124  -1.22031  -0.55237  -0.46403  -0.46394
 Alpha  occ. eigenvalues --   -0.32716
 Alpha virt. eigenvalues --   -0.10454   0.26139   0.32891   0.86121   0.90998
 Alpha virt. eigenvalues --    0.91307   1.00922   1.17537   1.25272   1.25272
 Alpha virt. eigenvalues --    1.38493   1.38496   1.51669   2.13546   2.36612

  Beta  occ. eigenvalues --  -24.72970  -1.12960  -0.43244  -0.43231  -0.32692
  Beta virt. eigenvalues --   -0.25890  -0.10511   0.26136   0.32887   0.92500
  Beta virt. eigenvalues --    0.92779   0.95589   1.05065   1.17523   1.25286
  Beta virt. eigenvalues --    1.25288   1.38456   1.38457   1.51661   2.13726

 Mulliken charges and spin densities:
               1          2
     1  H    0.000431  -0.854908
     2  H   -0.001037   0.854939
     3  F    0.000606   0.999969
 Sum of Mulliken charges =   0.00000   1.00000

 Dipole moment (field-independent basis, Debye):
    X=              0.0173    Y=             -0.0000    Z=              0.0000  Tot=              0.0173
 Quadrupole moment (field-independent basis, Debye-Ang):
   XX=             -7.0110   YY=             -7.2980   ZZ=             -7.2985
   XY=             -0.0000   XZ=              0.0000   YZ=             -0.4324

  Exact polarizability:      21.358      -0.000       2.245       0.000      -0.233       2.245
 Approx polarizability:      24.456      -0.000       2.232       0.000      -0.291       2.232

 ******    2 imaginary frequencies (negative Signs) ******

                      1                      2                      3
                      A                      A                      A
 Frequencies --  -1350.2945               -46.7180               556.2029
 Red. masses --      1.0078                 1.1085                 1.0118
 Frc consts  --      1.0827                 0.0014                 0.1844
 IR Inten    --      0.0007                 0.0232                 0.0006

                      4
                      A
 Frequencies --    556.2380
 Red. masses --      1.0118
 Frc consts  --      0.1844
 IR Inten    --      0.0005

 - Thermochemistry -
 -------------------
 Temperature   298.150 Kelvin.  Pressure   1.00000 Atm.
 Atom     1 has atomic number  1 and mass   1.00783

 Molecular mass:    21.01405 amu.
 Principal axes and moments of inertia in atomic units:
                           1         2         3
     Eigenvalues --     0.00000 166.65023 166.65023
           X            1.00000  -0.00000   0.00000
           Y            0.00000   1.00000   0.00000
           Z            0.00000   0.00000   1.00000
 This molecule is a prolate symmetric top.
 Rotational symmetry number  1.
 Rotational temperature (Kelvin)      0.51973
 Rotational constant (GHZ):          10.829515
    2 imaginary frequencies ignored.
 Zero-point vibrational energy       6653.9 (Joules/Mol)
                                    1.59031 (Kcal/Mol)
 Warning -- explicit consideration of   2 degrees of freedom as
           vibrations may cause significant error
 Vibrational temperatures:    800.25   800.30
          (Kelvin)

 Zero-point correction=                           0.002534 (Hartree/Particle)
 Thermal correction to Energy=                    0.005266
 Thermal correction to Enthalpy=                  0.006210
 Thermal correction to Gibbs Free Energy=        -0.018553
 Sum of electronic and zero-point Energies=           -100.771711
 Sum of electronic and thermal Energies=              -100.768979
 Sum of electronic and thermal Enthalpies=            -100.768035
 Sum of electronic and thermal Free Energies=         -100.792798

                     E (Thermal)             CV                S
                      KCal/Mol        Cal/Mol-Kelvin    Cal/Mol-Kelvin
 Total                    3.305              7.220             52.118
 Electronic               0.000              0.000              1.377
 Translational            0.889              2.981             35.068
 Rotational               0.592              1.987             14.610
 Vibrational              1.823              2.252              1.063
 Vibration     1          0.912              1.126              0.531
 Vibration     2          0.912              1.126              0.531

 Normal termination of Gaussian 16 at Sat Aug 23 01:36:52 2025.
