 Gaussian 16, Revision C.01,
 Gaussian 16:  ES64L-G16RevC.01  3-Jul-2019

 -----------------------------------------
 # sp b3lyp/6-311g** Force nosymm scf=(qc)
 -----------------------------------------

 -------------------
 Title Card Required
 -------------------
 Symbolic Z-matrix:
 Charge =  0 Multiplicity = 2

                          Input orientation:
 ---------------------------------------------------------------------
 Center     Atomic      Atomic             Coordinates (Angstroms)
 Number     Number       Type             X           Y           Z
 ---------------------------------------------------------------------
      1          1           0        0.000000    0.000000    0.000000
      2          1           0       -1.400000    0.000000    0.000000
      3          9           0        2.350000    0.000000    0.000000
 ---------------------------------------------------------------------

 SCF Done:  E(UB3LYP) =  -100.840392319     a.u. after   15 cycles

 Alpha  occ. eigenvalues --  -24.73224  -1.19365  -0.52486  -0.43986  -0.43986
 Alpha  occ. eigenvalues --   -0.36752
 Alpha virt. eigenvalues --   -0.09153   0.23139   0.32028   0.88050   0.92551
 Alpha virt. eigenvalues --    0.92551   1.04653   1.15563   1.15563   1.19081
 Alpha virt. eigenvalues --    1.43035   1.43035   1.88010   2.23197   2.49282

  Beta  occ. eigenvalues --  -24.70303  -1.11035  -0.41072  -0.41072  -0.36245
  Beta virt. eigenvalues --   -0.24998  -0.08165   0.24039   0.32337   0.93930
  Beta virt. eigenvalues --    0.93930   0.94679   1.07482   1.16327   1.16327
  Beta virt. eigenvalues --    1.22488   1.43625   1.43625   1.88840   2.24198

 Mulliken charges and spin densities:
               1          2
     1  H    0.021484  -0.192518
     2  H    0.041793   0.270651
     3  F   -0.063277   0.921866
 Sum of Mulliken charges =   0.00000   1.00000

 Dipole moment (field-independent basis, Debye):
    X=             -1.0250    Y=             -0.0000    Z=             -0.0000  Tot=              1.0250
 Quadrupole moment (field-independent basis, Debye-Ang):
   XX=             -6.7975   YY=             -7.5957   ZZ=             -7.5957
   XY=             -0.0000   XZ=             -0.0000   YZ=             -0.0000

  Exact polarizability:      53.091      -0.000       2.087      -0.000      -0.000       2.087
 Approx polarizability:      76.068       0.000       2.071       0.000       0.000       2.071

 ******    2 imaginary frequencies (negative Signs) ******

                      1                      2                      3
                      A                      A                      A
 Frequencies --  -1794.5754              -302.3472              1246.1850
 Red. masses --      1.0096                 1.1064                 1.0129
 Frc consts  --      1.9156                 0.0596                 0.9268
 IR Inten    --    861.1777                19.8943                 0.0028

                      4
                      A
 Frequencies --   1246.1850
 Red. masses --      1.0129
 Frc consts  --      0.9268
 IR Inten    --      0.0028

 - Thermochemistry -
 -------------------
 Temperature   298.150 Kelvin.  Pressure   1.00000 Atm.
 Atom     1 has atomic number  1 and mass   1.00783

 Molecular mass:    21.01405 amu.
 Principal axes and moments of inertia in atomic units:
                           1         2         3
     Eigenvalues --     0.00000  64.06388  64.06388
           X            1.00000  -0.00000   0.00000
           Y            0.00000   1.00000   0.00000
           Z            0.00000   0.00000   1.00000
 This molecule is a prolate symmetric top.
 Rotational symmetry number  1.
 Rotational temperature (Kelvin)      1.35199
 Rotational constant (GHZ):          28.170964
    2 imaginary frequencies ignored.
 Zero-point vibrational energy      14907.7 (Joules/Mol)
                                    3.56302 (Kcal/Mol)
 Vibrational temperatures:   1792.98  1792.98
          (Kelvin)

 Zero-point correction=                           0.005678 (Hartree/Particle)
 Thermal correction to Energy=                    0.008066
 Thermal correction to Enthalpy=                  0.009011
 Thermal correction to Gibbs Free Energy=        -0.014377
 Sum of electronic and zero-point Energies=           -100.834714
 Sum of electronic and thermal Energies=              -100.832326
 Sum of electronic and thermal Enthalpies=            -100.831382
 Sum of electronic and thermal Free Energies=         -100.854770

                     E (Thermal)             CV                S
                      KCal/Mol        Cal/Mol-Kelvin    Cal/Mol-Kelvin
 Total                    5.062              5.321             49.224
 Electronic               0.000              0.000              1.377
 Translational            0.889              2.981             35.068
 Rotational               0.592              1.987             12.710
 Vibrational              3.580              0.353              0.068

 Normal termination of Gaussian 16 at Fri Aug 22 17:25:43 2025.
