 Gaussian 16, Revision C.01,
 Gaussian 16:  ES64L-G16RevC.01  3-Jul-2019

 -----------------------------------------
 # sp b3lyp/6-311g** Force nosymm scf=(qc)
 -----------------------------------------

 -------------------
 Title Card Required
 -------------------
 Symbolic Z-matrix:
 Charge =  0 Multiplicity = 2

                          Input orientation:
 ---------------------------------------------------------------------
 Center     Atomic      Atomic             Coordinates (Angstroms)
 Number     Number       Type             X           Y           Z
 ---------------------------------------------------------------------
      1          1           0        0.000000    0.000000    0.000000
      2          1           0       -3.550000    0.000000    0.000000
      3          9           0        3.650000    0.000000    0.000000
 ---------------------------------------------------------------------

 SCF Done:  E(UB3LYP) =  -100.758862979     a.u. after   35 cycles

 Alpha  occ. eigenvalues --  -24.75600  -1.21547  -0.54723  -0.45946  -0.45946
 Alpha  occ. eigenvalues --   -0.32300
 Alpha virt. eigenvalues --   -0.06763   0.24291   0.37310   0.87179   0.91348
 Alpha virt. eigenvalues --    0.91348   1.01489   1.25203   1.25203   1.25329
 Alpha virt. eigenvalues --    1.45452   1.45596   1.45596   2.14987   2.41363

  Beta  occ. eigenvalues --  -24.72472  -1.12557  -0.42811  -0.42811  -0.32667
  Beta virt. eigenvalues --   -0.25592  -0.06380   0.24073   0.38000   0.92841
  Beta virt. eigenvalues --    0.92841   0.96409   1.05547   1.24789   1.24789
  Beta virt. eigenvalues --    1.24896   1.46000   1.46222   1.46222   2.15098

 Mulliken charges and spin densities:
               1          2
     1  H    0.007419  -0.989809
     2  H    0.000117   0.998120
     3  F   -0.007536   0.991689
 Sum of Mulliken charges =   0.00000   1.00000

 Dipole moment (field-independent basis, Debye):
    X=             -0.1437    Y=              0.0000    Z=              0.0000  Tot=              0.1437
 Quadrupole moment (field-independent basis, Debye-Ang):
   XX=             -7.2025   YY=             -7.6222   ZZ=             -7.6222
   XY=              0.0000   XZ=             -0.0000   YZ=             -0.0000

  Exact polarizability:      19.428      -0.000       1.996       0.000       0.000       1.996
 Approx polarizability:      14.658       0.000       1.935      -0.000       0.000       1.935

 ******    2 imaginary frequencies (negative Signs) ******

                      1                      2                      3
                      A                      A                      A
 Frequencies --   -215.7715               -92.0612                90.2913
 Red. masses --      1.0226                 1.0911                 1.0176
 Frc consts  --      0.0281                 0.0054                 0.0049
 IR Inten    --      5.5595                 0.9997                 0.0860

                      4
                      A
 Frequencies --     90.2920
 Red. masses --      1.0176
 Frc consts  --      0.0049
 IR Inten    --      0.0860

 - Thermochemistry -
 -------------------
 Temperature   298.150 Kelvin.  Pressure   1.00000 Atm.
 Atom     1 has atomic number  1 and mass   1.00783

 Molecular mass:    21.01405 amu.
 Principal axes and moments of inertia in atomic units:
                           1         2         3
     Eigenvalues --     0.00000 214.20068 214.20068
           X            1.00000  -0.00000   0.00000
           Y            0.00000   1.00000   0.00000
           Z            0.00000   0.00000   1.00000
 This molecule is a prolate symmetric top.
 Rotational symmetry number  1.
 Rotational temperature (Kelvin)      0.40436
 Rotational constant (GHZ):           8.425469
    2 imaginary frequencies ignored.
 Zero-point vibrational energy       1080.1 (Joules/Mol)
                                    0.25816 (Kcal/Mol)
 Warning -- explicit consideration of   2 degrees of freedom as
           vibrations may cause significant error
 Vibrational temperatures:    129.91   129.91
          (Kelvin)

 Zero-point correction=                           0.000411 (Hartree/Particle)
 Thermal correction to Energy=                    0.004279
 Thermal correction to Enthalpy=                  0.005223
 Thermal correction to Gibbs Free Energy=        -0.022744
 Sum of electronic and zero-point Energies=           -100.758452
 Sum of electronic and thermal Energies=              -100.754584
 Sum of electronic and thermal Enthalpies=            -100.753640
 Sum of electronic and thermal Free Energies=         -100.781607

                     E (Thermal)             CV                S
                      KCal/Mol        Cal/Mol-Kelvin    Cal/Mol-Kelvin
 Total                    2.685              8.880             58.862
 Electronic               0.000              0.000              1.377
 Translational            0.889              2.981             35.068
 Rotational               0.592              1.987             15.109
 Vibrational              1.204              3.912              7.307
 Vibration     1          0.602              1.956              3.654
 Vibration     2          0.602              1.956              3.654

 Normal termination of Gaussian 16 at Fri Aug 22 23:38:12 2025.
