 Gaussian 16, Revision C.01,
 Gaussian 16:  ES64L-G16RevC.01  3-Jul-2019

 -----------------------------------------
 # sp b3lyp/6-311g** Force nosymm scf=(qc)
 -----------------------------------------

 -------------------
 Title Card Required
 -------------------
 Symbolic Z-matrix:
 Charge =  0 Multiplicity = 2

                          Input orientation:
 ---------------------------------------------------------------------
 Center     Atomic      Atomic             Coordinates (Angstroms)
 Number     Number       Type             X           Y           Z
 ---------------------------------------------------------------------
      1          1           0        0.000000    0.000000    0.000000
      2          1           0       -1.800000    0.000000    0.000000
      3          9           0        2.700000    0.000000    0.000000
 ---------------------------------------------------------------------

 SCF Done:  E(UB3LYP) =  -100.790055242     a.u. after   21 cycles

 Alpha  occ. eigenvalues --  -24.73317  -1.19425  -0.52441  -0.44028  -0.44028
 Alpha  occ. eigenvalues --   -0.34677
 Alpha virt. eigenvalues --   -0.12212   0.24853   0.31076   0.90149   0.92720
 Alpha virt. eigenvalues --    0.92720   1.04623   1.11839   1.22881   1.22881
 Alpha virt. eigenvalues --    1.35707   1.35707   1.59537   2.13176   2.39122

  Beta  occ. eigenvalues --  -24.70356  -1.10960  -0.41069  -0.41069  -0.34573
  Beta virt. eigenvalues --   -0.24523  -0.11628   0.26178   0.30925   0.94151
  Beta virt. eigenvalues --    0.94151   0.97886   1.07198   1.14203   1.23053
  Beta virt. eigenvalues --    1.23053   1.36461   1.36461   1.60183   2.14239

 Mulliken charges and spin densities:
               1          2
     1  H    0.026132  -0.680700
     2  H    0.028279   0.743678
     3  F   -0.054410   0.937021
 Sum of Mulliken charges =   0.00000   1.00000

 Dipole moment (field-independent basis, Debye):
    X=             -0.9938    Y=              0.0000    Z=             -0.0000  Tot=              0.9938
 Quadrupole moment (field-independent basis, Debye-Ang):
   XX=             -7.4319   YY=             -7.7086   ZZ=             -7.7086
   XY=              0.0000   XZ=             -0.0000   YZ=             -0.0000

  Exact polarizability:      63.502       0.000       2.010      -0.000       0.000       2.010
 Approx polarizability:      71.000       0.000       1.951      -0.000      -0.000       1.951

 ******    2 imaginary frequencies (negative Signs) ******

                      1                      2                      3
                      A                      A                      A
 Frequencies --  -1744.4256              -313.0931               756.9422
 Red. masses --      1.0081                 1.1081                 1.0138
 Frc consts  --      1.8075                 0.0640                 0.3422
 IR Inten    --    128.6055                43.1304                 0.1694

                      4
                      A
 Frequencies --    756.9423
 Red. masses --      1.0138
 Frc consts  --      0.3422
 IR Inten    --      0.1694

 - Thermochemistry -
 -------------------
 Temperature   298.150 Kelvin.  Pressure   1.00000 Atm.
 Atom     1 has atomic number  1 and mass   1.00783

 Molecular mass:    21.01405 amu.
 Principal axes and moments of inertia in atomic units:
                           1         2         3
     Eigenvalues --     0.00000  90.16875  90.16875
           X            1.00000  -0.00000   0.00000
           Y            0.00000   1.00000   0.00000
           Z            0.00000   0.00000   1.00000
 This molecule is a prolate symmetric top.
 Rotational symmetry number  1.
 Rotational temperature (Kelvin)      0.96058
 Rotational constant (GHZ):          20.015151
    2 imaginary frequencies ignored.
 Zero-point vibrational energy       9055.0 (Joules/Mol)
                                    2.16421 (Kcal/Mol)
 Vibrational temperatures:   1089.07  1089.07
          (Kelvin)

 Zero-point correction=                           0.003449 (Hartree/Particle)
 Thermal correction to Energy=                    0.005993
 Thermal correction to Enthalpy=                  0.006937
 Thermal correction to Gibbs Free Energy=        -0.016974
 Sum of electronic and zero-point Energies=           -100.786606
 Sum of electronic and thermal Energies=              -100.784062
 Sum of electronic and thermal Enthalpies=            -100.783118
 Sum of electronic and thermal Free Energies=         -100.807029

                     E (Thermal)             CV                S
                      KCal/Mol        Cal/Mol-Kelvin    Cal/Mol-Kelvin
 Total                    3.761              6.417             50.326
 Electronic               0.000              0.000              1.377
 Translational            0.889              2.981             35.068
 Rotational               0.592              1.987             13.389
 Vibrational              2.279              1.449              0.491

 Normal termination of Gaussian 16 at Fri Aug 22 18:25:09 2025.
