 Gaussian 16, Revision C.01,
 Gaussian 16:  ES64L-G16RevC.01  3-Jul-2019

 -----------------------------------------
 # sp b3lyp/6-311g** Force nosymm scf=(qc)
 -----------------------------------------

 -------------------
 Title Card Required
 -------------------
 Symbolic Z-matrix:
 Charge =  0 Multiplicity = 2

                          Input orientation:
 ---------------------------------------------------------------------
 Center     Atomic      Atomic             Coordinates (Angstroms)
 Number     Number       Type             X           Y           Z
 ---------------------------------------------------------------------
      1          1           0        0.000000    0.000000    0.000000
      2          1           0       -2.950000    0.000000    0.000000
      3          9           0        3.350000    0.000000    0.000000
 ---------------------------------------------------------------------

 SCF Done:  E(UB3LYP) =  -100.760495713     a.u. after   27 cycles

 Alpha  occ. eigenvalues --  -24.75118  -1.21100  -0.54239  -0.45541  -0.45541
 Alpha  occ. eigenvalues --   -0.32525
 Alpha virt. eigenvalues --   -0.08403   0.24971   0.35493   0.88129   0.91646
 Alpha virt. eigenvalues --    0.91646   1.02268   1.25017   1.25017   1.25853
 Alpha virt. eigenvalues --    1.43331   1.43331   1.43436   2.15726   2.39292

  Beta  occ. eigenvalues --  -24.72022  -1.12209  -0.42438  -0.42438  -0.33082
  Beta virt. eigenvalues --   -0.25347  -0.07670   0.24769   0.36578   0.93130
  Beta virt. eigenvalues --    0.93130   0.97179   1.06237   1.24365   1.24365
  Beta virt. eigenvalues --    1.25143   1.44505   1.44505   1.44538   2.16188

 Mulliken charges and spin densities:
               1          2
     1  H    0.015683  -0.973023
     2  H    0.001006   0.991454
     3  F   -0.016689   0.981569
 Sum of Mulliken charges =  -0.00000   1.00000

 Dipole moment (field-independent basis, Debye):
    X=             -0.3015    Y=             -0.0000    Z=              0.0000  Tot=              0.3015
 Quadrupole moment (field-independent basis, Debye-Ang):
   XX=             -7.5309   YY=             -7.6344   ZZ=             -7.6344
   XY=             -0.0000   XZ=              0.0000   YZ=             -0.0000

  Exact polarizability:      30.481      -0.000       2.027       0.000       0.000       2.027
 Approx polarizability:      25.003      -0.000       1.929       0.000       0.000       1.929

 ******    2 imaginary frequencies (negative Signs) ******

                      1                      2                      3
                      A                      A                      A
 Frequencies --   -395.1867              -152.6255               139.3261
 Red. masses --      1.0126                 1.1028                 1.0165
 Frc consts  --      0.0932                 0.0151                 0.0116
 IR Inten    --     12.7592                 5.9282                 0.2083

                      4
                      A
 Frequencies --    139.3262
 Red. masses --      1.0165
 Frc consts  --      0.0116
 IR Inten    --      0.2083

 - Thermochemistry -
 -------------------
 Temperature   298.150 Kelvin.  Pressure   1.00000 Atm.
 Atom     1 has atomic number  1 and mass   1.00783

 Molecular mass:    21.01405 amu.
 Principal axes and moments of inertia in atomic units:
                           1         2         3
     Eigenvalues --     0.00000 167.16093 167.16093
           X            1.00000  -0.00000   0.00000
           Y            0.00000   1.00000   0.00000
           Z            0.00000   0.00000   1.00000
 This molecule is a prolate symmetric top.
 Rotational symmetry number  1.
 Rotational temperature (Kelvin)      0.51815
 Rotational constant (GHZ):          10.796429
    2 imaginary frequencies ignored.
 Zero-point vibrational energy       1666.7 (Joules/Mol)
                                    0.39835 (Kcal/Mol)
 Warning -- explicit consideration of   2 degrees of freedom as
           vibrations may cause significant error
 Vibrational temperatures:    200.46   200.46
          (Kelvin)

 Zero-point correction=                           0.000635 (Hartree/Particle)
 Thermal correction to Energy=                    0.004319
 Thermal correction to Enthalpy=                  0.005264
 Thermal correction to Gibbs Free Energy=        -0.021671
 Sum of electronic and zero-point Energies=           -100.759861
 Sum of electronic and thermal Energies=              -100.756176
 Sum of electronic and thermal Enthalpies=            -100.755232
 Sum of electronic and thermal Free Energies=         -100.782166

                     E (Thermal)             CV                S
                      KCal/Mol        Cal/Mol-Kelvin    Cal/Mol-Kelvin
 Total                    2.710              8.796             56.688
 Electronic               0.000              0.000              1.377
 Translational            0.889              2.981             35.068
 Rotational               0.592              1.987             14.616
 Vibrational              1.229              3.828              5.626
 Vibration     1          0.615              1.914              2.813
 Vibration     2          0.615              1.914              2.813

 Normal termination of Gaussian 16 at Fri Aug 22 21:02:30 2025.
