 Gaussian 16, Revision C.01,
 Gaussian 16:  ES64L-G16RevC.01  3-Jul-2019

 -----------------------------------------
 # sp b3lyp/6-311g** Force nosymm scf=(qc)
 -----------------------------------------

 -------------------
 Title Card Required
 -------------------
 Symbolic Z-matrix:
 Charge =  0 Multiplicity = 2

                          Input orientation:
 ---------------------------------------------------------------------
 Center     Atomic      Atomic             Coordinates (Angstroms)
 Number     Number       Type             X           Y           Z
 ---------------------------------------------------------------------
      1          1           0        0.000000    0.000000    0.000000
      2          1           0       -1.900000    0.000000    0.000000
      3          9           0        2.550000    0.000000    0.000000
 ---------------------------------------------------------------------

 SCF Done:  E(UB3LYP) =  -100.785853371     a.u. after   19 cycles

 Alpha  occ. eigenvalues --  -24.72318  -1.18488  -0.51434  -0.43183  -0.43183
 Alpha  occ. eigenvalues --   -0.34905
 Alpha virt. eigenvalues --   -0.12616   0.24776   0.31619   0.89927   0.93308
 Alpha virt. eigenvalues --    0.93308   1.05169   1.17005   1.22959   1.22959
 Alpha virt. eigenvalues --    1.35118   1.35118   1.53685   2.11699   2.36613

  Beta  occ. eigenvalues --  -24.69433  -1.10260  -0.40304  -0.40304  -0.34990
  Beta virt. eigenvalues --   -0.23916  -0.11749   0.26498   0.31393   0.94699
  Beta virt. eigenvalues --    0.94699   0.96983   1.08035   1.19689   1.22994
  Beta virt. eigenvalues --    1.22994   1.36411   1.36411   1.54392   2.12592

 Mulliken charges and spin densities:
               1          2
     1  H    0.044539  -0.730794
     2  H    0.030987   0.818435
     3  F   -0.075526   0.912359
 Sum of Mulliken charges =   0.00000   1.00000

 Dipole moment (field-independent basis, Debye):
    X=             -1.2638    Y=              0.0000    Z=             -0.0000  Tot=              1.2638
 Quadrupole moment (field-independent basis, Debye-Ang):
   XX=             -7.8917   YY=             -7.6787   ZZ=             -7.6787
   XY=              0.0000   XZ=             -0.0000   YZ=              0.0000

  Exact polarizability:      61.795       0.000       2.009      -0.000      -0.000       2.009
 Approx polarizability:      68.074      -0.000       1.938       0.000      -0.000       1.938

 ******    2 imaginary frequencies (negative Signs) ******

                      1                      2                      3
                      A                      A                      A
 Frequencies --  -1568.1641              -370.4406               650.4900
 Red. masses --      1.0086                 1.1076                 1.0148
 Frc consts  --      1.4614                 0.0895                 0.2530
 IR Inten    --    103.8618                49.8447                 0.8430

                      4
                      A
 Frequencies --    650.4900
 Red. masses --      1.0148
 Frc consts  --      0.2530
 IR Inten    --      0.8430

 - Thermochemistry -
 -------------------
 Temperature   298.150 Kelvin.  Pressure   1.00000 Atm.
 Atom     1 has atomic number  1 and mass   1.00783

 Molecular mass:    21.01405 amu.
 Principal axes and moments of inertia in atomic units:
                           1         2         3
     Eigenvalues --     0.00000  86.21418  86.21418
           X            1.00000  -0.00000   0.00000
           Y            0.00000   1.00000   0.00000
           Z            0.00000   0.00000   1.00000
 This molecule is a prolate symmetric top.
 Rotational symmetry number  1.
 Rotational temperature (Kelvin)      1.00464
 Rotational constant (GHZ):          20.933229
    2 imaginary frequencies ignored.
 Zero-point vibrational energy       7781.6 (Joules/Mol)
                                    1.85984 (Kcal/Mol)
 Vibrational temperatures:    935.91   935.91
          (Kelvin)

 Zero-point correction=                           0.002964 (Hartree/Particle)
 Thermal correction to Energy=                    0.005593
 Thermal correction to Enthalpy=                  0.006537
 Thermal correction to Gibbs Free Energy=        -0.017451
 Sum of electronic and zero-point Energies=           -100.782890
 Sum of electronic and thermal Energies=              -100.780261
 Sum of electronic and thermal Enthalpies=            -100.779316
 Sum of electronic and thermal Free Energies=         -100.803304

                     E (Thermal)             CV                S
                      KCal/Mol        Cal/Mol-Kelvin    Cal/Mol-Kelvin
 Total                    3.510              6.822             50.487
 Electronic               0.000              0.000              1.377
 Translational            0.889              2.981             35.068
 Rotational               0.592              1.987             13.300
 Vibrational              2.028              1.854              0.741

 Normal termination of Gaussian 16 at Fri Aug 22 17:53:43 2025.
