 Gaussian 16, Revision C.01,
 Gaussian 16:  ES64L-G16RevC.01  3-Jul-2019

 -----------------------------------------
 # sp b3lyp/6-311g** Force nosymm scf=(qc)
 -----------------------------------------

 -------------------
 Title Card Required
 -------------------
 Symbolic Z-matrix:
 Charge =  0 Multiplicity = 2

                          Input orientation:
 ---------------------------------------------------------------------
 Center     Atomic      Atomic             Coordinates (Angstroms)
 Number     Number       Type             X           Y           Z
 ---------------------------------------------------------------------
      1          1           0        0.000000    0.000000    0.000000
      2          1           0       -2.500000    0.000000    0.000000
      3          9           0        3.600000    0.000000    0.000000
 ---------------------------------------------------------------------

 SCF Done:  E(UB3LYP) =  -100.762810522     a.u. after   27 cycles

 Alpha  occ. eigenvalues --  -24.75595  -1.21542  -0.54718  -0.45943  -0.45943
 Alpha  occ. eigenvalues --   -0.32630
 Alpha virt. eigenvalues --   -0.09428   0.25716   0.34444   0.87305   0.91347
 Alpha virt. eigenvalues --    0.91347   1.01548   1.25022   1.25022   1.26576
 Alpha virt. eigenvalues --    1.41459   1.41459   1.43072   2.15789   2.36802

  Beta  occ. eigenvalues --  -24.72469  -1.12558  -0.42810  -0.42810  -0.32879
  Beta virt. eigenvalues --   -0.25603  -0.09032   0.25521   0.35031   0.92840
  Beta virt. eigenvalues --    0.92840   0.96537   1.05617   1.24729   1.24729
  Beta virt. eigenvalues --    1.26231   1.42064   1.42064   1.43672   2.16181

 Mulliken charges and spin densities:
               1          2
     1  H    0.006045  -0.960911
     2  H    0.001877   0.969830
     3  F   -0.007922   0.991081
 Sum of Mulliken charges =   0.00000   1.00000

 Dipole moment (field-independent basis, Debye):
    X=             -0.1688    Y=              0.0000    Z=             -0.0000  Tot=              0.1688
 Quadrupole moment (field-independent basis, Debye-Ang):
   XX=             -6.9843   YY=             -7.6660   ZZ=             -7.6660
   XY=             -0.0000   XZ=              0.0000   YZ=             -0.0000

  Exact polarizability:      29.971       0.000       1.997      -0.000      -0.000       1.997
 Approx polarizability:      22.285      -0.000       1.929       0.000       0.000       1.929

 ******    2 imaginary frequencies (negative Signs) ******

                      1                      2                      3
                      A                      A                      A
 Frequencies --   -667.1993              -124.3591               248.0281
 Red. masses --      1.0080                 1.1083                 1.0141
 Frc consts  --      0.2644                 0.0101                 0.0368
 IR Inten    --      4.0721                 4.2435                 0.0365

                      4
                      A
 Frequencies --    248.0282
 Red. masses --      1.0141
 Frc consts  --      0.0368
 IR Inten    --      0.0365

 - Thermochemistry -
 -------------------
 Temperature   298.150 Kelvin.  Pressure   1.00000 Atm.
 Atom     1 has atomic number  1 and mass   1.00783

 Molecular mass:    21.01405 amu.
 Principal axes and moments of inertia in atomic units:
                           1         2         3
     Eigenvalues --     0.00000 164.32167 164.32167
           X            1.00000  -0.00000   0.00000
           Y            0.00000   1.00000   0.00000
           Z            0.00000   0.00000   1.00000
 This molecule is a prolate symmetric top.
 Rotational symmetry number  1.
 Rotational temperature (Kelvin)      0.52710
 Rotational constant (GHZ):          10.982977
    2 imaginary frequencies ignored.
 Zero-point vibrational energy       2967.1 (Joules/Mol)
                                    0.70915 (Kcal/Mol)
 Warning -- explicit consideration of   2 degrees of freedom as
           vibrations may cause significant error
 Vibrational temperatures:    356.86   356.86
          (Kelvin)

 Zero-point correction=                           0.001130 (Hartree/Particle)
 Thermal correction to Energy=                    0.004469
 Thermal correction to Enthalpy=                  0.005413
 Thermal correction to Gibbs Free Energy=        -0.020489
 Sum of electronic and zero-point Energies=           -100.761680
 Sum of electronic and thermal Energies=              -100.758341
 Sum of electronic and thermal Enthalpies=            -100.757397
 Sum of electronic and thermal Free Energies=         -100.783300

                     E (Thermal)             CV                S
                      KCal/Mol        Cal/Mol-Kelvin    Cal/Mol-Kelvin
 Total                    2.804              8.500             54.517
 Electronic               0.000              0.000              1.377
 Translational            0.889              2.981             35.068
 Rotational               0.592              1.987             14.582
 Vibrational              1.323              3.532              3.489
 Vibration     1          0.662              1.766              1.745
 Vibration     2          0.662              1.766              1.745

 Normal termination of Gaussian 16 at Fri Aug 22 23:06:22 2025.
