 Gaussian 16, Revision C.01,
 Gaussian 16:  ES64L-G16RevC.01  3-Jul-2019

 -----------------------------------------
 # sp b3lyp/6-311g** Force nosymm scf=(qc)
 -----------------------------------------

 -------------------
 Title Card Required
 -------------------
 Symbolic Z-matrix:
 Charge =  0 Multiplicity = 2

                          Input orientation:
 ---------------------------------------------------------------------
 Center     Atomic      Atomic             Coordinates (Angstroms)
 Number     Number       Type             X           Y           Z
 ---------------------------------------------------------------------
      1          1           0        0.000000    0.000000    0.000000
      2          1           0       -0.550000    0.000000    0.000000
      3          9           0        2.150000    0.000000    0.000000
 ---------------------------------------------------------------------

 SCF Done:  E(UB3LYP) =  -100.893838740     a.u. after   54 cycles

 Alpha  occ. eigenvalues --  -24.75762  -1.21730  -0.55576  -0.48472  -0.46108
 Alpha  occ. eigenvalues --   -0.46108
 Alpha virt. eigenvalues --    0.10605   0.19487   0.52212   0.90722   0.90722
 Alpha virt. eigenvalues --    0.91678   1.10264   1.10264   1.16385   1.62568
 Alpha virt. eigenvalues --    1.81590   1.95380   1.95380   2.41368   3.66401

  Beta  occ. eigenvalues --  -24.72650  -1.12815  -0.48943  -0.42996  -0.42996
  Beta virt. eigenvalues --   -0.25935   0.11121   0.20011   0.52578   0.92163
  Beta virt. eigenvalues --    0.92163   0.99646   1.10540   1.10540   1.20493
  Beta virt. eigenvalues --    1.63117   1.81891   1.95473   1.95473   2.41744

 Mulliken charges and spin densities:
               1          2
     1  H   -0.014729  -0.012308
     2  H    0.023803   0.031903
     3  F   -0.009074   0.980405
 Sum of Mulliken charges =   0.00000   1.00000

 Dipole moment (field-independent basis, Debye):
    X=             -0.1512    Y=             -0.0000    Z=              0.0000  Tot=              0.1512
 Quadrupole moment (field-independent basis, Debye-Ang):
   XX=             -5.6161   YY=             -6.6492   ZZ=             -6.6492
   XY=             -0.0000   XZ=              0.0000   YZ=              0.0000

  Exact polarizability:       9.715      -0.000       1.940       0.000       0.000       1.940
 Approx polarizability:       9.996      -0.000       2.020       0.000      -0.000       2.020

 ******    2 imaginary frequencies (negative Signs) ******

                      1                      2                      3
                      A                      A                      A
 Frequencies --  -3733.1597             -3733.1596               114.8629
 Red. masses --      1.0091                 1.0091                 1.1085
 Frc consts  --      8.2859                 8.2859                 0.0086
 IR Inten    --      0.5286                 0.5287                 5.3895

                      4
                      A
 Frequencies --   8324.3978
 Red. masses --      1.0078
 Frc consts  --     41.1473
 IR Inten    --     48.7429

 - Thermochemistry -
 -------------------
 Temperature   298.150 Kelvin.  Pressure   1.00000 Atm.
 Atom     1 has atomic number  1 and mass   1.00783

 Molecular mass:    21.01405 amu.
 Principal axes and moments of inertia in atomic units:
                           1         2         3
     Eigenvalues --     0.00000  38.81304  38.81304
           X            1.00000  -0.00000   0.00000
           Y            0.00000   1.00000   0.00000
           Z            0.00000   0.00000   1.00000
 This molecule is a prolate symmetric top.
 Rotational symmetry number  1.
 Rotational temperature (Kelvin)      2.23157
 Rotational constant (GHZ):          46.498318
    2 imaginary frequencies ignored.
 Zero-point vibrational energy      50478.0 (Joules/Mol)
                                   12.06453 (Kcal/Mol)
 Warning -- explicit consideration of   1 degrees of freedom as
           vibrations may cause significant error
 Vibrational temperatures:    165.26 11976.95
          (Kelvin)

 Zero-point correction=                           0.019226 (Hartree/Particle)
 Thermal correction to Energy=                    0.022293
 Thermal correction to Enthalpy=                  0.023237
 Thermal correction to Gibbs Free Energy=        -0.001158
 Sum of electronic and zero-point Energies=           -100.874613
 Sum of electronic and thermal Energies=              -100.871546
 Sum of electronic and thermal Enthalpies=            -100.870601
 Sum of electronic and thermal Free Energies=         -100.894997

                     E (Thermal)             CV                S
                      KCal/Mol        Cal/Mol-Kelvin    Cal/Mol-Kelvin
 Total                   13.989              6.905             51.345
 Electronic               0.000              0.000              1.377
 Translational            0.889              2.981             35.068
 Rotational               0.592              1.987             11.714
 Vibrational             12.508              1.937              3.185
 Vibration     1          0.608              1.937              3.185

 Normal termination of Gaussian 16 at Fri Aug 22 17:06:18 2025.
