 Gaussian 16, Revision C.01,
 Gaussian 16:  ES64L-G16RevC.01  3-Jul-2019

 -----------------------------------------
 # sp b3lyp/6-311g** Force nosymm scf=(qc)
 -----------------------------------------

 -------------------
 Title Card Required
 -------------------
 Symbolic Z-matrix:
 Charge =  0 Multiplicity = 2

                          Input orientation:
 ---------------------------------------------------------------------
 Center     Atomic      Atomic             Coordinates (Angstroms)
 Number     Number       Type             X           Y           Z
 ---------------------------------------------------------------------
      1          1           0        0.000000    0.000000    0.000000
      2          1           0       -1.050000    0.000000    0.000000
      3          9           0        3.650000    0.000000    0.000000
 ---------------------------------------------------------------------

 SCF Done:  E(UB3LYP) =  -100.898524563     a.u. after  467 cycles

 Alpha  occ. eigenvalues --  -24.76300  -1.22181  -0.55382  -0.46568  -0.46537
 Alpha  occ. eigenvalues --   -0.38155
 Alpha virt. eigenvalues --   -0.00740   0.21787   0.37392   0.86006   0.90883
 Alpha virt. eigenvalues --    0.91985   1.01245   1.09942   1.09944   1.33669
 Alpha virt. eigenvalues --    1.62849   1.62852   2.19986   2.35258   2.56271

  Beta  occ. eigenvalues --  -24.73144  -1.13105  -0.43405  -0.43372  -0.38153
  Beta virt. eigenvalues --   -0.26026  -0.00735   0.21793   0.37420   0.92383
  Beta virt. eigenvalues --    0.93482   0.95471   1.05365   1.09941   1.09944
  Beta virt. eigenvalues --    1.33673   1.62849   1.62852   2.19992   2.35260

 Mulliken charges and spin densities:
               1          2
     1  H    0.000214  -0.000188
     2  H   -0.002519  -0.000073
     3  F    0.002305   1.000260
 Sum of Mulliken charges =  -0.00000   1.00000

 Dipole moment (field-independent basis, Debye):
    X=              0.0364    Y=             -0.0000    Z=             -0.0000  Tot=              0.0364
 Quadrupole moment (field-independent basis, Debye-Ang):
   XX=             -6.2893   YY=             -7.3324   ZZ=             -6.4680
   XY=              0.0000   XZ=             -0.0000   YZ=              0.0026

  Exact polarizability:      13.002       0.000       2.067      -0.000       0.001       2.532
 Approx polarizability:      17.657      -0.000       2.112      -0.000       0.002       2.694

 ******    1 imaginary frequencies (negative Signs) ******

                      1                      2                      3
                      A                      A                      A
 Frequencies --    -56.4303              1410.4343              1543.5445
 Red. masses --      1.1085                 1.0078                 1.0094
 Frc consts  --      0.0021                 1.1812                 1.4169
 IR Inten    --      0.1016                 0.0931                 0.0005

                      4
                      A
 Frequencies --   1544.2618
 Red. masses --      1.0094
 Frc consts  --      1.4183
 IR Inten    --      0.0005

 - Thermochemistry -
 -------------------
 Temperature   298.150 Kelvin.  Pressure   1.00000 Atm.
 Atom     1 has atomic number  1 and mass   1.00783

 Molecular mass:    21.01405 amu.
 Principal axes and moments of inertia in atomic units:
                           1         2         3
     Eigenvalues --     0.00000 115.41530 115.41530
           X            1.00000  -0.00000   0.00000
           Y            0.00000   1.00000   0.00000
           Z            0.00000   0.00000   1.00000
 This molecule is a prolate symmetric top.
 Rotational symmetry number  1.
 Rotational temperature (Kelvin)      0.75045
 Rotational constant (GHZ):          15.636931
    1 imaginary frequencies ignored.
 Zero-point vibrational energy      26905.5 (Joules/Mol)
                                    6.43056 (Kcal/Mol)
 Vibrational temperatures:   2029.30  2220.82  2221.85
          (Kelvin)

 Zero-point correction=                           0.010248 (Hartree/Particle)
 Thermal correction to Energy=                    0.012624
 Thermal correction to Enthalpy=                  0.013568
 Thermal correction to Gibbs Free Energy=        -0.010361
 Sum of electronic and zero-point Energies=           -100.888277
 Sum of electronic and thermal Energies=              -100.885901
 Sum of electronic and thermal Enthalpies=            -100.884957
 Sum of electronic and thermal Free Energies=         -100.908886

                     E (Thermal)             CV                S
                      KCal/Mol        Cal/Mol-Kelvin    Cal/Mol-Kelvin
 Total                    7.921              5.198             50.362
 Electronic               0.000              0.000              1.377
 Translational            0.889              2.981             35.068
 Rotational               0.592              1.987             13.880
 Vibrational              6.440              0.230              0.037

 Normal termination of Gaussian 16 at Fri Aug 22 23:19:46 2025.
