 Gaussian 16, Revision C.01,
 Gaussian 16:  ES64L-G16RevC.01  3-Jul-2019

 -----------------------------------------
 # sp b3lyp/6-311g** Force nosymm scf=(qc)
 -----------------------------------------

 -------------------
 Title Card Required
 -------------------
 Symbolic Z-matrix:
 Charge =  0 Multiplicity = 2

                          Input orientation:
 ---------------------------------------------------------------------
 Center     Atomic      Atomic             Coordinates (Angstroms)
 Number     Number       Type             X           Y           Z
 ---------------------------------------------------------------------
      1          1           0        0.000000    0.000000    0.000000
      2          1           0       -2.450000    0.000000    0.000000
      3          9           0        2.900000    0.000000    0.000000
 ---------------------------------------------------------------------

 SCF Done:  E(UB3LYP) =  -100.766150393     a.u. after   24 cycles

 Alpha  occ. eigenvalues --  -24.73777  -1.19854  -0.52892  -0.44412  -0.44412
 Alpha  occ. eigenvalues --   -0.33248
 Alpha virt. eigenvalues --   -0.10849   0.25315   0.33361   0.89884   0.92465
 Alpha virt. eigenvalues --    0.92465   1.04579   1.24427   1.24427   1.26388
 Alpha virt. eigenvalues --    1.39285   1.39285   1.41593   2.15053   2.35901

  Beta  occ. eigenvalues --  -24.70773  -1.11253  -0.41407  -0.41407  -0.34042
  Beta virt. eigenvalues --   -0.24617  -0.09509   0.25659   0.34616   0.93918
  Beta virt. eigenvalues --    0.93918   0.98511   1.08445   1.23477   1.23477
  Beta virt. eigenvalues --    1.25407   1.41462   1.41462   1.43544   2.15996

 Mulliken charges and spin densities:
               1          2
     1  H    0.036093  -0.917456
     2  H    0.007335   0.965977
     3  F   -0.043428   0.951479
 Sum of Mulliken charges =   0.00000   1.00000

 Dipole moment (field-independent basis, Debye):
    X=             -0.7316    Y=              0.0000    Z=              0.0000  Tot=              0.7316
 Quadrupole moment (field-independent basis, Debye-Ang):
   XX=             -8.0771   YY=             -7.6511   ZZ=             -7.6511
   XY=              0.0000   XZ=              0.0000   YZ=             -0.0000

  Exact polarizability:      45.977       0.000       2.012       0.000       0.000       2.012
 Approx polarizability:      42.670       0.000       1.921       0.000       0.000       1.921

 ******    2 imaginary frequencies (negative Signs) ******

                      1                      2                      3
                      A                      A                      A
 Frequencies --   -760.6564              -259.4649               287.6565
 Red. masses --      1.0103                 1.1056                 1.0160
 Frc consts  --      0.3444                 0.0439                 0.0495
 IR Inten    --     26.9270                23.2778                 0.9952

                      4
                      A
 Frequencies --    287.6565
 Red. masses --      1.0160
 Frc consts  --      0.0495
 IR Inten    --      0.9952

 - Thermochemistry -
 -------------------
 Temperature   298.150 Kelvin.  Pressure   1.00000 Atm.
 Atom     1 has atomic number  1 and mass   1.00783

 Molecular mass:    21.01405 amu.
 Principal axes and moments of inertia in atomic units:
                           1         2         3
     Eigenvalues --     0.00000 121.53223 121.53223
           X            1.00000  -0.00000   0.00000
           Y            0.00000   1.00000   0.00000
           Z            0.00000   0.00000   1.00000
 This molecule is a prolate symmetric top.
 Rotational symmetry number  1.
 Rotational temperature (Kelvin)      0.71268
 Rotational constant (GHZ):          14.849898
    2 imaginary frequencies ignored.
 Zero-point vibrational energy       3441.1 (Joules/Mol)
                                    0.82245 (Kcal/Mol)
 Warning -- explicit consideration of   2 degrees of freedom as
           vibrations may cause significant error
 Vibrational temperatures:    413.87   413.87
          (Kelvin)

 Zero-point correction=                           0.001311 (Hartree/Particle)
 Thermal correction to Energy=                    0.004543
 Thermal correction to Enthalpy=                  0.005487
 Thermal correction to Gibbs Free Energy=        -0.019887
 Sum of electronic and zero-point Energies=           -100.764840
 Sum of electronic and thermal Energies=              -100.761608
 Sum of electronic and thermal Enthalpies=            -100.760663
 Sum of electronic and thermal Free Energies=         -100.786037

                     E (Thermal)             CV                S
                      KCal/Mol        Cal/Mol-Kelvin    Cal/Mol-Kelvin
 Total                    2.851              8.361             53.403
 Electronic               0.000              0.000              1.377
 Translational            0.889              2.981             35.068
 Rotational               0.592              1.987             13.983
 Vibrational              1.369              3.393              2.975
 Vibration     1          0.685              1.697              1.488
 Vibration     2          0.685              1.697              1.488

 Normal termination of Gaussian 16 at Fri Aug 22 19:03:40 2025.
