 Gaussian 16, Revision C.01,
 Gaussian 16:  ES64L-G16RevC.01  3-Jul-2019

 -----------------------------------------
 # sp b3lyp/6-311g** Force nosymm scf=(qc)
 -----------------------------------------

 -------------------
 Title Card Required
 -------------------
 Symbolic Z-matrix:
 Charge =  0 Multiplicity = 2

                          Input orientation:
 ---------------------------------------------------------------------
 Center     Atomic      Atomic             Coordinates (Angstroms)
 Number     Number       Type             X           Y           Z
 ---------------------------------------------------------------------
      1          1           0        0.000000    0.000000    0.000000
      2          1           0       -3.600000    0.000000    0.000000
      3          9           0        0.550000    0.000000    0.000000
 ---------------------------------------------------------------------

 SCF Done:  E(UB3LYP) =  -100.519218814     a.u. after    6 cycles

 Alpha  occ. eigenvalues --  -24.62695  -1.38436  -0.62259  -0.43637  -0.43637
 Alpha  occ. eigenvalues --   -0.33232
 Alpha virt. eigenvalues --    0.07730   0.24938   0.60254   0.91192   0.91211
 Alpha virt. eigenvalues --    0.91211   1.24088   1.24276   1.24276   1.35313
 Alpha virt. eigenvalues --    1.54131   1.54131   1.96762   2.14724   3.65598

  Beta  occ. eigenvalues --  -24.62694  -1.38435  -0.62259  -0.43636  -0.43636
  Beta virt. eigenvalues --   -0.05286   0.08096   0.39111   0.60261   0.91188
  Beta virt. eigenvalues --    0.91210   0.91210   1.34757   1.49233   1.49811
  Beta virt. eigenvalues --    1.49811   1.54132   1.54132   1.96712   2.45372

 Mulliken charges and spin densities:
               1          2
     1  H    0.200268   0.000426
     2  H    0.000607   0.999299
     3  F   -0.200874   0.000275
 Sum of Mulliken charges =   0.00000   1.00000

 Dipole moment (field-independent basis, Debye):
    X=             -1.3668    Y=             -0.0000    Z=              0.0000  Tot=              1.3668
 Quadrupole moment (field-independent basis, Debye-Ang):
   XX=             -6.8163   YY=             -6.4956   ZZ=             -6.4956
   XY=             -0.0000   XZ=              0.0000   YZ=              0.0000

  Exact polarizability:       3.151      -0.000       2.427       0.000      -0.000       2.427
 Approx polarizability:       3.347       0.000       2.405       0.000      -0.000       2.405

 ******    3 imaginary frequencies (negative Signs) ******

                      1                      2                      3
                      A                      A                      A
 Frequencies --  -7512.6948             -7512.6948               -32.2330
 Red. masses --      1.0452                 1.0452                 1.0532
 Frc consts  --     34.7565                34.7565                 0.0006
 IR Inten    --    259.6015               259.6015                 0.0179

                      4
                      A
 Frequencies --  15777.8504
 Red. masses --      1.0583
 Frc consts  --    155.2241
 IR Inten    --     88.3937

 - Thermochemistry -
 -------------------
 Temperature   298.150 Kelvin.  Pressure   1.00000 Atm.
 Atom     1 has atomic number  1 and mass   1.00783

 Molecular mass:    21.01405 amu.
 Principal axes and moments of inertia in atomic units:
                           1         2         3
     Eigenvalues --     0.00000  59.25974  59.25974
           X            1.00000  -0.00000   0.00000
           Y            0.00000   1.00000   0.00000
           Z            0.00000   0.00000   1.00000
 This molecule is a prolate symmetric top.
 Rotational symmetry number  1.
 Rotational temperature (Kelvin)      1.46160
 Rotational constant (GHZ):          30.454762
    3 imaginary frequencies ignored.
 Zero-point vibrational energy      94372.5 (Joules/Mol)
                                   22.55557 (Kcal/Mol)
 Vibrational temperatures:  22700.81
          (Kelvin)

 Zero-point correction=                           0.035945 (Hartree/Particle)
 Thermal correction to Energy=                    0.038305
 Thermal correction to Enthalpy=                  0.039249
 Thermal correction to Gibbs Free Energy=         0.015967
 Sum of electronic and zero-point Energies=           -100.483274
 Sum of electronic and thermal Energies=              -100.480914
 Sum of electronic and thermal Enthalpies=            -100.479970
 Sum of electronic and thermal Free Energies=         -100.503251

                     E (Thermal)             CV                S
                      KCal/Mol        Cal/Mol-Kelvin    Cal/Mol-Kelvin
 Total                   24.037              4.968             49.001
 Electronic               0.000              0.000              1.377
 Translational            0.889              2.981             35.068
 Rotational               0.592              1.987             12.555
 Vibrational             22.556              0.000              0.000

 Normal termination of Gaussian 16 at Fri Aug 22 15:40:22 2025.
