 Gaussian 16, Revision C.01,
 Gaussian 16:  ES64L-G16RevC.01  3-Jul-2019

 -----------------------------------------
 # sp b3lyp/6-311g** Force nosymm scf=(qc)
 -----------------------------------------

 -------------------
 Title Card Required
 -------------------
 Symbolic Z-matrix:
 Charge =  0 Multiplicity = 2

                          Input orientation:
 ---------------------------------------------------------------------
 Center     Atomic      Atomic             Coordinates (Angstroms)
 Number     Number       Type             X           Y           Z
 ---------------------------------------------------------------------
      1          1           0        0.000000    0.000000    0.000000
      2          1           0       -0.700000    0.000000    0.000000
      3          9           0        2.600000    0.000000    0.000000
 ---------------------------------------------------------------------

 SCF Done:  E(UB3LYP) =  -100.933119211     a.u. after  127 cycles

 Alpha  occ. eigenvalues --  -24.76846  -1.22623  -0.55802  -0.47321  -0.46949
 Alpha  occ. eigenvalues --   -0.43665
 Alpha virt. eigenvalues --    0.07679   0.20115   0.49673   0.85682   0.90547
 Alpha virt. eigenvalues --    0.93565   1.09225   1.09243   1.11213   1.57869
 Alpha virt. eigenvalues --    1.86127   1.86145   1.91222   2.39710   3.57148

  Beta  occ. eigenvalues --  -24.73682  -1.13530  -0.44893  -0.43776  -0.42916
  Beta virt. eigenvalues --   -0.26413   0.07764   0.20172   0.49783   0.92043
  Beta virt. eigenvalues --    0.95124   0.95490   1.09234   1.09243   1.14752
  Beta virt. eigenvalues --    1.57872   1.86126   1.86144   1.91235   2.39720

 Mulliken charges and spin densities:
               1          2
     1  H   -0.008556  -0.001979
     2  H   -0.005960  -0.000183
     3  F    0.014516   1.002162
 Sum of Mulliken charges =   0.00000   1.00000

 Dipole moment (field-independent basis, Debye):
    X=              0.1395    Y=             -0.0000    Z=             -0.0000  Tot=              0.1395
 Quadrupole moment (field-independent basis, Debye-Ang):
   XX=             -6.0157   YY=             -6.0305   ZZ=             -6.8935
   XY=              0.0000   XZ=              0.0000   YZ=              0.0084

  Exact polarizability:       8.215       0.000       2.401       0.000       0.004       1.954
 Approx polarizability:       9.107       0.000       2.601       0.000       0.006       2.035

 ******    2 imaginary frequencies (negative Signs) ******

                      1                      2                      3
                      A                      A                      A
 Frequencies --  -1166.2788             -1157.3268               164.5256
 Red. masses --      1.0092                 1.0092                 1.1085
 Frc consts  --      0.8088                 0.7964                 0.0177
 IR Inten    --      0.0287                 0.0317                 0.4798

                      4
                      A
 Frequencies --   5088.6740
 Red. masses --      1.0078
 Frc consts  --     15.3760
 IR Inten    --      2.1053

 - Thermochemistry -
 -------------------
 Temperature   298.150 Kelvin.  Pressure   1.00000 Atm.
 Atom     1 has atomic number  1 and mass   1.00783

 Molecular mass:    21.01405 amu.
 Principal axes and moments of inertia in atomic units:
                           1         2         3
     Eigenvalues --     0.00000  57.51405  57.51405
           X            1.00000  -0.00000   0.00000
           Y            0.00000   1.00000   0.00000
           Z            0.00000   0.00000   1.00000
 This molecule is a prolate symmetric top.
 Rotational symmetry number  1.
 Rotational temperature (Kelvin)      1.50596
 Rotational constant (GHZ):          31.379134
    2 imaginary frequencies ignored.
 Zero-point vibrational energy      31421.1 (Joules/Mol)
                                    7.50983 (Kcal/Mol)
 Warning -- explicit consideration of   1 degrees of freedom as
           vibrations may cause significant error
 Vibrational temperatures:    236.72  7321.47
          (Kelvin)

 Zero-point correction=                           0.011968 (Hartree/Particle)
 Thermal correction to Energy=                    0.014947
 Thermal correction to Enthalpy=                  0.015891
 Thermal correction to Gibbs Free Energy=        -0.008549
 Sum of electronic and zero-point Energies=           -100.921152
 Sum of electronic and thermal Energies=              -100.918173
 Sum of electronic and thermal Enthalpies=            -100.917228
 Sum of electronic and thermal Free Energies=         -100.941668

                     E (Thermal)             CV                S
                      KCal/Mol        Cal/Mol-Kelvin    Cal/Mol-Kelvin
 Total                    9.379              6.854             51.438
 Electronic               0.000              0.000              1.377
 Translational            0.889              2.981             35.068
 Rotational               0.592              1.987             12.496
 Vibrational              7.898              1.886              2.497
 Vibration     1          0.623              1.886              2.497

 Normal termination of Gaussian 16 at Fri Aug 22 17:59:24 2025.
