 Gaussian 16, Revision C.01,
 Gaussian 16:  ES64L-G16RevC.01  3-Jul-2019

 -----------------------------------------
 # sp b3lyp/6-311g** Force nosymm scf=(qc)
 -----------------------------------------

 -------------------
 Title Card Required
 -------------------
 Symbolic Z-matrix:
 Charge =  0 Multiplicity = 2

                          Input orientation:
 ---------------------------------------------------------------------
 Center     Atomic      Atomic             Coordinates (Angstroms)
 Number     Number       Type             X           Y           Z
 ---------------------------------------------------------------------
      1          1           0        0.000000    0.000000    0.000000
      2          1           0       -1.550000    0.000000    0.000000
      3          9           0        2.050000    0.000000    0.000000
 ---------------------------------------------------------------------

 SCF Done:  E(UB3LYP) =  -100.827758821     a.u. after   11 cycles

 Alpha  occ. eigenvalues --  -24.69914  -1.16250  -0.49292  -0.41209  -0.41209
 Alpha  occ. eigenvalues --   -0.37580
 Alpha virt. eigenvalues --   -0.11097   0.22712   0.31084   0.85156   0.93971
 Alpha virt. eigenvalues --    0.93971   1.02863   1.17515   1.17515   1.27231
 Alpha virt. eigenvalues --    1.37654   1.37654   1.78658   2.18376   2.42765

  Beta  occ. eigenvalues --  -24.67312  -1.08921  -0.38632  -0.38632  -0.37152
  Beta virt. eigenvalues --   -0.23415  -0.09616   0.24846   0.30817   0.89174
  Beta virt. eigenvalues --    0.95017   0.95017   1.06966   1.19370   1.19370
  Beta virt. eigenvalues --    1.31756   1.38429   1.38429   1.80000   2.19285

 Mulliken charges and spin densities:
               1          2
     1  H    0.082331  -0.400589
     2  H    0.060377   0.582761
     3  F   -0.142708   0.817829
 Sum of Mulliken charges =  -0.00000   1.00000

 Dipole moment (field-independent basis, Debye):
    X=             -1.9042    Y=              0.0000    Z=              0.0000  Tot=              1.9042
 Quadrupole moment (field-independent basis, Debye-Ang):
   XX=             -7.7486   YY=             -7.5539   ZZ=             -7.5539
   XY=              0.0000   XZ=             -0.0000   YZ=              0.0000

  Exact polarizability:      53.934       0.000       2.096      -0.000      -0.000       2.096
 Approx polarizability:      79.960      -0.000       2.045      -0.000      -0.000       2.045

 ******    2 imaginary frequencies (negative Signs) ******

                      1                      2                      3
                      A                      A                      A
 Frequencies --  -2133.0061              -485.6168              1029.0209
 Red. masses --      1.0112                 1.1044                 1.0149
 Frc consts  --      2.7107                 0.1535                 0.6332
 IR Inten    --    640.4976                23.8899                 1.9029

                      4
                      A
 Frequencies --   1029.0209
 Red. masses --      1.0149
 Frc consts  --      0.6332
 IR Inten    --      1.9029

 - Thermochemistry -
 -------------------
 Temperature   298.150 Kelvin.  Pressure   1.00000 Atm.
 Atom     1 has atomic number  1 and mass   1.00783

 Molecular mass:    21.01405 amu.
 Principal axes and moments of inertia in atomic units:
                           1         2         3
     Eigenvalues --     0.00000  56.25794  56.25794
           X            1.00000  -0.00000   0.00000
           Y            0.00000   1.00000   0.00000
           Z            0.00000   0.00000   1.00000
 This molecule is a prolate symmetric top.
 Rotational symmetry number  1.
 Rotational temperature (Kelvin)      1.53959
 Rotational constant (GHZ):          32.079760
    2 imaginary frequencies ignored.
 Zero-point vibrational energy      12309.8 (Joules/Mol)
                                    2.94212 (Kcal/Mol)
 Vibrational temperatures:   1480.53  1480.53
          (Kelvin)

 Zero-point correction=                           0.004689 (Hartree/Particle)
 Thermal correction to Energy=                    0.007115
 Thermal correction to Enthalpy=                  0.008059
 Thermal correction to Gibbs Free Energy=        -0.015253
 Sum of electronic and zero-point Energies=           -100.823070
 Sum of electronic and thermal Energies=              -100.820644
 Sum of electronic and thermal Enthalpies=            -100.819700
 Sum of electronic and thermal Free Energies=         -100.843012

                     E (Thermal)             CV                S
                      KCal/Mol        Cal/Mol-Kelvin    Cal/Mol-Kelvin
 Total                    4.465              5.661             49.064
 Electronic               0.000              0.000              1.377
 Translational            0.889              2.981             35.068
 Rotational               0.592              1.987             12.452
 Vibrational              2.983              0.693              0.166

 Normal termination of Gaussian 16 at Fri Aug 22 16:59:43 2025.
