 Gaussian 16, Revision C.01,
 Gaussian 16:  ES64L-G16RevC.01  3-Jul-2019

 -----------------------------------------
 # sp b3lyp/6-311g** Force nosymm scf=(qc)
 -----------------------------------------

 -------------------
 Title Card Required
 -------------------
 Symbolic Z-matrix:
 Charge =  0 Multiplicity = 2

                          Input orientation:
 ---------------------------------------------------------------------
 Center     Atomic      Atomic             Coordinates (Angstroms)
 Number     Number       Type             X           Y           Z
 ---------------------------------------------------------------------
      1          1           0        0.000000    0.000000    0.000000
      2          1           0       -0.650000    0.000000    0.000000
      3          9           0        3.550000    0.000000    0.000000
 ---------------------------------------------------------------------

 SCF Done:  E(UB3LYP) =  -100.926702469     a.u. after  456 cycles

 Alpha  occ. eigenvalues --  -24.76321  -1.22180  -0.55381  -0.46588  -0.46534
 Alpha  occ. eigenvalues --   -0.45328
 Alpha virt. eigenvalues --    0.07619   0.19192   0.49897   0.86026   0.90902
 Alpha virt. eigenvalues --    0.92891   1.02044   1.09512   1.09515   1.59417
 Alpha virt. eigenvalues --    1.84882   1.89312   1.89316   2.37539   3.64845

  Beta  occ. eigenvalues --  -24.73163  -1.13101  -0.45365  -0.43383  -0.43368
  Beta virt. eigenvalues --   -0.26020   0.07638   0.19202   0.49961   0.92401
  Beta virt. eigenvalues --    0.94424   0.95490   1.06066   1.09512   1.09515
  Beta virt. eigenvalues --    1.59424   1.84906   1.89312   1.89316   2.37540

 Mulliken charges and spin densities:
               1          2
     1  H   -0.002181  -0.000514
     2  H   -0.001792   0.000057
     3  F    0.003973   1.000456
 Sum of Mulliken charges =   0.00000   1.00000

 Dipole moment (field-independent basis, Debye):
    X=              0.0456    Y=             -0.0000    Z=              0.0000  Tot=              0.0456
 Quadrupole moment (field-independent basis, Debye-Ang):
   XX=             -6.1680   YY=             -6.8124   ZZ=             -5.9482
   XY=             -0.0000   XZ=              0.0000   YZ=             -0.0047

  Exact polarizability:       7.025       0.000       1.900       0.000      -0.003       2.364
 Approx polarizability:       7.768      -0.000       1.980       0.000      -0.003       2.562

 ******    3 imaginary frequencies (negative Signs) ******

                      1                      2                      3
                      A                      A                      A
 Frequencies --  -1954.2319             -1953.6702               -37.6460
 Red. masses --      1.0085                 1.0085                 1.1085
 Frc consts  --      2.2693                 2.2680                 0.0009
 IR Inten    --      0.0029                 0.0024                 0.1281

                      4
                      A
 Frequencies --   5975.9172
 Red. masses --      1.0078
 Frc consts  --     21.2053
 IR Inten    --      0.0463

 - Thermochemistry -
 -------------------
 Temperature   298.150 Kelvin.  Pressure   1.00000 Atm.
 Atom     1 has atomic number  1 and mass   1.00783

 Molecular mass:    21.01405 amu.
 Principal axes and moments of inertia in atomic units:
                           1         2         3
     Eigenvalues --     0.00000  98.47581  98.47581
           X            1.00000  -0.00000   0.00000
           Y            0.00000   1.00000   0.00000
           Z            0.00000   0.00000   1.00000
 This molecule is a prolate symmetric top.
 Rotational symmetry number  1.
 Rotational temperature (Kelvin)      0.87955
 Rotational constant (GHZ):          18.326746
    3 imaginary frequencies ignored.
 Zero-point vibrational energy      35743.9 (Joules/Mol)
                                    8.54300 (Kcal/Mol)
 Vibrational temperatures:   8598.01
          (Kelvin)

 Zero-point correction=                           0.013614 (Hartree/Particle)
 Thermal correction to Energy=                    0.015975
 Thermal correction to Enthalpy=                  0.016919
 Thermal correction to Gibbs Free Energy=        -0.006843
 Sum of electronic and zero-point Energies=           -100.913088
 Sum of electronic and thermal Energies=              -100.910728
 Sum of electronic and thermal Enthalpies=            -100.909784
 Sum of electronic and thermal Free Energies=         -100.933545

                     E (Thermal)             CV                S
                      KCal/Mol        Cal/Mol-Kelvin    Cal/Mol-Kelvin
 Total                   10.024              4.968             50.010
 Electronic               0.000              0.000              1.377
 Translational            0.889              2.981             35.068
 Rotational               0.592              1.987             13.565
 Vibrational              8.543              0.000              0.000

 Normal termination of Gaussian 16 at Fri Aug 22 22:15:18 2025.
