 Gaussian 16, Revision C.01,
 Gaussian 16:  ES64L-G16RevC.01  3-Jul-2019

 -----------------------------------------
 # sp b3lyp/6-311g** Force nosymm scf=(qc)
 -----------------------------------------

 -------------------
 Title Card Required
 -------------------
 Symbolic Z-matrix:
 Charge =  0 Multiplicity = 2

                          Input orientation:
 ---------------------------------------------------------------------
 Center     Atomic      Atomic             Coordinates (Angstroms)
 Number     Number       Type             X           Y           Z
 ---------------------------------------------------------------------
      1          1           0        0.000000    0.000000    0.000000
      2          1           0       -1.950000    0.000000    0.000000
      3          9           0        0.850000    0.000000    0.000000
 ---------------------------------------------------------------------

 SCF Done:  E(UB3LYP) =  -100.965620365     a.u. after    6 cycles

 Alpha  occ. eigenvalues --  -24.63596  -1.20715  -0.55088  -0.39920  -0.39920
 Alpha  occ. eigenvalues --   -0.35831
 Alpha virt. eigenvalues --    0.08102   0.24016   0.41080   0.94518   0.94518
 Alpha virt. eigenvalues --    0.97460   1.15355   1.21410   1.21410   1.38816
 Alpha virt. eigenvalues --    1.38816   1.52291   1.98404   2.20833   2.44666

  Beta  occ. eigenvalues --  -24.63539  -1.20565  -0.54769  -0.39872  -0.39872
  Beta virt. eigenvalues --   -0.11677   0.09974   0.34301   0.41633   0.94530
  Beta virt. eigenvalues --    0.94530   0.97807   1.24833   1.37268   1.37268
  Beta virt. eigenvalues --    1.42579   1.42579   1.60449   2.04035   2.35961

 Mulliken charges and spin densities:
               1          2
     1  H    0.269976   0.008338
     2  H    0.013713   0.977595
     3  F   -0.283689   0.014067
 Sum of Mulliken charges =   0.00000   1.00000

 Dipole moment (field-independent basis, Debye):
    X=             -1.9495    Y=              0.0000    Z=              0.0000  Tot=              1.9495
 Quadrupole moment (field-independent basis, Debye-Ang):
   XX=             -7.3979   YY=             -6.7774   ZZ=             -6.7774
   XY=              0.0000   XZ=              0.0000   YZ=              0.0000

  Exact polarizability:       8.347      -0.000       2.498      -0.000      -0.000       2.498
 Approx polarizability:       8.599      -0.000       2.489      -0.000      -0.000       2.489

 ******    2 imaginary frequencies (negative Signs) ******

                      1                      2                      3
                      A                      A                      A
 Frequencies --  -1311.1997             -1311.1997               284.8015
 Red. masses --      1.0303                 1.0303                 1.0531
 Frc consts  --      1.0436                 1.0436                 0.0503
 IR Inten    --    152.3840               152.3840                 0.7869

                      4
                      A
 Frequencies --   5289.8174
 Red. masses --      1.0585
 Frc consts  --     17.4506
 IR Inten    --    171.8657

 - Thermochemistry -
 -------------------
 Temperature   298.150 Kelvin.  Pressure   1.00000 Atm.
 Atom     1 has atomic number  1 and mass   1.00783

 Molecular mass:    21.01405 amu.
 Principal axes and moments of inertia in atomic units:
                           1         2         3
     Eigenvalues --     0.00000  28.51696  28.51696
           X            1.00000  -0.00000   0.00000
           Y            0.00000   1.00000   0.00000
           Z            0.00000   0.00000   1.00000
 This molecule is a prolate symmetric top.
 Rotational symmetry number  1.
 Rotational temperature (Kelvin)      3.03728
 Rotational constant (GHZ):          63.286603
    2 imaginary frequencies ignored.
 Zero-point vibrational energy      33343.6 (Joules/Mol)
                                    7.96932 (Kcal/Mol)
 Warning -- explicit consideration of   1 degrees of freedom as
           vibrations may cause significant error
 Vibrational temperatures:    409.77  7610.87
          (Kelvin)

 Zero-point correction=                           0.012700 (Hartree/Particle)
 Thermal correction to Energy=                    0.015500
 Thermal correction to Enthalpy=                  0.016444
 Thermal correction to Gibbs Free Energy=        -0.006862
 Sum of electronic and zero-point Energies=           -100.952920
 Sum of electronic and thermal Energies=              -100.950120
 Sum of electronic and thermal Enthalpies=            -100.949176
 Sum of electronic and thermal Free Energies=         -100.972482

                     E (Thermal)             CV                S
                      KCal/Mol        Cal/Mol-Kelvin    Cal/Mol-Kelvin
 Total                    9.726              6.670             49.052
 Electronic               0.000              0.000              1.377
 Translational            0.889              2.981             35.068
 Rotational               0.592              1.987             11.102
 Vibrational              8.245              1.702              1.505
 Vibration     1          0.683              1.702              1.505

 Normal termination of Gaussian 16 at Fri Aug 22 15:53:25 2025.
