 Gaussian 16, Revision C.01,
 Gaussian 16:  ES64L-G16RevC.01  3-Jul-2019

 -----------------------------------------
 # sp b3lyp/6-311g** Force nosymm scf=(qc)
 -----------------------------------------

 -------------------
 Title Card Required
 -------------------
 Symbolic Z-matrix:
 Charge =  0 Multiplicity = 2

                          Input orientation:
 ---------------------------------------------------------------------
 Center     Atomic      Atomic             Coordinates (Angstroms)
 Number     Number       Type             X           Y           Z
 ---------------------------------------------------------------------
      1          1           0        0.000000    0.000000    0.000000
      2          1           0       -3.250000    0.000000    0.000000
      3          9           0        1.900000    0.000000    0.000000
 ---------------------------------------------------------------------

 SCF Done:  E(UB3LYP) =  -100.795134965     a.u. after   13 cycles

 Alpha  occ. eigenvalues --  -24.67418  -1.13697  -0.46325  -0.39064  -0.39064
 Alpha  occ. eigenvalues --   -0.33808
 Alpha virt. eigenvalues --   -0.14370   0.22225   0.31024   0.90473   0.94881
 Alpha virt. eigenvalues --    0.94881   1.05785   1.23718   1.23718   1.24013
 Alpha virt. eigenvalues --    1.34475   1.34475   1.65289   2.14055   2.27876

  Beta  occ. eigenvalues --  -24.65241  -1.07650  -0.38586  -0.36927  -0.36927
  Beta virt. eigenvalues --   -0.20058  -0.07575   0.22615   0.37441   0.91455
  Beta virt. eigenvalues --    0.95212   0.95212   1.08146   1.22685   1.22685
  Beta virt. eigenvalues --    1.44673   1.45164   1.45164   1.59485   2.12403

 Mulliken charges and spin densities:
               1          2
     1  H    0.220104  -0.680191
     2  H    0.003366   0.995403
     3  F   -0.223471   0.684788
 Sum of Mulliken charges =   0.00000   1.00000

 Dipole moment (field-independent basis, Debye):
    X=             -2.1368    Y=              0.0000    Z=             -0.0000  Tot=              2.1368
 Quadrupole moment (field-independent basis, Debye-Ang):
   XX=            -10.0174   YY=             -7.4700   ZZ=             -7.4700
   XY=             -0.0000   XZ=              0.0000   YZ=             -0.0000

  Exact polarizability:      26.179      -0.000       2.077       0.000      -0.000       2.077
 Approx polarizability:      37.757       0.000       1.964      -0.000       0.000       1.964

 ******    2 imaginary frequencies (negative Signs) ******

                      1                      2                      3
                      A                      A                      A
 Frequencies --  -1311.8597              -160.3015               557.9298
 Red. masses --      1.0566                 1.0550                 1.0256
 Frc consts  --      1.0713                 0.0160                 0.1881
 IR Inten    --    125.5350                 0.8545                44.3617

                      4
                      A
 Frequencies --    557.9298
 Red. masses --      1.0256
 Frc consts  --      0.1881
 IR Inten    --     44.3617

 - Thermochemistry -
 -------------------
 Temperature   298.150 Kelvin.  Pressure   1.00000 Atm.
 Atom     1 has atomic number  1 and mass   1.00783

 Molecular mass:    21.01405 amu.
 Principal axes and moments of inertia in atomic units:
                           1         2         3
     Eigenvalues --     0.00000  99.86813  99.86813
           X            1.00000  -0.00000   0.00000
           Y            0.00000   1.00000   0.00000
           Z            0.00000   0.00000   1.00000
 This molecule is a prolate symmetric top.
 Rotational symmetry number  1.
 Rotational temperature (Kelvin)      0.86728
 Rotational constant (GHZ):          18.071243
    2 imaginary frequencies ignored.
 Zero-point vibrational energy       6674.3 (Joules/Mol)
                                    1.59520 (Kcal/Mol)
 Warning -- explicit consideration of   2 degrees of freedom as
           vibrations may cause significant error
 Vibrational temperatures:    802.74   802.74
          (Kelvin)

 Zero-point correction=                           0.002542 (Hartree/Particle)
 Thermal correction to Energy=                    0.005272
 Thermal correction to Enthalpy=                  0.006216
 Thermal correction to Gibbs Free Energy=        -0.018060
 Sum of electronic and zero-point Energies=           -100.792593
 Sum of electronic and thermal Energies=              -100.789863
 Sum of electronic and thermal Enthalpies=            -100.788919
 Sum of electronic and thermal Free Energies=         -100.813195

                     E (Thermal)             CV                S
                      KCal/Mol        Cal/Mol-Kelvin    Cal/Mol-Kelvin
 Total                    3.308              7.213             51.094
 Electronic               0.000              0.000              1.377
 Translational            0.889              2.981             35.068
 Rotational               0.592              1.987             13.592
 Vibrational              1.827              2.245              1.056
 Vibration     1          0.913              1.122              0.528
 Vibration     2          0.913              1.122              0.528

 Normal termination of Gaussian 16 at Fri Aug 22 16:51:05 2025.
