 Gaussian 16, Revision C.01,
 Gaussian 16:  ES64L-G16RevC.01  3-Jul-2019

 -----------------------------------------
 # sp b3lyp/6-311g** Force nosymm scf=(qc)
 -----------------------------------------

 -------------------
 Title Card Required
 -------------------
 Symbolic Z-matrix:
 Charge =  0 Multiplicity = 2

                          Input orientation:
 ---------------------------------------------------------------------
 Center     Atomic      Atomic             Coordinates (Angstroms)
 Number     Number       Type             X           Y           Z
 ---------------------------------------------------------------------
      1          1           0        0.000000    0.000000    0.000000
      2          1           0       -2.700000    0.000000    0.000000
      3          9           0        1.700000    0.000000    0.000000
 ---------------------------------------------------------------------

 SCF Done:  E(UB3LYP) =  -100.815643101     a.u. after   11 cycles

 Alpha  occ. eigenvalues --  -24.63773  -1.08359  -0.40744  -0.35608  -0.35608
 Alpha  occ. eigenvalues --   -0.35339
 Alpha virt. eigenvalues --   -0.18428   0.21460   0.26678   0.95128   0.95128
 Alpha virt. eigenvalues --    0.97344   1.07947   1.22049   1.22049   1.23527
 Alpha virt. eigenvalues --    1.27513   1.27513   1.70804   2.13053   2.16146

  Beta  occ. eigenvalues --  -24.63886  -1.08664  -0.40746  -0.35717  -0.35717
  Beta virt. eigenvalues --   -0.18869  -0.08585   0.24664   0.35946   0.95196
  Beta virt. eigenvalues --    0.95196   0.97556   1.08040   1.28432   1.28432
  Beta virt. eigenvalues --    1.43000   1.43000   1.43346   1.71503   2.17444

 Mulliken charges and spin densities:
               1          2
     1  H    0.314122   0.054609
     2  H    0.017759   0.981240
     3  F   -0.331881  -0.035849
 Sum of Mulliken charges =  -0.00000   1.00000

 Dipole moment (field-independent basis, Debye):
    X=             -3.0077    Y=             -0.0000    Z=              0.0000  Tot=              3.0077
 Quadrupole moment (field-independent basis, Debye-Ang):
   XX=            -10.1331   YY=             -7.4224   ZZ=             -7.4224
   XY=             -0.0000   XZ=              0.0000   YZ=             -0.0000

  Exact polarizability:      27.849      -0.000       2.108       0.000      -0.000       2.108
 Approx polarizability:      54.833      -0.000       2.023      -0.000      -0.000       2.023

 ******    2 imaginary frequencies (negative Signs) ******

                      1                      2                      3
                      A                      A                      A
 Frequencies --  -1230.9876              -209.3555               852.9815
 Red. masses --      1.0517                 1.0599                 1.0244
 Frc consts  --      0.9390                 0.0274                 0.4391
 IR Inten    --    136.2475                 6.0046                87.1150

                      4
                      A
 Frequencies --    852.9815
 Red. masses --      1.0244
 Frc consts  --      0.4391
 IR Inten    --     87.1150

 - Thermochemistry -
 -------------------
 Temperature   298.150 Kelvin.  Pressure   1.00000 Atm.
 Atom     1 has atomic number  1 and mass   1.00783

 Molecular mass:    21.01405 amu.
 Principal axes and moments of inertia in atomic units:
                           1         2         3
     Eigenvalues --     0.00000  73.65524  73.65524
           X            1.00000  -0.00000   0.00000
           Y            0.00000   1.00000   0.00000
           Z            0.00000   0.00000   1.00000
 This molecule is a prolate symmetric top.
 Rotational symmetry number  1.
 Rotational temperature (Kelvin)      1.17594
 Rotational constant (GHZ):          24.502551
    2 imaginary frequencies ignored.
 Zero-point vibrational energy      10203.9 (Joules/Mol)
                                    2.43880 (Kcal/Mol)
 Vibrational temperatures:   1227.25  1227.25
          (Kelvin)

 Zero-point correction=                           0.003886 (Hartree/Particle)
 Thermal correction to Energy=                    0.006376
 Thermal correction to Enthalpy=                  0.007320
 Thermal correction to Gibbs Free Energy=        -0.016327
 Sum of electronic and zero-point Energies=           -100.811757
 Sum of electronic and thermal Energies=              -100.809267
 Sum of electronic and thermal Enthalpies=            -100.808323
 Sum of electronic and thermal Free Energies=         -100.831970

                     E (Thermal)             CV                S
                      KCal/Mol        Cal/Mol-Kelvin    Cal/Mol-Kelvin
 Total                    4.001              6.103             49.769
 Electronic               0.000              0.000              1.377
 Translational            0.889              2.981             35.068
 Rotational               0.592              1.987             12.987
 Vibrational              2.520              1.135              0.337

 Normal termination of Gaussian 16 at Fri Aug 22 16:38:04 2025.
