 Gaussian 16, Revision C.01,
 Gaussian 16:  ES64L-G16RevC.01  3-Jul-2019

 -----------------------------------------
 # sp b3lyp/6-311g** Force nosymm scf=(qc)
 -----------------------------------------

 -------------------
 Title Card Required
 -------------------
 Symbolic Z-matrix:
 Charge =  0 Multiplicity = 2

                          Input orientation:
 ---------------------------------------------------------------------
 Center     Atomic      Atomic             Coordinates (Angstroms)
 Number     Number       Type             X           Y           Z
 ---------------------------------------------------------------------
      1          1           0        0.000000    0.000000    0.000000
      2          1           0       -1.300000    0.000000    0.000000
      3          9           0        3.600000    0.000000    0.000000
 ---------------------------------------------------------------------

 SCF Done:  E(UB3LYP) =  -100.853844424     a.u. after  506 cycles

 Alpha  occ. eigenvalues --  -24.76337  -1.22219  -0.55419  -0.46608  -0.46574
 Alpha  occ. eigenvalues --   -0.35271
 Alpha virt. eigenvalues --   -0.06151   0.23558   0.32636   0.85971   0.90847
 Alpha virt. eigenvalues --    0.91881   1.01171   1.15383   1.15385   1.15738
 Alpha virt. eigenvalues --    1.49482   1.49484   1.98581   2.28773   2.52805

  Beta  occ. eigenvalues --  -24.73181  -1.13142  -0.43444  -0.43409  -0.35270
  Beta virt. eigenvalues --   -0.26063  -0.06148   0.23564   0.32661   0.92347
  Beta virt. eigenvalues --    0.93378   0.95436   1.05290   1.15383   1.15385
  Beta virt. eigenvalues --    1.15746   1.49481   1.49484   1.98585   2.28775

 Mulliken charges and spin densities:
               1          2
     1  H    0.000536  -0.000067
     2  H   -0.002819  -0.000198
     3  F    0.002283   1.000265
 Sum of Mulliken charges =  -0.00000   1.00000

 Dipole moment (field-independent basis, Debye):
    X=              0.0408    Y=             -0.0000    Z=              0.0000  Tot=              0.0408
 Quadrupole moment (field-independent basis, Debye-Ang):
   XX=             -6.2756   YY=             -6.7291   ZZ=             -7.5935
   XY=              0.0000   XZ=             -0.0000   YZ=             -0.0061

  Exact polarizability:      18.120       0.000       2.537       0.000      -0.003       2.072
 Approx polarizability:      29.466       0.000       2.669      -0.000      -0.004       2.087

 ******    2 imaginary frequencies (negative Signs) ******

                      1                      2                      3
                      A                      A                      A
 Frequencies --   -970.5987               -47.6535              1394.7228
 Red. masses --      1.0078                 1.1085                 1.0101
 Frc consts  --      0.5594                 0.0015                 1.1577
 IR Inten    --      0.1479                 0.1240                 0.0017

                      4
                      A
 Frequencies --   1395.5295
 Red. masses --      1.0101
 Frc consts  --      1.1591
 IR Inten    --      0.0014

 - Thermochemistry -
 -------------------
 Temperature   298.150 Kelvin.  Pressure   1.00000 Atm.
 Atom     1 has atomic number  1 and mass   1.00783

 Molecular mass:    21.01405 amu.
 Principal axes and moments of inertia in atomic units:
                           1         2         3
     Eigenvalues --     0.00000 120.58450 120.58450
           X            1.00000  -0.00000   0.00000
           Y            0.00000   1.00000   0.00000
           Z            0.00000   0.00000   1.00000
 This molecule is a prolate symmetric top.
 Rotational symmetry number  1.
 Rotational temperature (Kelvin)      0.71828
 Rotational constant (GHZ):          14.966611
    2 imaginary frequencies ignored.
 Zero-point vibrational energy      16689.4 (Joules/Mol)
                                    3.98887 (Kcal/Mol)
 Vibrational temperatures:   2006.69  2007.86
          (Kelvin)

 Zero-point correction=                           0.006357 (Hartree/Particle)
 Thermal correction to Energy=                    0.008732
 Thermal correction to Enthalpy=                  0.009676
 Thermal correction to Gibbs Free Energy=        -0.014294
 Sum of electronic and zero-point Energies=           -100.847488
 Sum of electronic and thermal Energies=              -100.845112
 Sum of electronic and thermal Enthalpies=            -100.844168
 Sum of electronic and thermal Free Energies=         -100.868138

                     E (Thermal)             CV                S
                      KCal/Mol        Cal/Mol-Kelvin    Cal/Mol-Kelvin
 Total                    5.480              5.183             50.449
 Electronic               0.000              0.000              1.377
 Translational            0.889              2.981             35.068
 Rotational               0.592              1.987             13.967
 Vibrational              3.998              0.215              0.037

 Normal termination of Gaussian 16 at Fri Aug 22 22:56:29 2025.
