 Gaussian 16, Revision C.01,
 Gaussian 16:  ES64L-G16RevC.01  3-Jul-2019

 -----------------------------------------
 # sp b3lyp/6-311g** Force nosymm scf=(qc)
 -----------------------------------------

 -------------------
 Title Card Required
 -------------------
 Symbolic Z-matrix:
 Charge =  0 Multiplicity = 2

                          Input orientation:
 ---------------------------------------------------------------------
 Center     Atomic      Atomic             Coordinates (Angstroms)
 Number     Number       Type             X           Y           Z
 ---------------------------------------------------------------------
      1          1           0        0.000000    0.000000    0.000000
      2          1           0       -3.550000    0.000000    0.000000
      3          9           0        3.350000    0.000000    0.000000
 ---------------------------------------------------------------------

 SCF Done:  E(UB3LYP) =  -100.759442381     a.u. after   26 cycles

 Alpha  occ. eigenvalues --  -24.75092  -1.21077  -0.54214  -0.45519  -0.45519
 Alpha  occ. eigenvalues --   -0.32379
 Alpha virt. eigenvalues --   -0.07169   0.24192   0.36765   0.88102   0.91663
 Alpha virt. eigenvalues --    0.91663   1.02270   1.25124   1.25124   1.25252
 Alpha virt. eigenvalues --    1.45063   1.45063   1.45215   2.14906   2.41258

  Beta  occ. eigenvalues --  -24.71997  -1.12189  -0.42418  -0.42418  -0.33032
  Beta virt. eigenvalues --   -0.25329  -0.06417   0.23960   0.37967   0.93146
  Beta virt. eigenvalues --    0.93146   0.97132   1.06214   1.24371   1.24371
  Beta virt. eigenvalues --    1.24491   1.45972   1.46205   1.46205   2.15178

 Mulliken charges and spin densities:
               1          2
     1  H    0.016887  -0.979387
     2  H    0.000214   0.998146
     3  F   -0.017101   0.981241
 Sum of Mulliken charges =  -0.00000   1.00000

 Dipole moment (field-independent basis, Debye):
    X=             -0.2981    Y=             -0.0000    Z=              0.0000  Tot=              0.2981
 Quadrupole moment (field-independent basis, Debye-Ang):
   XX=             -7.6420   YY=             -7.6190   ZZ=             -7.6190
   XY=             -0.0000   XZ=              0.0000   YZ=              0.0000

  Exact polarizability:      27.073      -0.000       2.031       0.000       0.000       2.031
 Approx polarizability:      22.944      -0.000       1.932       0.000      -0.000       1.932

 ******    2 imaginary frequencies (negative Signs) ******

                      1                      2                      3
                      A                      A                      A
 Frequencies --   -272.4471              -105.1018                87.0274
 Red. masses --      1.0367                 1.0756                 1.0187
 Frc consts  --      0.0453                 0.0070                 0.0045
 IR Inten    --     17.5053                 0.9328                 0.2596

                      4
                      A
 Frequencies --     87.0274
 Red. masses --      1.0187
 Frc consts  --      0.0045
 IR Inten    --      0.2596

 - Thermochemistry -
 -------------------
 Temperature   298.150 Kelvin.  Pressure   1.00000 Atm.
 Atom     1 has atomic number  1 and mass   1.00783

 Molecular mass:    21.01405 amu.
 Principal axes and moments of inertia in atomic units:
                           1         2         3
     Eigenvalues --     0.00000 193.60416 193.60416
           X            1.00000  -0.00000   0.00000
           Y            0.00000   1.00000   0.00000
           Z            0.00000   0.00000   1.00000
 This molecule is a prolate symmetric top.
 Rotational symmetry number  1.
 Rotational temperature (Kelvin)      0.44738
 Rotational constant (GHZ):           9.321810
    2 imaginary frequencies ignored.
 Zero-point vibrational energy       1041.1 (Joules/Mol)
                                    0.24882 (Kcal/Mol)
 Warning -- explicit consideration of   2 degrees of freedom as
           vibrations may cause significant error
 Vibrational temperatures:    125.21   125.21
          (Kelvin)

 Zero-point correction=                           0.000397 (Hartree/Particle)
 Thermal correction to Energy=                    0.004277
 Thermal correction to Enthalpy=                  0.005221
 Thermal correction to Gibbs Free Energy=        -0.022719
 Sum of electronic and zero-point Energies=           -100.759046
 Sum of electronic and thermal Energies=              -100.755166
 Sum of electronic and thermal Enthalpies=            -100.754222
 Sum of electronic and thermal Free Energies=         -100.782162

                     E (Thermal)             CV                S
                      KCal/Mol        Cal/Mol-Kelvin    Cal/Mol-Kelvin
 Total                    2.684              8.885             58.805
 Electronic               0.000              0.000              1.377
 Translational            0.889              2.981             35.068
 Rotational               0.592              1.987             14.908
 Vibrational              1.202              3.917              7.452
 Vibration     1          0.601              1.958              3.726
 Vibration     2          0.601              1.958              3.726

 Normal termination of Gaussian 16 at Fri Aug 22 21:03:16 2025.
