 Gaussian 16, Revision C.01,
 Gaussian 16:  ES64L-G16RevC.01  3-Jul-2019

 -----------------------------------------
 # sp b3lyp/6-311g** Force nosymm scf=(qc)
 -----------------------------------------

 -------------------
 Title Card Required
 -------------------
 Symbolic Z-matrix:
 Charge =  0 Multiplicity = 2

                          Input orientation:
 ---------------------------------------------------------------------
 Center     Atomic      Atomic             Coordinates (Angstroms)
 Number     Number       Type             X           Y           Z
 ---------------------------------------------------------------------
      1          1           0        0.000000    0.000000    0.000000
      2          1           0       -2.550000    0.000000    0.000000
      3          9           0        0.950000    0.000000    0.000000
 ---------------------------------------------------------------------

 SCF Done:  E(UB3LYP) =  -100.971349732     a.u. after    6 cycles

 Alpha  occ. eigenvalues --  -24.64002  -1.17355  -0.52701  -0.39122  -0.39122
 Alpha  occ. eigenvalues --   -0.34825
 Alpha virt. eigenvalues --    0.03033   0.25210   0.36651   0.94308   0.94308
 Alpha virt. eigenvalues --    0.98089   1.19867   1.22723   1.22723   1.36572
 Alpha virt. eigenvalues --    1.36572   1.37737   1.96654   2.13778   2.35289

  Beta  occ. eigenvalues --  -24.63985  -1.17312  -0.52630  -0.39107  -0.39107
  Beta virt. eigenvalues --   -0.09368   0.04689   0.35947   0.38181   0.94310
  Beta virt. eigenvalues --    0.94310   0.98158   1.29241   1.36546   1.36546
  Beta virt. eigenvalues --    1.44824   1.44824   1.51173   1.96675   2.34682

 Mulliken charges and spin densities:
               1          2
     1  H    0.303563   0.003003
     2  H    0.005915   0.991688
     3  F   -0.309478   0.005309
 Sum of Mulliken charges =   0.00000   1.00000

 Dipole moment (field-independent basis, Debye):
    X=             -2.0333    Y=             -0.0000    Z=             -0.0000  Tot=              2.0333
 Quadrupole moment (field-independent basis, Debye-Ang):
   XX=             -7.8519   YY=             -6.9100   ZZ=             -6.9100
   XY=             -0.0000   XZ=             -0.0000   YZ=             -0.0000

  Exact polarizability:       7.971      -0.000       2.439       0.000      -0.000       2.439
 Approx polarizability:       8.901       0.000       2.418       0.000       0.000       2.418

 ******    1 imaginary frequencies (negative Signs) ******

                      1                      2                      3
                      A                      A                      A
 Frequencies --    -67.4597               660.7972               660.7972
 Red. masses --      1.0531                 1.0328                 1.0328
 Frc consts  --      0.0028                 0.2657                 0.2657
 IR Inten    --      0.7108               161.8309               161.8309

                      4
                      A
 Frequencies --   3671.1233
 Red. masses --      1.0585
 Frc consts  --      8.4051
 IR Inten    --    124.0387

 - Thermochemistry -
 -------------------
 Temperature   298.150 Kelvin.  Pressure   1.00000 Atm.
 Atom     1 has atomic number  1 and mass   1.00783

 Molecular mass:    21.01405 amu.
 Principal axes and moments of inertia in atomic units:
                           1         2         3
     Eigenvalues --     0.00000  43.91791  43.91791
           X            1.00000  -0.00000   0.00000
           Y            0.00000   1.00000   0.00000
           Z            0.00000   0.00000   1.00000
 This molecule is a prolate symmetric top.
 Rotational symmetry number  1.
 Rotational temperature (Kelvin)      1.97218
 Rotational constant (GHZ):          41.093512
    1 imaginary frequencies ignored.
 Zero-point vibrational energy      29863.1 (Joules/Mol)
                                    7.13745 (Kcal/Mol)
 Vibrational temperatures:    950.74   950.74  5281.93
          (Kelvin)

 Zero-point correction=                           0.011374 (Hartree/Particle)
 Thermal correction to Energy=                    0.013994
 Thermal correction to Enthalpy=                  0.014938
 Thermal correction to Gibbs Free Energy=        -0.008400
 Sum of electronic and zero-point Energies=           -100.959975
 Sum of electronic and thermal Energies=              -100.957356
 Sum of electronic and thermal Enthalpies=            -100.956412
 Sum of electronic and thermal Free Energies=         -100.979749

                     E (Thermal)             CV                S
                      KCal/Mol        Cal/Mol-Kelvin    Cal/Mol-Kelvin
 Total                    8.781              6.780             49.118
 Electronic               0.000              0.000              1.377
 Translational            0.889              2.981             35.068
 Rotational               0.592              1.987             11.960
 Vibrational              7.300              1.812              0.712

 Normal termination of Gaussian 16 at Fri Aug 22 15:58:31 2025.
