 Gaussian 16, Revision C.01,
 Gaussian 16:  ES64L-G16RevC.01  3-Jul-2019

 -----------------------------------------
 # sp b3lyp/6-311g** Force nosymm scf=(qc)
 -----------------------------------------

 -------------------
 Title Card Required
 -------------------
 Symbolic Z-matrix:
 Charge =  0 Multiplicity = 2

                          Input orientation:
 ---------------------------------------------------------------------
 Center     Atomic      Atomic             Coordinates (Angstroms)
 Number     Number       Type             X           Y           Z
 ---------------------------------------------------------------------
      1          1           0        0.000000    0.000000    0.000000
      2          1           0       -3.850000    0.000000    0.000000
      3          9           0        2.450000    0.000000    0.000000
 ---------------------------------------------------------------------

 SCF Done:  E(UB3LYP) =  -100.768429304     a.u. after   15 cycles

 Alpha  occ. eigenvalues --  -24.71434  -1.17668  -0.50532  -0.42456  -0.42456
 Alpha  occ. eigenvalues --   -0.32812
 Alpha virt. eigenvalues --   -0.10510   0.23347   0.34939   0.89398   0.93771
 Alpha virt. eigenvalues --    0.93771   1.06218   1.24689   1.24689   1.24717
 Alpha virt. eigenvalues --    1.39997   1.39997   1.45375   2.14091   2.36356

  Beta  occ. eigenvalues --  -24.68620  -1.09671  -0.39654  -0.39654  -0.35567
  Beta virt. eigenvalues --   -0.23135  -0.06229   0.23652   0.38101   0.95108
  Beta virt. eigenvalues --    0.95108   0.95159   1.08416   1.21945   1.21945
  Beta virt. eigenvalues --    1.31265   1.46337   1.46533   1.46533   2.12129

 Mulliken charges and spin densities:
               1          2
     1  H    0.097825  -0.887593
     2  H    0.000388   0.999122
     3  F   -0.098213   0.888470
 Sum of Mulliken charges =   0.00000   1.00000

 Dipole moment (field-independent basis, Debye):
    X=             -1.2283    Y=             -0.0000    Z=              0.0000  Tot=              1.2283
 Quadrupole moment (field-independent basis, Debye-Ang):
   XX=             -9.4393   YY=             -7.5615   ZZ=             -7.5615
   XY=             -0.0000   XZ=              0.0000   YZ=             -0.0000

  Exact polarizability:      29.620      -0.000       2.028       0.000       0.000       2.028
 Approx polarizability:      38.461      -0.000       1.921       0.000      -0.000       1.921

 ******    2 imaginary frequencies (negative Signs) ******

                      1                      2                      3
                      A                      A                      A
 Frequencies --   -645.3397               -80.8716               256.8461
 Red. masses --      1.0566                 1.0549                 1.0242
 Frc consts  --      0.2593                 0.0041                 0.0398
 IR Inten    --     85.1137                 0.0582                 9.3163

                      4
                      A
 Frequencies --    256.8461
 Red. masses --      1.0242
 Frc consts  --      0.0398
 IR Inten    --      9.3163

 - Thermochemistry -
 -------------------
 Temperature   298.150 Kelvin.  Pressure   1.00000 Atm.
 Atom     1 has atomic number  1 and mass   1.00783

 Molecular mass:    21.01405 amu.
 Principal axes and moments of inertia in atomic units:
                           1         2         3
     Eigenvalues --     0.00000 151.23248 151.23248
           X            1.00000  -0.00000   0.00000
           Y            0.00000   1.00000   0.00000
           Z            0.00000   0.00000   1.00000
 This molecule is a prolate symmetric top.
 Rotational symmetry number  1.
 Rotational temperature (Kelvin)      0.57272
 Rotational constant (GHZ):          11.933556
    2 imaginary frequencies ignored.
 Zero-point vibrational energy       3072.6 (Joules/Mol)
                                    0.73436 (Kcal/Mol)
 Warning -- explicit consideration of   2 degrees of freedom as
           vibrations may cause significant error
 Vibrational temperatures:    369.54   369.54
          (Kelvin)

 Zero-point correction=                           0.001170 (Hartree/Particle)
 Thermal correction to Energy=                    0.004485
 Thermal correction to Enthalpy=                  0.005429
 Thermal correction to Gibbs Free Energy=        -0.020337
 Sum of electronic and zero-point Energies=           -100.767259
 Sum of electronic and thermal Energies=              -100.763945
 Sum of electronic and thermal Enthalpies=            -100.763001
 Sum of electronic and thermal Free Energies=         -100.788766

                     E (Thermal)             CV                S
                      KCal/Mol        Cal/Mol-Kelvin    Cal/Mol-Kelvin
 Total                    2.814              8.470             54.229
 Electronic               0.000              0.000              1.377
 Translational            0.889              2.981             35.068
 Rotational               0.592              1.987             14.417
 Vibrational              1.333              3.502              3.366
 Vibration     1          0.666              1.751              1.683
 Vibration     2          0.666              1.751              1.683

 Normal termination of Gaussian 16 at Fri Aug 22 17:40:03 2025.
