 Gaussian 16, Revision C.01,
 Gaussian 16:  ES64L-G16RevC.01  3-Jul-2019

 -----------------------------------------
 # sp b3lyp/6-311g** Force nosymm scf=(qc)
 -----------------------------------------

 -------------------
 Title Card Required
 -------------------
 Symbolic Z-matrix:
 Charge =  0 Multiplicity = 2

                          Input orientation:
 ---------------------------------------------------------------------
 Center     Atomic      Atomic             Coordinates (Angstroms)
 Number     Number       Type             X           Y           Z
 ---------------------------------------------------------------------
      1          1           0        0.000000    0.000000    0.000000
      2          1           0       -2.100000    0.000000    0.000000
      3          9           0        2.350000    0.000000    0.000000
 ---------------------------------------------------------------------

 SCF Done:  E(UB3LYP) =  -100.782125243     a.u. after   17 cycles

 Alpha  occ. eigenvalues --  -24.70826  -1.17078  -0.49918  -0.41926  -0.41926
 Alpha  occ. eigenvalues --   -0.35007
 Alpha virt. eigenvalues --   -0.13037   0.24671   0.32131   0.89363   0.94104
 Alpha virt. eigenvalues --    0.94104   1.06036   1.22888   1.22888   1.25395
 Alpha virt. eigenvalues --    1.35086   1.35086   1.47672   2.11398   2.32720

  Beta  occ. eigenvalues --  -24.68072  -1.09265  -0.39186  -0.39186  -0.35759
  Beta virt. eigenvalues --   -0.22913  -0.11393   0.26509   0.32537   0.95031
  Beta virt. eigenvalues --    0.95385   0.95385   1.08879   1.22484   1.22484
  Beta virt. eigenvalues --    1.31188   1.37713   1.37713   1.46777   2.11782

 Mulliken charges and spin densities:
               1          2
     1  H    0.081614  -0.774604
     2  H    0.029059   0.905586
     3  F   -0.110672   0.869018
 Sum of Mulliken charges =   0.00000   1.00000

 Dipole moment (field-independent basis, Debye):
    X=             -1.6089    Y=             -0.0000    Z=              0.0000  Tot=              1.6089
 Quadrupole moment (field-independent basis, Debye-Ang):
   XX=             -8.5316   YY=             -7.6255   ZZ=             -7.6255
   XY=              0.0000   XZ=             -0.0000   YZ=             -0.0000

  Exact polarizability:      54.281       0.000       2.017      -0.000      -0.000       2.017
 Approx polarizability:      59.009       0.000       1.928      -0.000       0.000       1.928

 ******    2 imaginary frequencies (negative Signs) ******

                      1                      2                      3
                      A                      A                      A
 Frequencies --  -1266.6767              -441.8269               511.3149
 Red. masses --      1.0120                 1.1036                 1.0166
 Frc consts  --      0.9566                 0.1269                 0.1566
 IR Inten    --     66.9534                48.7462                 4.2482

                      4
                      A
 Frequencies --    511.3149
 Red. masses --      1.0166
 Frc consts  --      0.1566
 IR Inten    --      4.2482

 - Thermochemistry -
 -------------------
 Temperature   298.150 Kelvin.  Pressure   1.00000 Atm.
 Atom     1 has atomic number  1 and mass   1.00783

 Molecular mass:    21.01405 amu.
 Principal axes and moments of inertia in atomic units:
                           1         2         3
     Eigenvalues --     0.00000  83.16355  83.16355
           X            1.00000  -0.00000   0.00000
           Y            0.00000   1.00000   0.00000
           Z            0.00000   0.00000   1.00000
 This molecule is a prolate symmetric top.
 Rotational symmetry number  1.
 Rotational temperature (Kelvin)      1.04149
 Rotational constant (GHZ):          21.701109
    2 imaginary frequencies ignored.
 Zero-point vibrational energy       6116.7 (Joules/Mol)
                                    1.46192 (Kcal/Mol)
 Warning -- explicit consideration of   2 degrees of freedom as
           vibrations may cause significant error
 Vibrational temperatures:    735.67   735.67
          (Kelvin)

 Zero-point correction=                           0.002330 (Hartree/Particle)
 Thermal correction to Energy=                    0.005122
 Thermal correction to Enthalpy=                  0.006066
 Thermal correction to Gibbs Free Energy=        -0.018135
 Sum of electronic and zero-point Energies=           -100.779796
 Sum of electronic and thermal Energies=              -100.777003
 Sum of electronic and thermal Enthalpies=            -100.776059
 Sum of electronic and thermal Free Energies=         -100.800260

                     E (Thermal)             CV                S
                      KCal/Mol        Cal/Mol-Kelvin    Cal/Mol-Kelvin
 Total                    3.214              7.418             50.935
 Electronic               0.000              0.000              1.377
 Translational            0.889              2.981             35.068
 Rotational               0.592              1.987             13.229
 Vibrational              1.733              2.450              1.261
 Vibration     1          0.866              1.225              0.630
 Vibration     2          0.866              1.225              0.630

 Normal termination of Gaussian 16 at Fri Aug 22 17:26:25 2025.
