 Gaussian 16, Revision C.01,
 Gaussian 16:  ES64L-G16RevC.01  3-Jul-2019

 -----------------------------------------
 # sp b3lyp/6-311g** Force nosymm scf=(qc)
 -----------------------------------------

 -------------------
 Title Card Required
 -------------------
 Symbolic Z-matrix:
 Charge =  0 Multiplicity = 2

                          Input orientation:
 ---------------------------------------------------------------------
 Center     Atomic      Atomic             Coordinates (Angstroms)
 Number     Number       Type             X           Y           Z
 ---------------------------------------------------------------------
      1          1           0        0.000000    0.000000    0.000000
      2          1           0       -2.550000    0.000000    0.000000
      3          9           0        1.950000    0.000000    0.000000
 ---------------------------------------------------------------------

 SCF Done:  E(UB3LYP) =  -100.793752536     a.u. after   14 cycles

 Alpha  occ. eigenvalues --  -24.67713  -1.14019  -0.46677  -0.39306  -0.39306
 Alpha  occ. eigenvalues --   -0.34870
 Alpha virt. eigenvalues --   -0.14050   0.23763   0.30540   0.90253   0.94984
 Alpha virt. eigenvalues --    0.94984   1.06194   1.22758   1.22758   1.25379
 Alpha virt. eigenvalues --    1.34659   1.34659   1.62838   2.13757   2.28369

  Beta  occ. eigenvalues --  -24.65432  -1.07662  -0.38059  -0.37063  -0.37063
  Beta virt. eigenvalues --   -0.20488  -0.09711   0.24538   0.34884   0.92027
  Beta virt. eigenvalues --    0.95494   0.95494   1.08642   1.22620   1.22620
  Beta virt. eigenvalues --    1.41553   1.41553   1.42610   1.57095   2.13245

 Mulliken charges and spin densities:
               1          2
     1  H    0.190620  -0.690649
     2  H    0.016716   0.973453
     3  F   -0.207335   0.717197
 Sum of Mulliken charges =  -0.00000   1.00000

 Dipole moment (field-independent basis, Debye):
    X=             -2.1967    Y=             -0.0000    Z=              0.0000  Tot=              2.1967
 Quadrupole moment (field-independent basis, Debye-Ang):
   XX=             -9.4961   YY=             -7.5068   ZZ=             -7.5068
   XY=             -0.0000   XZ=             -0.0000   YZ=             -0.0000

  Exact polarizability:      35.704       0.000       2.067      -0.000       0.000       2.067
 Approx polarizability:      44.441      -0.000       1.959      -0.000       0.000       1.959

 ******    2 imaginary frequencies (negative Signs) ******

                      1                      2                      3
                      A                      A                      A
 Frequencies --  -1278.6068              -371.8939               537.4661
 Red. masses --      1.0466                 1.0651                 1.0215
 Frc consts  --      1.0081                 0.0868                 0.1739
 IR Inten    --     99.9540                12.3120                30.2670

                      4
                      A
 Frequencies --    537.4661
 Red. masses --      1.0215
 Frc consts  --      0.1739
 IR Inten    --     30.2670

 - Thermochemistry -
 -------------------
 Temperature   298.150 Kelvin.  Pressure   1.00000 Atm.
 Atom     1 has atomic number  1 and mass   1.00783

 Molecular mass:    21.01405 amu.
 Principal axes and moments of inertia in atomic units:
                           1         2         3
     Eigenvalues --     0.00000  79.38427  79.38427
           X            1.00000  -0.00000   0.00000
           Y            0.00000   1.00000   0.00000
           Z            0.00000   0.00000   1.00000
 This molecule is a prolate symmetric top.
 Rotational symmetry number  1.
 Rotational temperature (Kelvin)      1.09107
 Rotational constant (GHZ):          22.734241
    2 imaginary frequencies ignored.
 Zero-point vibrational energy       6429.5 (Joules/Mol)
                                    1.53669 (Kcal/Mol)
 Warning -- explicit consideration of   2 degrees of freedom as
           vibrations may cause significant error
 Vibrational temperatures:    773.29   773.29
          (Kelvin)

 Zero-point correction=                           0.002449 (Hartree/Particle)
 Thermal correction to Energy=                    0.005205
 Thermal correction to Enthalpy=                  0.006149
 Thermal correction to Gibbs Free Energy=        -0.017951
 Sum of electronic and zero-point Energies=           -100.791304
 Sum of electronic and thermal Energies=              -100.788548
 Sum of electronic and thermal Enthalpies=            -100.787603
 Sum of electronic and thermal Free Energies=         -100.811704

                     E (Thermal)             CV                S
                      KCal/Mol        Cal/Mol-Kelvin    Cal/Mol-Kelvin
 Total                    3.266              7.302             50.723
 Electronic               0.000              0.000              1.377
 Translational            0.889              2.981             35.068
 Rotational               0.592              1.987             13.136
 Vibrational              1.785              2.334              1.142
 Vibration     1          0.892              1.167              0.571
 Vibration     2          0.892              1.167              0.571

 Normal termination of Gaussian 16 at Fri Aug 22 16:53:46 2025.
