 Gaussian 16, Revision C.01,
 Gaussian 16:  ES64L-G16RevC.01  3-Jul-2019

 -----------------------------------------
 # sp b3lyp/6-311g** Force nosymm scf=(qc)
 -----------------------------------------

 -------------------
 Title Card Required
 -------------------
 Symbolic Z-matrix:
 Charge =  0 Multiplicity = 2

                          Input orientation:
 ---------------------------------------------------------------------
 Center     Atomic      Atomic             Coordinates (Angstroms)
 Number     Number       Type             X           Y           Z
 ---------------------------------------------------------------------
      1          1           0        0.000000    0.000000    0.000000
      2          1           0       -1.500000    0.000000    0.000000
      3          9           0        0.800000    0.000000    0.000000
 ---------------------------------------------------------------------

 SCF Done:  E(UB3LYP) =  -100.946562722     a.u. after    6 cycles

 Alpha  occ. eigenvalues --  -24.63457  -1.23061  -0.57106  -0.40516  -0.40516
 Alpha  occ. eigenvalues --   -0.36388
 Alpha virt. eigenvalues --    0.12265   0.21452   0.45660   0.94025   0.94025
 Alpha virt. eigenvalues --    0.96859   1.16674   1.16674   1.28400   1.44657
 Alpha virt. eigenvalues --    1.44657   1.55155   2.07252   2.17049   2.81979

  Beta  occ. eigenvalues --  -24.63294  -1.22627  -0.56065  -0.40382  -0.40382
  Beta virt. eigenvalues --   -0.13505   0.13790   0.28790   0.49549   0.94193
  Beta virt. eigenvalues --    0.94193   0.97206   1.28778   1.28778   1.35601
  Beta virt. eigenvalues --    1.49848   1.49848   1.61222   2.10509   2.33990

 Mulliken charges and spin densities:
               1          2
     1  H    0.256476   0.011271
     2  H    0.018623   0.955267
     3  F   -0.275099   0.033462
 Sum of Mulliken charges =   0.00000   1.00000

 Dipole moment (field-independent basis, Debye):
    X=             -1.8555    Y=             -0.0000    Z=             -0.0000  Tot=              1.8555
 Quadrupole moment (field-independent basis, Debye-Ang):
   XX=             -7.2815   YY=             -6.6656   ZZ=             -6.6656
   XY=             -0.0000   XZ=              0.0000   YZ=             -0.0000

  Exact polarizability:       8.743      -0.000       2.545      -0.000       0.000       2.545
 Approx polarizability:       8.759       0.000       2.553       0.000       0.000       2.553

 ******    2 imaginary frequencies (negative Signs) ******

                      1                      2                      3
                      A                      A                      A
 Frequencies --  -1961.1649             -1961.1649               721.2232
 Red. masses --      1.0270                 1.0270                 1.0532
 Frc consts  --      2.3273                 2.3273                 0.3228
 IR Inten    --    132.8175               132.8175                 1.5516

                      4
                      A
 Frequencies --   6291.7941
 Red. masses --      1.0584
 Frc consts  --     24.6849
 IR Inten    --    177.0817

 - Thermochemistry -
 -------------------
 Temperature   298.150 Kelvin.  Pressure   1.00000 Atm.
 Atom     1 has atomic number  1 and mass   1.00783

 Molecular mass:    21.01405 amu.
 Principal axes and moments of inertia in atomic units:
                           1         2         3
     Eigenvalues --     0.00000  19.68337  19.68337
           X            1.00000  -0.00000   0.00000
           Y            0.00000   1.00000   0.00000
           Z            0.00000   0.00000   1.00000
 This molecule is a prolate symmetric top.
 Rotational symmetry number  1.
 Rotational temperature (Kelvin)      4.40036
 Rotational constant (GHZ):          91.688637
    2 imaginary frequencies ignored.
 Zero-point vibrational energy      41947.2 (Joules/Mol)
                                   10.02561 (Kcal/Mol)
 Vibrational temperatures:   1037.68  9052.49
          (Kelvin)

 Zero-point correction=                           0.015977 (Hartree/Particle)
 Thermal correction to Energy=                    0.018442
 Thermal correction to Enthalpy=                  0.019386
 Thermal correction to Gibbs Free Energy=        -0.002989
 Sum of electronic and zero-point Energies=           -100.930586
 Sum of electronic and thermal Energies=              -100.928121
 Sum of electronic and thermal Enthalpies=            -100.927177
 Sum of electronic and thermal Free Energies=         -100.949552

                     E (Thermal)             CV                S
                      KCal/Mol        Cal/Mol-Kelvin    Cal/Mol-Kelvin
 Total                   11.572              5.757             47.092
 Electronic               0.000              0.000              1.377
 Translational            0.889              2.981             35.068
 Rotational               0.592              1.987             10.365
 Vibrational             10.091              0.789              0.282

 Normal termination of Gaussian 16 at Fri Aug 22 15:50:45 2025.
