 Gaussian 16, Revision C.01,
 Gaussian 16:  ES64L-G16RevC.01  3-Jul-2019

 -----------------------------------------
 # sp b3lyp/6-311g** Force nosymm scf=(qc)
 -----------------------------------------

 -------------------
 Title Card Required
 -------------------
 Symbolic Z-matrix:
 Charge =  0 Multiplicity = 2

                          Input orientation:
 ---------------------------------------------------------------------
 Center     Atomic      Atomic             Coordinates (Angstroms)
 Number     Number       Type             X           Y           Z
 ---------------------------------------------------------------------
      1          1           0        0.000000    0.000000    0.000000
      2          1           0       -1.600000    0.000000    0.000000
      3          9           0        4.000000    0.000000    0.000000
 ---------------------------------------------------------------------

 SCF Done:  E(UB3LYP) =  -100.805910161     a.u. after  106 cycles

 Alpha  occ. eigenvalues --  -24.76192  -1.22098  -0.55302  -0.46474  -0.46459
 Alpha  occ. eigenvalues --   -0.33295
 Alpha virt. eigenvalues --   -0.10282   0.25400   0.30621   0.86059   0.90937
 Alpha virt. eigenvalues --    0.91227   1.00852   1.06674   1.22379   1.22380
 Alpha virt. eigenvalues --    1.39482   1.39484   1.74425   2.19328   2.43632

  Beta  occ. eigenvalues --  -24.73037  -1.13026  -0.43312  -0.43296  -0.33291
  Beta virt. eigenvalues --   -0.25954  -0.10300   0.25399   0.30628   0.92438
  Beta virt. eigenvalues --    0.92709   0.95526   1.04996   1.06674   1.22375
  Beta virt. eigenvalues --    1.22377   1.39476   1.39478   1.74434   2.19378

 Mulliken charges and spin densities:
               1          2
     1  H    0.001004  -0.452787
     2  H   -0.001634   0.452761
     3  F    0.000630   1.000027
 Sum of Mulliken charges =   0.00000   1.00000

 Dipole moment (field-independent basis, Debye):
    X=              0.0198    Y=              0.0000    Z=             -0.0000  Tot=              0.0198
 Quadrupole moment (field-independent basis, Debye-Ang):
   XX=             -6.4740   YY=             -7.0797   ZZ=             -7.5929
   XY=              0.0000   XZ=             -0.0000   YZ=             -0.3480

  Exact polarizability:      23.388       0.000       2.397      -0.000      -0.186       2.122
 Approx polarizability:      41.019       0.000       2.469      -0.000      -0.235       2.123

 ******    2 imaginary frequencies (negative Signs) ******

                      1                      2                      3
                      A                      A                      A
 Frequencies --  -2062.6496               -56.2825              1058.7603
 Red. masses --      1.0078                 1.1085                 1.0106
 Frc consts  --      2.5263                 0.0021                 0.6674
 IR Inten    --      0.0108                 0.0278                 0.0015

                      4
                      A
 Frequencies --   1059.7996
 Red. masses --      1.0106
 Frc consts  --      0.6687
 IR Inten    --      0.0004

 - Thermochemistry -
 -------------------
 Temperature   298.150 Kelvin.  Pressure   1.00000 Atm.
 Atom     1 has atomic number  1 and mass   1.00783

 Molecular mass:    21.01405 amu.
 Principal axes and moments of inertia in atomic units:
                           1         2         3
     Eigenvalues --     0.00000 154.54159 154.54159
           X            1.00000  -0.00000   0.00000
           Y            0.00000   1.00000   0.00000
           Z            0.00000   0.00000   1.00000
 This molecule is a prolate symmetric top.
 Rotational symmetry number  1.
 Rotational temperature (Kelvin)      0.56046
 Rotational constant (GHZ):          11.678029
    2 imaginary frequencies ignored.
 Zero-point vibrational energy      12671.8 (Joules/Mol)
                                    3.02863 (Kcal/Mol)
 Vibrational temperatures:   1523.32  1524.82
          (Kelvin)

 Zero-point correction=                           0.004826 (Hartree/Particle)
 Thermal correction to Energy=                    0.007245
 Thermal correction to Enthalpy=                  0.008190
 Thermal correction to Gibbs Free Energy=        -0.016067
 Sum of electronic and zero-point Energies=           -100.801084
 Sum of electronic and thermal Energies=              -100.798665
 Sum of electronic and thermal Enthalpies=            -100.797721
 Sum of electronic and thermal Free Energies=         -100.821977

                     E (Thermal)             CV                S
                      KCal/Mol        Cal/Mol-Kelvin    Cal/Mol-Kelvin
 Total                    4.547              5.601             51.053
 Electronic               0.000              0.000              1.377
 Translational            0.889              2.981             35.068
 Rotational               0.592              1.987             14.460
 Vibrational              3.065              0.633              0.147

 Normal termination of Gaussian 16 at Sat Aug 23 01:50:16 2025.
