 Gaussian 16, Revision C.01,
 Gaussian 16:  ES64L-G16RevC.01  3-Jul-2019

 -----------------------------------------
 # sp b3lyp/6-311g** Force nosymm scf=(qc)
 -----------------------------------------

 -------------------
 Title Card Required
 -------------------
 Symbolic Z-matrix:
 Charge =  0 Multiplicity = 2

                          Input orientation:
 ---------------------------------------------------------------------
 Center     Atomic      Atomic             Coordinates (Angstroms)
 Number     Number       Type             X           Y           Z
 ---------------------------------------------------------------------
      1          1           0        0.000000    0.000000    0.000000
      2          1           0       -1.600000    0.000000    0.000000
      3          9           0        0.950000    0.000000    0.000000
 ---------------------------------------------------------------------

 SCF Done:  E(UB3LYP) =  -100.971112942     a.u. after    6 cycles

 Alpha  occ. eigenvalues --  -24.63548  -1.17142  -0.53438  -0.38793  -0.38793
 Alpha  occ. eigenvalues --   -0.36837
 Alpha virt. eigenvalues --    0.08347   0.21778   0.36016   0.94431   0.94431
 Alpha virt. eigenvalues --    0.98585   1.17108   1.17636   1.17636   1.39993
 Alpha virt. eigenvalues --    1.39993   1.52762   1.99100   2.28969   2.44814

  Beta  occ. eigenvalues --  -24.63356  -1.16659  -0.52191  -0.38626  -0.38626
  Beta virt. eigenvalues --   -0.14630   0.10575   0.28524   0.39135   0.94537
  Beta virt. eigenvalues --    0.94537   0.99019   1.26156   1.29613   1.29613
  Beta virt. eigenvalues --    1.45154   1.45154   1.56596   2.11113   2.31319

 Mulliken charges and spin densities:
               1          2
     1  H    0.284699   0.004840
     2  H    0.027177   0.946359
     3  F   -0.311875   0.048800
 Sum of Mulliken charges =   0.00000   1.00000

 Dipole moment (field-independent basis, Debye):
    X=             -2.1891    Y=             -0.0000    Z=             -0.0000  Tot=              2.1891
 Quadrupole moment (field-independent basis, Debye-Ang):
   XX=             -7.5611   YY=             -6.8147   ZZ=             -6.8147
   XY=             -0.0000   XZ=             -0.0000   YZ=             -0.0000

  Exact polarizability:      11.304      -0.000       2.515      -0.000       0.000       2.515
 Approx polarizability:      12.014      -0.000       2.510       0.000       0.000       2.510

                      1                      2                      3
                      A                      A                      A
 Frequencies --    393.4341               538.9735               538.9735
 Red. masses --      1.0509                 1.0253                 1.0253
 Frc consts  --      0.0958                 0.1755                 0.1755
 IR Inten    --      0.3895               115.6222               115.6222

                      4
                      A
 Frequencies --   3554.1712
 Red. masses --      1.0607
 Frc consts  --      7.8941
 IR Inten    --    212.3637

 - Thermochemistry -
 -------------------
 Temperature   298.150 Kelvin.  Pressure   1.00000 Atm.
 Atom     1 has atomic number  1 and mass   1.00783

 Molecular mass:    21.01405 amu.
 Principal axes and moments of inertia in atomic units:
                           1         2         3
     Eigenvalues --     0.00000  24.53622  24.53622
           X            1.00000  -0.00000   0.00000
           Y            0.00000   1.00000   0.00000
           Z            0.00000   0.00000   1.00000
 This molecule is a prolate symmetric top.
 Rotational symmetry number  1.
 Rotational temperature (Kelvin)      3.53004
 Rotational constant (GHZ):          73.554156
 Zero-point vibrational energy      30059.5 (Joules/Mol)
                                    7.18439 (Kcal/Mol)
 Warning -- explicit consideration of   3 degrees of freedom as
           vibrations may cause significant error
 Vibrational temperatures:    566.06   775.46   775.46  5113.66
          (Kelvin)

 Zero-point correction=                           0.011449 (Hartree/Particle)
 Thermal correction to Energy=                    0.014519
 Thermal correction to Enthalpy=                  0.015463
 Thermal correction to Gibbs Free Energy=        -0.007994
 Sum of electronic and zero-point Energies=           -100.959664
 Sum of electronic and thermal Energies=              -100.956594
 Sum of electronic and thermal Enthalpies=            -100.955650
 Sum of electronic and thermal Free Energies=         -100.979107

                     E (Thermal)             CV                S
                      KCal/Mol        Cal/Mol-Kelvin    Cal/Mol-Kelvin
 Total                    9.111              8.780             49.371
 Electronic               0.000              0.000              1.377
 Translational            0.889              2.981             35.068
 Rotational               0.592              1.987             10.803
 Vibrational              7.630              3.812              2.122
 Vibration     1          0.761              1.484              0.987
 Vibration     2          0.894              1.164              0.567
 Vibration     3          0.894              1.164              0.567

 Normal termination of Gaussian 16 at Fri Aug 22 15:57:53 2025.
