 Gaussian 16, Revision C.01,
 Gaussian 16:  ES64L-G16RevC.01  3-Jul-2019

 -----------------------------------------
 # sp b3lyp/6-311g** Force nosymm scf=(qc)
 -----------------------------------------

 -------------------
 Title Card Required
 -------------------
 Symbolic Z-matrix:
 Charge =  0 Multiplicity = 2

                          Input orientation:
 ---------------------------------------------------------------------
 Center     Atomic      Atomic             Coordinates (Angstroms)
 Number     Number       Type             X           Y           Z
 ---------------------------------------------------------------------
      1          1           0        0.000000    0.000000    0.000000
      2          1           0       -3.300000    0.000000    0.000000
      3          9           0        1.150000    0.000000    0.000000
 ---------------------------------------------------------------------

 SCF Done:  E(UB3LYP) =  -100.937405022     a.u. after    6 cycles

 Alpha  occ. eigenvalues --  -24.64312  -1.12991  -0.48645  -0.37785  -0.37785
 Alpha  occ. eigenvalues --   -0.34006
 Alpha virt. eigenvalues --   -0.04033   0.23053   0.30141   0.93366   0.93366
 Alpha virt. eigenvalues --    1.00196   1.23449   1.23515   1.23515   1.28174
 Alpha virt. eigenvalues --    1.34948   1.34948   1.75800   2.14065   2.30371

  Beta  occ. eigenvalues --  -24.64306  -1.12977  -0.48629  -0.37780  -0.37780
  Beta virt. eigenvalues --   -0.07643  -0.02739   0.28300   0.38548   0.93366
  Beta virt. eigenvalues --    0.93366   1.00209   1.28003   1.34939   1.34939
  Beta virt. eigenvalues --    1.47547   1.47547   1.48005   1.75854   2.30243

 Mulliken charges and spin densities:
               1          2
     1  H    0.347028   0.000369
     2  H    0.001832   0.997887
     3  F   -0.348860   0.001744
 Sum of Mulliken charges =   0.00000   1.00000

 Dipole moment (field-independent basis, Debye):
    X=             -2.2460    Y=             -0.0000    Z=             -0.0000  Tot=              2.2460
 Quadrupole moment (field-independent basis, Debye-Ang):
   XX=             -8.6623   YY=             -7.0891   ZZ=             -7.0891
   XY=             -0.0000   XZ=              0.0000   YZ=             -0.0000

  Exact polarizability:       9.116      -0.000       2.347       0.000      -0.000       2.347
 Approx polarizability:      12.212       0.000       2.307       0.000      -0.000       2.307

 ******    1 imaginary frequencies (negative Signs) ******

                      1                      2                      3
                      A                      A                      A
 Frequencies --    -70.4996              1203.4356              1203.4356
 Red. masses --      1.0529                 1.0339                 1.0339
 Frc consts  --      0.0031                 0.8822                 0.8822
 IR Inten    --      0.1884               149.9190               149.9190

                      4
                      A
 Frequencies --   1463.9563
 Red. masses --      1.0587
 Frc consts  --      1.3368
 IR Inten    --     77.1266

 - Thermochemistry -
 -------------------
 Temperature   298.150 Kelvin.  Pressure   1.00000 Atm.
 Atom     1 has atomic number  1 and mass   1.00783

 Molecular mass:    21.01405 amu.
 Principal axes and moments of inertia in atomic units:
                           1         2         3
     Eigenvalues --     0.00000  70.61610  70.61610
           X            1.00000  -0.00000   0.00000
           Y            0.00000   1.00000   0.00000
           Z            0.00000   0.00000   1.00000
 This molecule is a prolate symmetric top.
 Rotational symmetry number  1.
 Rotational temperature (Kelvin)      1.22655
 Rotational constant (GHZ):          25.557077
    1 imaginary frequencies ignored.
 Zero-point vibrational energy      23152.7 (Joules/Mol)
                                    5.53363 (Kcal/Mol)
 Vibrational temperatures:   1731.48  1731.48  2106.31
          (Kelvin)

 Zero-point correction=                           0.008818 (Hartree/Particle)
 Thermal correction to Energy=                    0.011218
 Thermal correction to Enthalpy=                  0.012162
 Thermal correction to Gibbs Free Energy=        -0.011331
 Sum of electronic and zero-point Energies=           -100.928587
 Sum of electronic and thermal Energies=              -100.926187
 Sum of electronic and thermal Enthalpies=            -100.925243
 Sum of electronic and thermal Free Energies=         -100.948736

                     E (Thermal)             CV                S
                      KCal/Mol        Cal/Mol-Kelvin    Cal/Mol-Kelvin
 Total                    7.039              5.458             49.444
 Electronic               0.000              0.000              1.377
 Translational            0.889              2.981             35.068
 Rotational               0.592              1.987             12.904
 Vibrational              5.558              0.490              0.095

 Normal termination of Gaussian 16 at Fri Aug 22 16:08:36 2025.
