 Gaussian 16, Revision C.01,
 Gaussian 16:  ES64L-G16RevC.01  3-Jul-2019

 -----------------------------------------
 # sp b3lyp/6-311g** Force nosymm scf=(qc)
 -----------------------------------------

 -------------------
 Title Card Required
 -------------------
 Symbolic Z-matrix:
 Charge =  0 Multiplicity = 2

                          Input orientation:
 ---------------------------------------------------------------------
 Center     Atomic      Atomic             Coordinates (Angstroms)
 Number     Number       Type             X           Y           Z
 ---------------------------------------------------------------------
      1          1           0        0.000000    0.000000    0.000000
      2          1           0       -3.100000    0.000000    0.000000
      3          9           0        1.550000    0.000000    0.000000
 ---------------------------------------------------------------------

 SCF Done:  E(UB3LYP) =  -100.844257624     a.u. after    7 cycles

 Alpha  occ. eigenvalues --  -24.64407  -1.09762  -0.42918  -0.36395  -0.36395
 Alpha  occ. eigenvalues --   -0.34511
 Alpha virt. eigenvalues --   -0.15177   0.20945   0.27778   0.93900   0.93900
 Alpha virt. eigenvalues --    1.02529   1.08089   1.23006   1.23006   1.23388
 Alpha virt. eigenvalues --    1.31168   1.31168   1.74001   2.13643   2.18999

  Beta  occ. eigenvalues --  -24.64108  -1.08964  -0.42242  -0.36109  -0.36109
  Beta virt. eigenvalues --   -0.16223  -0.07475   0.23385   0.37377   0.93769
  Beta virt. eigenvalues --    0.93769   1.03109   1.08019   1.29594   1.29594
  Beta virt. eigenvalues --    1.44621   1.45019   1.45019   1.73353   2.16664

 Mulliken charges and spin densities:
               1          2
     1  H    0.339631  -0.088892
     2  H    0.005451   0.994056
     3  F   -0.345082   0.094836
 Sum of Mulliken charges =  -0.00000   1.00000

 Dipole moment (field-independent basis, Debye):
    X=             -2.7025    Y=              0.0000    Z=              0.0000  Tot=              2.7025
 Quadrupole moment (field-independent basis, Debye-Ang):
   XX=             -9.8945   YY=             -7.3505   ZZ=             -7.3505
   XY=              0.0000   XZ=              0.0000   YZ=             -0.0000

  Exact polarizability:      19.381       0.000       2.168       0.000       0.000       2.168
 Approx polarizability:      34.226       0.000       2.089       0.000       0.000       2.089

 ******    2 imaginary frequencies (negative Signs) ******

                      1                      2                      3
                      A                      A                      A
 Frequencies --  -1566.3767              -141.6395               966.2589
 Red. masses --      1.0555                 1.0561                 1.0281
 Frc consts  --      1.5258                 0.0125                 0.5655
 IR Inten    --      4.3196                 0.9156               107.5840

                      4
                      A
 Frequencies --    966.2589
 Red. masses --      1.0281
 Frc consts  --      0.5655
 IR Inten    --    107.5840

 - Thermochemistry -
 -------------------
 Temperature   298.150 Kelvin.  Pressure   1.00000 Atm.
 Atom     1 has atomic number  1 and mass   1.00783

 Molecular mass:    21.01405 amu.
 Principal axes and moments of inertia in atomic units:
                           1         2         3
     Eigenvalues --     0.00000  79.83117  79.83117
           X            1.00000  -0.00000   0.00000
           Y            0.00000   1.00000   0.00000
           Z            0.00000   0.00000   1.00000
 This molecule is a prolate symmetric top.
 Rotational symmetry number  1.
 Rotational temperature (Kelvin)      1.08496
 Rotational constant (GHZ):          22.606974
    2 imaginary frequencies ignored.
 Zero-point vibrational energy      11559.0 (Joules/Mol)
                                    2.76267 (Kcal/Mol)
 Vibrational temperatures:   1390.23  1390.23
          (Kelvin)

 Zero-point correction=                           0.004403 (Hartree/Particle)
 Thermal correction to Energy=                    0.006847
 Thermal correction to Enthalpy=                  0.007791
 Thermal correction to Gibbs Free Energy=        -0.015874
 Sum of electronic and zero-point Energies=           -100.839855
 Sum of electronic and thermal Energies=              -100.837411
 Sum of electronic and thermal Enthalpies=            -100.836466
 Sum of electronic and thermal Free Energies=         -100.860131

                     E (Thermal)             CV                S
                      KCal/Mol        Cal/Mol-Kelvin    Cal/Mol-Kelvin
 Total                    4.297              5.799             49.807
 Electronic               0.000              0.000              1.377
 Translational            0.889              2.981             35.068
 Rotational               0.592              1.987             13.147
 Vibrational              2.815              0.831              0.214

 Normal termination of Gaussian 16 at Fri Aug 22 16:29:11 2025.
