 Gaussian 16, Revision C.01,
 Gaussian 16:  ES64L-G16RevC.01  3-Jul-2019

 -----------------------------------------
 # sp b3lyp/6-311g** Force nosymm scf=(qc)
 -----------------------------------------

 -------------------
 Title Card Required
 -------------------
 Symbolic Z-matrix:
 Charge =  0 Multiplicity = 2

                          Input orientation:
 ---------------------------------------------------------------------
 Center     Atomic      Atomic             Coordinates (Angstroms)
 Number     Number       Type             X           Y           Z
 ---------------------------------------------------------------------
      1          1           0        0.000000    0.000000    0.000000
      2          1           0       -0.550000    0.000000    0.000000
      3          9           0        2.700000    0.000000    0.000000
 ---------------------------------------------------------------------

 SCF Done:  E(UB3LYP) =  -100.894780734     a.u. after   71 cycles

 Alpha  occ. eigenvalues --  -24.76713  -1.22492  -0.55679  -0.48117  -0.46826
 Alpha  occ. eigenvalues --   -0.46429
 Alpha virt. eigenvalues --    0.10105   0.19125   0.55045   0.85803   0.90672
 Alpha virt. eigenvalues --    0.93781   1.11041   1.11311   1.11325   1.61867
 Alpha virt. eigenvalues --    1.83169   1.96441   1.96457   2.38130   3.64595

  Beta  occ. eigenvalues --  -24.73549  -1.13400  -0.47794  -0.43654  -0.43576
  Beta virt. eigenvalues --   -0.26293   0.10193   0.19185   0.55161   0.92169
  Beta virt. eigenvalues --    0.95253   0.95714   1.11313   1.11324   1.14548
  Beta virt. eigenvalues --    1.61884   1.83187   1.96440   1.96456   2.38142

 Mulliken charges and spin densities:
               1          2
     1  H   -0.010964  -0.002410
     2  H   -0.002628   0.000379
     3  F    0.013592   1.002031
 Sum of Mulliken charges =   0.00000   1.00000

 Dipole moment (field-independent basis, Debye):
    X=              0.1171    Y=              0.0000    Z=             -0.0000  Tot=              0.1171
 Quadrupole moment (field-independent basis, Debye-Ang):
   XX=             -5.9619   YY=             -6.5137   ZZ=             -5.9709
   XY=             -0.0000   XZ=              0.0000   YZ=             -0.3356

  Exact polarizability:       6.430      -0.000       1.940       0.000      -0.175       2.223
 Approx polarizability:       6.785      -0.000       2.045       0.000      -0.221       2.401

 ******    2 imaginary frequencies (negative Signs) ******

                      1                      2                      3
                      A                      A                      A
 Frequencies --  -3685.3308             -3683.9343               141.3044
 Red. masses --      1.0087                 1.0087                 1.1085
 Frc consts  --      8.0716                 8.0654                 0.0130
 IR Inten    --      0.0932                 0.0986                 0.2266

                      4
                      A
 Frequencies --   8342.9505
 Red. masses --      1.0078
 Frc consts  --     41.3309
 IR Inten    --      0.9159

 - Thermochemistry -
 -------------------
 Temperature   298.150 Kelvin.  Pressure   1.00000 Atm.
 Atom     1 has atomic number  1 and mass   1.00783

 Molecular mass:    21.01405 amu.
 Principal axes and moments of inertia in atomic units:
                           1         2         3
     Eigenvalues --     0.00000  58.14058  58.14058
           X            1.00000  -0.00000   0.00000
           Y            0.00000   1.00000   0.00000
           Z            0.00000   0.00000   1.00000
 This molecule is a prolate symmetric top.
 Rotational symmetry number  1.
 Rotational temperature (Kelvin)      1.48973
 Rotational constant (GHZ):          31.040989
    2 imaginary frequencies ignored.
 Zero-point vibrational energy      50747.1 (Joules/Mol)
                                   12.12885 (Kcal/Mol)
 Warning -- explicit consideration of   1 degrees of freedom as
           vibrations may cause significant error
 Vibrational temperatures:    203.31 12003.64
          (Kelvin)

 Zero-point correction=                           0.019329 (Hartree/Particle)
 Thermal correction to Energy=                    0.022348
 Thermal correction to Enthalpy=                  0.023292
 Thermal correction to Gibbs Free Energy=        -0.001296
 Sum of electronic and zero-point Energies=           -100.875452
 Sum of electronic and thermal Energies=              -100.872433
 Sum of electronic and thermal Enthalpies=            -100.871489
 Sum of electronic and thermal Free Energies=         -100.896077

                     E (Thermal)             CV                S
                      KCal/Mol        Cal/Mol-Kelvin    Cal/Mol-Kelvin
 Total                   14.023              6.880             51.749
 Electronic               0.000              0.000              1.377
 Translational            0.889              2.981             35.068
 Rotational               0.592              1.987             12.517
 Vibrational             12.542              1.912              2.786
 Vibration     1          0.615              1.912              2.786

 Normal termination of Gaussian 16 at Fri Aug 22 18:17:01 2025.
