 Gaussian 16, Revision C.01,
 Gaussian 16:  ES64L-G16RevC.01  3-Jul-2019

 -----------------------------------------
 # sp b3lyp/6-311g** Force nosymm scf=(qc)
 -----------------------------------------

 -------------------
 Title Card Required
 -------------------
 Symbolic Z-matrix:
 Charge =  0 Multiplicity = 2

                          Input orientation:
 ---------------------------------------------------------------------
 Center     Atomic      Atomic             Coordinates (Angstroms)
 Number     Number       Type             X           Y           Z
 ---------------------------------------------------------------------
      1          1           0        0.000000    0.000000    0.000000
      2          1           0       -1.750000    0.000000    0.000000
      3          9           0        1.000000    0.000000    0.000000
 ---------------------------------------------------------------------

 SCF Done:  E(UB3LYP) =  -100.967224135     a.u. after    6 cycles

 Alpha  occ. eigenvalues --  -24.63612  -1.15693  -0.51998  -0.38354  -0.38354
 Alpha  occ. eigenvalues --   -0.36722
 Alpha virt. eigenvalues --    0.05586   0.22707   0.33604   0.94389   0.94389
 Alpha virt. eigenvalues --    0.98919   1.13351   1.19430   1.19430   1.37675
 Alpha virt. eigenvalues --    1.37675   1.52178   1.90029   2.27797   2.34739

  Beta  occ. eigenvalues --  -24.63460  -1.15313  -0.51060  -0.38221  -0.38221
  Beta virt. eigenvalues --   -0.14172   0.08073   0.30075   0.35968   0.94433
  Beta virt. eigenvalues --    0.94433   0.99374   1.22745   1.32609   1.32609
  Beta virt. eigenvalues --    1.42459   1.42459   1.56961   1.98045   2.34157

 Mulliken charges and spin densities:
               1          2
     1  H    0.298442   0.003432
     2  H    0.025654   0.955917
     3  F   -0.324096   0.040651
 Sum of Mulliken charges =   0.00000   1.00000

 Dipole moment (field-independent basis, Debye):
    X=             -2.2748    Y=             -0.0000    Z=              0.0000  Tot=              2.2748
 Quadrupole moment (field-independent basis, Debye-Ang):
   XX=             -7.6875   YY=             -6.8853   ZZ=             -6.8853
   XY=             -0.0000   XZ=              0.0000   YZ=              0.0000

  Exact polarizability:      11.790      -0.000       2.483       0.000      -0.000       2.483
 Approx polarizability:      12.842       0.000       2.470       0.000      -0.000       2.470

                      1                      2                      3
                      A                      A                      A
 Frequencies --    190.1553               908.4718               908.4718
 Red. masses --      1.0503                 1.0259                 1.0259
 Frc consts  --      0.0224                 0.4989                 0.4989
 IR Inten    --      3.0713               118.9792               118.9792

                      4
                      A
 Frequencies --   2914.7759
 Red. masses --      1.0613
 Frc consts  --      5.3125
 IR Inten    --    216.9910

 - Thermochemistry -
 -------------------
 Temperature   298.150 Kelvin.  Pressure   1.00000 Atm.
 Atom     1 has atomic number  1 and mass   1.00783

 Molecular mass:    21.01405 amu.
 Principal axes and moments of inertia in atomic units:
                           1         2         3
     Eigenvalues --     0.00000  28.38923  28.38923
           X            1.00000  -0.00000   0.00000
           Y            0.00000   1.00000   0.00000
           Z            0.00000   0.00000   1.00000
 This molecule is a prolate symmetric top.
 Rotational symmetry number  1.
 Rotational temperature (Kelvin)      3.05094
 Rotational constant (GHZ):          63.571343
 Zero-point vibrational energy      29439.3 (Joules/Mol)
                                    7.03617 (Kcal/Mol)
 Warning -- explicit consideration of   1 degrees of freedom as
           vibrations may cause significant error
 Vibrational temperatures:    273.59  1307.09  1307.09  4193.71
          (Kelvin)

 Zero-point correction=                           0.011213 (Hartree/Particle)
 Thermal correction to Energy=                    0.014254
 Thermal correction to Enthalpy=                  0.015198
 Thermal correction to Gibbs Free Energy=        -0.008575
 Sum of electronic and zero-point Energies=           -100.956011
 Sum of electronic and thermal Energies=              -100.952970
 Sum of electronic and thermal Enthalpies=            -100.952026
 Sum of electronic and thermal Free Energies=         -100.975799

                     E (Thermal)             CV                S
                      KCal/Mol        Cal/Mol-Kelvin    Cal/Mol-Kelvin
 Total                    8.945              7.799             50.035
 Electronic               0.000              0.000              1.377
 Translational            0.889              2.981             35.068
 Rotational               0.592              1.987             11.093
 Vibrational              7.463              2.831              2.496
 Vibration     1          0.633              1.853              2.226

 Normal termination of Gaussian 16 at Fri Aug 22 16:00:22 2025.
