 Gaussian 16, Revision C.01,
 Gaussian 16:  ES64L-G16RevC.01  3-Jul-2019

 -----------------------------------------
 # sp b3lyp/6-311g** Force nosymm scf=(qc)
 -----------------------------------------

 -------------------
 Title Card Required
 -------------------
 Symbolic Z-matrix:
 Charge =  0 Multiplicity = 2

                          Input orientation:
 ---------------------------------------------------------------------
 Center     Atomic      Atomic             Coordinates (Angstroms)
 Number     Number       Type             X           Y           Z
 ---------------------------------------------------------------------
      1          1           0        0.000000    0.000000    0.000000
      2          1           0       -2.200000    0.000000    0.000000
      3          9           0        0.900000    0.000000    0.000000
 ---------------------------------------------------------------------

 SCF Done:  E(UB3LYP) =  -100.971907280     a.u. after    5 cycles

 Alpha  occ. eigenvalues --  -24.63802  -1.18892  -0.53840  -0.39488  -0.39488
 Alpha  occ. eigenvalues --   -0.35418
 Alpha virt. eigenvalues --    0.05588   0.24838   0.39096   0.94485   0.94485
 Alpha virt. eigenvalues --    0.97496   1.16055   1.22099   1.22099   1.37456
 Alpha virt. eigenvalues --    1.37456   1.46352   1.98391   2.16080   2.37453

  Beta  occ. eigenvalues --  -24.63767  -1.18802  -0.53665  -0.39459  -0.39459
  Beta virt. eigenvalues --   -0.10821   0.07454   0.36148   0.38986   0.94490
  Beta virt. eigenvalues --    0.94490   0.97818   1.25618   1.37268   1.37268
  Beta virt. eigenvalues --    1.42753   1.42753   1.56583   1.99838   2.37403

 Mulliken charges and spin densities:
               1          2
     1  H    0.286549   0.005548
     2  H    0.010071   0.984720
     3  F   -0.296619   0.009731
 Sum of Mulliken charges =   0.00000   1.00000

 Dipole moment (field-independent basis, Debye):
    X=             -2.0013    Y=              0.0000    Z=             -0.0000  Tot=              2.0013
 Quadrupole moment (field-independent basis, Debye-Ang):
   XX=             -7.5992   YY=             -6.8476   ZZ=             -6.8476
   XY=              0.0000   XZ=             -0.0000   YZ=             -0.0000

  Exact polarizability:       8.314       0.000       2.471      -0.000       0.000       2.471
 Approx polarizability:       8.857      -0.000       2.456       0.000       0.000       2.456

 ******    2 imaginary frequencies (negative Signs) ******

                      1                      2                      3
                      A                      A                      A
 Frequencies --   -630.9903              -630.9903               135.3985
 Red. masses --      1.0313                 1.0313                 1.0530
 Frc consts  --      0.2419                 0.2419                 0.0114
 IR Inten    --    157.1697               157.1697                 1.1140

                      4
                      A
 Frequencies --   4416.5163
 Red. masses --      1.0585
 Frc consts  --     12.1649
 IR Inten    --    152.0704

 - Thermochemistry -
 -------------------
 Temperature   298.150 Kelvin.  Pressure   1.00000 Atm.
 Atom     1 has atomic number  1 and mass   1.00783

 Molecular mass:    21.01405 amu.
 Principal axes and moments of inertia in atomic units:
                           1         2         3
     Eigenvalues --     0.00000  34.73996  34.73996
           X            1.00000  -0.00000   0.00000
           Y            0.00000   1.00000   0.00000
           Z            0.00000   0.00000   1.00000
 This molecule is a prolate symmetric top.
 Rotational symmetry number  1.
 Rotational temperature (Kelvin)      2.49321
 Rotational constant (GHZ):          51.950011
    2 imaginary frequencies ignored.
 Zero-point vibrational energy      27226.5 (Joules/Mol)
                                    6.50729 (Kcal/Mol)
 Warning -- explicit consideration of   1 degrees of freedom as
           vibrations may cause significant error
 Vibrational temperatures:    194.81  6354.38
          (Kelvin)

 Zero-point correction=                           0.010370 (Hartree/Particle)
 Thermal correction to Energy=                    0.013400
 Thermal correction to Enthalpy=                  0.014344
 Thermal correction to Gibbs Free Energy=        -0.009796
 Sum of electronic and zero-point Energies=           -100.961537
 Sum of electronic and thermal Energies=              -100.958508
 Sum of electronic and thermal Enthalpies=            -100.957564
 Sum of electronic and thermal Free Energies=         -100.981704

                     E (Thermal)             CV                S
                      KCal/Mol        Cal/Mol-Kelvin    Cal/Mol-Kelvin
 Total                    8.408              6.886             50.807
 Electronic               0.000              0.000              1.377
 Translational            0.889              2.981             35.068
 Rotational               0.592              1.987             11.494
 Vibrational              6.927              1.918              2.868
 Vibration     1          0.613              1.918              2.868

 Normal termination of Gaussian 16 at Fri Aug 22 15:55:57 2025.
