 Gaussian 16, Revision C.01,
 Gaussian 16:  ES64L-G16RevC.01  3-Jul-2019

 -----------------------------------------
 # sp b3lyp/6-311g** Force nosymm scf=(qc)
 -----------------------------------------

 -------------------
 Title Card Required
 -------------------
 Symbolic Z-matrix:
 Charge =  0 Multiplicity = 2

                          Input orientation:
 ---------------------------------------------------------------------
 Center     Atomic      Atomic             Coordinates (Angstroms)
 Number     Number       Type             X           Y           Z
 ---------------------------------------------------------------------
      1          1           0        0.000000    0.000000    0.000000
      2          1           0       -0.550000    0.000000    0.000000
      3          9           0        0.900000    0.000000    0.000000
 ---------------------------------------------------------------------

 SCF Done:  E(UB3LYP) =  -100.817759419     a.u. after    6 cycles

 Alpha  occ. eigenvalues --  -24.67855  -1.25656  -0.69275  -0.43478  -0.43478
 Alpha  occ. eigenvalues --   -0.31901
 Alpha virt. eigenvalues --    0.14823   0.17973   0.71874   0.86100   0.86100
 Alpha virt. eigenvalues --    0.92862   1.12520   1.12520   1.47829   1.71515
 Alpha virt. eigenvalues --    1.88025   1.89337   1.89337   2.84617   3.77477

  Beta  occ. eigenvalues --  -24.66184  -1.21332  -0.61941  -0.41985  -0.41985
  Beta virt. eigenvalues --   -0.13945   0.17383   0.18836   0.76524   0.88083
  Beta virt. eigenvalues --    0.88083   0.96177   1.16561   1.16561   1.49922
  Beta virt. eigenvalues --    1.78018   1.91354   1.93746   1.93746   2.90746

 Mulliken charges and spin densities:
               1          2
     1  H    0.277431  -0.030404
     2  H   -0.096810   0.652470
     3  F   -0.180621   0.377934
 Sum of Mulliken charges =   0.00000   1.00000

 Dipole moment (field-independent basis, Debye):
    X=             -1.0731    Y=              0.0000    Z=              0.0000  Tot=              1.0731
 Quadrupole moment (field-independent basis, Debye-Ang):
   XX=             -7.3606   YY=             -6.3789   ZZ=             -6.3789
   XY=              0.0000   XZ=              0.0000   YZ=              0.0000

  Exact polarizability:      10.623      -0.000       2.480       0.000      -0.000       2.480
 Approx polarizability:      11.870      -0.000       2.565       0.000      -0.000       2.565

 ******    2 imaginary frequencies (negative Signs) ******

                      1                      2                      3
                      A                      A                      A
 Frequencies --  -4502.6058             -4502.6058              3195.5629
 Red. masses --      1.0131                 1.0131                 1.1081
 Frc consts  --     12.1010                12.1010                 6.6671
 IR Inten    --     38.1798                38.1798               110.2392

                      4
                      A
 Frequencies --   8264.7568
 Red. masses --      1.0081
 Frc consts  --     40.5724
 IR Inten    --     17.3654

 - Thermochemistry -
 -------------------
 Temperature   298.150 Kelvin.  Pressure   1.00000 Atm.
 Atom     1 has atomic number  1 and mass   1.00783

 Molecular mass:    21.01405 amu.
 Principal axes and moments of inertia in atomic units:
                           1         2         3
     Eigenvalues --     0.00000   9.52889   9.52889
           X            1.00000  -0.00000   0.00000
           Y            0.00000   1.00000   0.00000
           Z            0.00000   0.00000   1.00000
 This molecule is a prolate symmetric top.
 Rotational symmetry number  1.
 Rotational temperature (Kelvin)      9.08961
 Rotational constant (GHZ):         189.396779
    2 imaginary frequencies ignored.
 Zero-point vibrational energy      68547.9 (Joules/Mol)
                                   16.38335 (Kcal/Mol)
 Vibrational temperatures:   4597.70 11891.14
          (Kelvin)

 Zero-point correction=                           0.026109 (Hartree/Particle)
 Thermal correction to Energy=                    0.028469
 Thermal correction to Enthalpy=                  0.029413
 Thermal correction to Gibbs Free Energy=         0.007857
 Sum of electronic and zero-point Energies=           -100.791651
 Sum of electronic and thermal Energies=              -100.789290
 Sum of electronic and thermal Enthalpies=            -100.788346
 Sum of electronic and thermal Free Energies=         -100.809902

                     E (Thermal)             CV                S
                      KCal/Mol        Cal/Mol-Kelvin    Cal/Mol-Kelvin
 Total                   17.865              4.968             45.369
 Electronic               0.000              0.000              1.377
 Translational            0.889              2.981             35.068
 Rotational               0.592              1.987              8.923
 Vibrational             16.383              0.000              0.000

 Normal termination of Gaussian 16 at Fri Aug 22 15:54:48 2025.
