 Gaussian 16, Revision C.01,
 Gaussian 16:  ES64L-G16RevC.01  3-Jul-2019

 -----------------------------------------
 # sp b3lyp/6-311g** Force nosymm scf=(qc)
 -----------------------------------------

 -------------------
 Title Card Required
 -------------------
 Symbolic Z-matrix:
 Charge =  0 Multiplicity = 2

                          Input orientation:
 ---------------------------------------------------------------------
 Center     Atomic      Atomic             Coordinates (Angstroms)
 Number     Number       Type             X           Y           Z
 ---------------------------------------------------------------------
      1          1           0        0.000000    0.000000    0.000000
      2          1           0       -2.900000    0.000000    0.000000
      3          9           0        1.100000    0.000000    0.000000
 ---------------------------------------------------------------------

 SCF Done:  E(UB3LYP) =  -100.948632586     a.u. after    6 cycles

 Alpha  occ. eigenvalues --  -24.64234  -1.13817  -0.49580  -0.38048  -0.38048
 Alpha  occ. eigenvalues --   -0.34460
 Alpha virt. eigenvalues --   -0.02128   0.24399   0.30741   0.93622   0.93622
 Alpha virt. eigenvalues --    0.99640   1.22632   1.23074   1.23074   1.31081
 Alpha virt. eigenvalues --    1.35277   1.35277   1.80158   2.14229   2.32304

  Beta  occ. eigenvalues --  -24.64222  -1.13788  -0.49538  -0.38037  -0.38037
  Beta virt. eigenvalues --   -0.08754  -0.00573   0.30316   0.37775   0.93623
  Beta virt. eigenvalues --    0.93623   0.99659   1.29571   1.35259   1.35259
  Beta virt. eigenvalues --    1.46098   1.46098   1.47356   1.80361   2.32266

 Mulliken charges and spin densities:
               1          2
     1  H    0.337935   0.001067
     2  H    0.003914   0.995137
     3  F   -0.341850   0.003796
 Sum of Mulliken charges =   0.00000   1.00000

 Dipole moment (field-independent basis, Debye):
    X=             -2.2126    Y=              0.0000    Z=             -0.0000  Tot=              2.2126
 Quadrupole moment (field-independent basis, Debye-Ang):
   XX=             -8.4020   YY=             -7.0475   ZZ=             -7.0475
   XY=              0.0000   XZ=             -0.0000   YZ=             -0.0000

  Exact polarizability:       9.249       0.000       2.375      -0.000      -0.000       2.375
 Approx polarizability:      11.569      -0.000       2.341      -0.000       0.000       2.341

 ******    1 imaginary frequencies (negative Signs) ******

                      1                      2                      3
                      A                      A                      A
 Frequencies --    -96.4052              1173.3143              1173.3143
 Red. masses --      1.0527                 1.0325                 1.0325
 Frc consts  --      0.0058                 0.8375                 0.8375
 IR Inten    --      0.5581               150.6512               150.6512

                      4
                      A
 Frequencies --   1931.5494
 Red. masses --      1.0588
 Frc consts  --      2.3275
 IR Inten    --     95.0686

 - Thermochemistry -
 -------------------
 Temperature   298.150 Kelvin.  Pressure   1.00000 Atm.
 Atom     1 has atomic number  1 and mass   1.00783

 Molecular mass:    21.01405 amu.
 Principal axes and moments of inertia in atomic units:
                           1         2         3
     Eigenvalues --     0.00000  57.44943  57.44943
           X            1.00000  -0.00000   0.00000
           Y            0.00000   1.00000   0.00000
           Z            0.00000   0.00000   1.00000
 This molecule is a prolate symmetric top.
 Rotational symmetry number  1.
 Rotational temperature (Kelvin)      1.50766
 Rotational constant (GHZ):          31.414431
    1 imaginary frequencies ignored.
 Zero-point vibrational energy      25589.2 (Joules/Mol)
                                    6.11596 (Kcal/Mol)
 Vibrational temperatures:   1688.14  1688.14  2779.07
          (Kelvin)

 Zero-point correction=                           0.009746 (Hartree/Particle)
 Thermal correction to Energy=                    0.012145
 Thermal correction to Enthalpy=                  0.013089
 Thermal correction to Gibbs Free Energy=        -0.010208
 Sum of electronic and zero-point Energies=           -100.938886
 Sum of electronic and thermal Energies=              -100.936488
 Sum of electronic and thermal Enthalpies=            -100.935543
 Sum of electronic and thermal Free Energies=         -100.958841

                     E (Thermal)             CV                S
                      KCal/Mol        Cal/Mol-Kelvin    Cal/Mol-Kelvin
 Total                    7.621              5.429             49.033
 Electronic               0.000              0.000              1.377
 Translational            0.889              2.981             35.068
 Rotational               0.592              1.987             12.494
 Vibrational              6.140              0.461              0.094

 Normal termination of Gaussian 16 at Fri Aug 22 16:05:55 2025.
