 Gaussian 16, Revision C.01,
 Gaussian 16:  ES64L-G16RevC.01  3-Jul-2019

 -----------------------------------------
 # sp b3lyp/6-311g** Force nosymm scf=(qc)
 -----------------------------------------

 -------------------
 Title Card Required
 -------------------
 Symbolic Z-matrix:
 Charge =  0 Multiplicity = 2

                          Input orientation:
 ---------------------------------------------------------------------
 Center     Atomic      Atomic             Coordinates (Angstroms)
 Number     Number       Type             X           Y           Z
 ---------------------------------------------------------------------
      1          1           0        0.000000    0.000000    0.000000
      2          1           0       -4.000000    0.000000    0.000000
      3          9           0        2.500000    0.000000    0.000000
 ---------------------------------------------------------------------

 SCF Done:  E(UB3LYP) =  -100.767247536     a.u. after   19 cycles

 Alpha  occ. eigenvalues --  -24.71730  -1.17948  -0.50833  -0.42704  -0.42704
 Alpha  occ. eigenvalues --   -0.32731
 Alpha virt. eigenvalues --   -0.10192   0.23465   0.35048   0.89565   0.93618
 Alpha virt. eigenvalues --    0.93618   1.06149   1.24768   1.24768   1.24776
 Alpha virt. eigenvalues --    1.40426   1.40426   1.44795   2.14044   2.37063

  Beta  occ. eigenvalues --  -24.68889  -1.09862  -0.39872  -0.39872  -0.35355
  Beta virt. eigenvalues --   -0.23332  -0.06024   0.23695   0.38109   0.94980
  Beta virt. eigenvalues --    0.94980   0.95828   1.08468   1.22089   1.22089
  Beta virt. eigenvalues --    1.29712   1.46584   1.46718   1.46718   2.12235

 Mulliken charges and spin densities:
               1          2
     1  H    0.090452  -0.897107
     2  H    0.000246   0.999397
     3  F   -0.090698   0.897711
 Sum of Mulliken charges =   0.00000   1.00000

 Dipole moment (field-independent basis, Debye):
    X=             -1.1576    Y=              0.0000    Z=             -0.0000  Tot=              1.1576
 Quadrupole moment (field-independent basis, Debye-Ang):
   XX=             -9.3606   YY=             -7.5665   ZZ=             -7.5665
   XY=             -0.0000   XZ=              0.0000   YZ=             -0.0000

  Exact polarizability:      29.780      -0.000       2.027       0.000      -0.000       2.027
 Approx polarizability:      38.185      -0.000       1.921       0.000       0.000       1.921

 ******    2 imaginary frequencies (negative Signs) ******

                      1                      2                      3
                      A                      A                      A
 Frequencies --   -610.9850               -68.7718               240.5657
 Red. masses --      1.0570                 1.0546                 1.0245
 Frc consts  --      0.2325                 0.0029                 0.0349
 IR Inten    --     80.7891                 0.0318                 8.0271

                      4
                      A
 Frequencies --    240.5657
 Red. masses --      1.0245
 Frc consts  --      0.0349
 IR Inten    --      8.0271

 - Thermochemistry -
 -------------------
 Temperature   298.150 Kelvin.  Pressure   1.00000 Atm.
 Atom     1 has atomic number  1 and mass   1.00783

 Molecular mass:    21.01405 amu.
 Principal axes and moments of inertia in atomic units:
                           1         2         3
     Eigenvalues --     0.00000 160.57075 160.57075
           X            1.00000  -0.00000   0.00000
           Y            0.00000   1.00000   0.00000
           Z            0.00000   0.00000   1.00000
 This molecule is a prolate symmetric top.
 Rotational symmetry number  1.
 Rotational temperature (Kelvin)      0.53941
 Rotational constant (GHZ):          11.239539
    2 imaginary frequencies ignored.
 Zero-point vibrational energy       2877.8 (Joules/Mol)
                                    0.68781 (Kcal/Mol)
 Warning -- explicit consideration of   2 degrees of freedom as
           vibrations may cause significant error
 Vibrational temperatures:    346.12   346.12
          (Kelvin)

 Zero-point correction=                           0.001096 (Hartree/Particle)
 Thermal correction to Energy=                    0.004456
 Thermal correction to Enthalpy=                  0.005400
 Thermal correction to Gibbs Free Energy=        -0.020532
 Sum of electronic and zero-point Energies=           -100.766151
 Sum of electronic and thermal Energies=              -100.762791
 Sum of electronic and thermal Enthalpies=            -100.761847
 Sum of electronic and thermal Free Energies=         -100.787779

                     E (Thermal)             CV                S
                      KCal/Mol        Cal/Mol-Kelvin    Cal/Mol-Kelvin
 Total                    2.796              8.525             54.579
 Electronic               0.000              0.000              1.377
 Translational            0.889              2.981             35.068
 Rotational               0.592              1.987             14.536
 Vibrational              1.315              3.557              3.597
 Vibration     1          0.658              1.778              1.799
 Vibration     2          0.658              1.778              1.799

 Normal termination of Gaussian 16 at Fri Aug 22 17:46:42 2025.
