 Gaussian 16, Revision C.01,
 Gaussian 16:  ES64L-G16RevC.01  3-Jul-2019

 -----------------------------------------
 # sp b3lyp/6-311g** Force nosymm scf=(qc)
 -----------------------------------------

 -------------------
 Title Card Required
 -------------------
 Symbolic Z-matrix:
 Charge =  0 Multiplicity = 2

                          Input orientation:
 ---------------------------------------------------------------------
 Center     Atomic      Atomic             Coordinates (Angstroms)
 Number     Number       Type             X           Y           Z
 ---------------------------------------------------------------------
      1          1           0        0.000000    0.000000    0.000000
      2          1           0       -2.350000    0.000000    0.000000
      3          9           0        1.350000    0.000000    0.000000
 ---------------------------------------------------------------------

 SCF Done:  E(UB3LYP) =  -100.890700120     a.u. after    7 cycles

 Alpha  occ. eigenvalues --  -24.63986  -1.10433  -0.45284  -0.36563  -0.36563
 Alpha  occ. eigenvalues --   -0.35904
 Alpha virt. eigenvalues --   -0.09249   0.23920   0.26962   0.93357   0.93357
 Alpha virt. eigenvalues --    1.02825   1.16034   1.21566   1.21566   1.28980
 Alpha virt. eigenvalues --    1.33763   1.33763   1.72349   2.12102   2.24571

  Beta  occ. eigenvalues --  -24.63856  -1.10096  -0.44766  -0.36442  -0.36442
  Beta virt. eigenvalues --   -0.14151  -0.05318   0.26557   0.35377   0.93332
  Beta virt. eigenvalues --    0.93332   1.03136   1.19352   1.33346   1.33346
  Beta virt. eigenvalues --    1.41831   1.41831   1.44849   1.72560   2.22705

 Mulliken charges and spin densities:
               1          2
     1  H    0.343913  -0.016892
     2  H    0.019124   0.976500
     3  F   -0.363037   0.040392
 Sum of Mulliken charges =  -0.00000   1.00000

 Dipole moment (field-independent basis, Debye):
    X=             -2.6836    Y=              0.0000    Z=             -0.0000  Tot=              2.6836
 Quadrupole moment (field-independent basis, Debye-Ang):
   XX=             -8.8500   YY=             -7.2251   ZZ=             -7.2251
   XY=              0.0000   XZ=             -0.0000   YZ=             -0.0000

  Exact polarizability:      17.845       0.000       2.282      -0.000      -0.000       2.282
 Approx polarizability:      25.113      -0.000       2.226       0.000      -0.000       2.226

 ******    2 imaginary frequencies (negative Signs) ******

                      1                      2                      3
                      A                      A                      A
 Frequencies --  -1037.3763              -217.1594              1100.1492
 Red. masses --      1.0432                 1.0687                 1.0258
 Frc consts  --      0.6614                 0.0297                 0.7315
 IR Inten    --    159.1151                 0.4728               108.5230

                      4
                      A
 Frequencies --   1100.1492
 Red. masses --      1.0258
 Frc consts  --      0.7315
 IR Inten    --    108.5230

 - Thermochemistry -
 -------------------
 Temperature   298.150 Kelvin.  Pressure   1.00000 Atm.
 Atom     1 has atomic number  1 and mass   1.00783

 Molecular mass:    21.01405 amu.
 Principal axes and moments of inertia in atomic units:
                           1         2         3
     Eigenvalues --     0.00000  51.42771  51.42771
           X            1.00000  -0.00000   0.00000
           Y            0.00000   1.00000   0.00000
           Z            0.00000   0.00000   1.00000
 This molecule is a prolate symmetric top.
 Rotational symmetry number  1.
 Rotational temperature (Kelvin)      1.68419
 Rotational constant (GHZ):          35.092776
    2 imaginary frequencies ignored.
 Zero-point vibrational energy      13160.7 (Joules/Mol)
                                    3.14548 (Kcal/Mol)
 Vibrational temperatures:   1582.87  1582.87
          (Kelvin)

 Zero-point correction=                           0.005013 (Hartree/Particle)
 Thermal correction to Energy=                    0.007423
 Thermal correction to Enthalpy=                  0.008367
 Thermal correction to Gibbs Free Energy=        -0.014840
 Sum of electronic and zero-point Energies=           -100.885687
 Sum of electronic and thermal Energies=              -100.883277
 Sum of electronic and thermal Enthalpies=            -100.882333
 Sum of electronic and thermal Free Energies=         -100.905540

                     E (Thermal)             CV                S
                      KCal/Mol        Cal/Mol-Kelvin    Cal/Mol-Kelvin
 Total                    4.658              5.528             48.844
 Electronic               0.000              0.000              1.377
 Translational            0.889              2.981             35.068
 Rotational               0.592              1.987             12.274
 Vibrational              3.177              0.560              0.125

 Normal termination of Gaussian 16 at Fri Aug 22 16:17:51 2025.
