 Gaussian 16, Revision C.01,
 Gaussian 16:  ES64L-G16RevC.01  3-Jul-2019

 -----------------------------------------
 # sp b3lyp/6-311g** Force nosymm scf=(qc)
 -----------------------------------------

 -------------------
 Title Card Required
 -------------------
 Symbolic Z-matrix:
 Charge =  0 Multiplicity = 2

                          Input orientation:
 ---------------------------------------------------------------------
 Center     Atomic      Atomic             Coordinates (Angstroms)
 Number     Number       Type             X           Y           Z
 ---------------------------------------------------------------------
      1          1           0        0.000000    0.000000    0.000000
      2          1           0       -3.550000    0.000000    0.000000
      3          9           0        1.300000    0.000000    0.000000
 ---------------------------------------------------------------------

 SCF Done:  E(UB3LYP) =  -100.901250148     a.u. after    7 cycles

 Alpha  occ. eigenvalues --  -24.64371  -1.11113  -0.46061  -0.37069  -0.37069
 Alpha  occ. eigenvalues --   -0.33856
 Alpha virt. eigenvalues --   -0.08932   0.21411   0.28427   0.93003   0.93003
 Alpha virt. eigenvalues --    1.02061   1.21451   1.23658   1.23658   1.23695
 Alpha virt. eigenvalues --    1.33796   1.33796   1.70548   2.13613   2.24728

  Beta  occ. eigenvalues --  -24.64365  -1.11098  -0.46045  -0.37064  -0.37064
  Beta virt. eigenvalues --   -0.09631  -0.05806   0.25063   0.38452   0.93002
  Beta virt. eigenvalues --    0.93002   1.02077   1.21515   1.33779   1.33779
  Beta virt. eigenvalues --    1.46378   1.46840   1.46840   1.70576   2.24260

 Mulliken charges and spin densities:
               1          2
     1  H    0.358002  -0.000482
     2  H    0.001278   0.998613
     3  F   -0.359280   0.001869
 Sum of Mulliken charges =   0.00000   1.00000

 Dipole moment (field-independent basis, Debye):
    X=             -2.4098    Y=              0.0000    Z=              0.0000  Tot=              2.4098
 Quadrupole moment (field-independent basis, Debye-Ang):
   XX=             -9.2050   YY=             -7.1995   ZZ=             -7.1995
   XY=              0.0000   XZ=              0.0000   YZ=              0.0000

  Exact polarizability:      11.277       0.000       2.279      -0.000      -0.000       2.279
 Approx polarizability:      17.417       0.000       2.223       0.000      -0.000       2.223

 ******    2 imaginary frequencies (negative Signs) ******

                      1                      2                      3
                      A                      A                      A
 Frequencies --   -608.0325               -61.1653              1161.2953
 Red. masses --      1.0566                 1.0550                 1.0331
 Frc consts  --      0.2301                 0.0023                 0.8209
 IR Inten    --     58.5281                 0.0398               136.3079

                      4
                      A
 Frequencies --   1161.2953
 Red. masses --      1.0331
 Frc consts  --      0.8209
 IR Inten    --    136.3079

 - Thermochemistry -
 -------------------
 Temperature   298.150 Kelvin.  Pressure   1.00000 Atm.
 Atom     1 has atomic number  1 and mass   1.00783

 Molecular mass:    21.01405 amu.
 Principal axes and moments of inertia in atomic units:
                           1         2         3
     Eigenvalues --     0.00000  84.21158  84.21158
           X            1.00000  -0.00000   0.00000
           Y            0.00000   1.00000   0.00000
           Z            0.00000   0.00000   1.00000
 This molecule is a prolate symmetric top.
 Rotational symmetry number  1.
 Rotational temperature (Kelvin)      1.02853
 Rotational constant (GHZ):          21.431034
    2 imaginary frequencies ignored.
 Zero-point vibrational energy      13892.2 (Joules/Mol)
                                    3.32031 (Kcal/Mol)
 Vibrational temperatures:   1670.84  1670.84
          (Kelvin)

 Zero-point correction=                           0.005291 (Hartree/Particle)
 Thermal correction to Energy=                    0.007691
 Thermal correction to Enthalpy=                  0.008635
 Thermal correction to Gibbs Free Energy=        -0.015025
 Sum of electronic and zero-point Energies=           -100.895959
 Sum of electronic and thermal Energies=              -100.893559
 Sum of electronic and thermal Enthalpies=            -100.892615
 Sum of electronic and thermal Free Energies=         -100.916275

                     E (Thermal)             CV                S
                      KCal/Mol        Cal/Mol-Kelvin    Cal/Mol-Kelvin
 Total                    4.826              5.431             49.796
 Electronic               0.000              0.000              1.377
 Translational            0.889              2.981             35.068
 Rotational               0.592              1.987             13.254
 Vibrational              3.345              0.463              0.097

 Normal termination of Gaussian 16 at Fri Aug 22 16:16:06 2025.
