 Gaussian 16, Revision C.01,
 Gaussian 16:  ES64L-G16RevC.01  3-Jul-2019

 -----------------------------------------
 # sp b3lyp/6-311g** Force nosymm scf=(qc)
 -----------------------------------------

 -------------------
 Title Card Required
 -------------------
 Symbolic Z-matrix:
 Charge =  0 Multiplicity = 2

                          Input orientation:
 ---------------------------------------------------------------------
 Center     Atomic      Atomic             Coordinates (Angstroms)
 Number     Number       Type             X           Y           Z
 ---------------------------------------------------------------------
      1          1           0        0.000000    0.000000    0.000000
      2          1           0       -3.550000    0.000000    0.000000
      3          9           0        1.350000    0.000000    0.000000
 ---------------------------------------------------------------------

 SCF Done:  E(UB3LYP) =  -100.889166118     a.u. after    7 cycles

 Alpha  occ. eigenvalues --  -24.64372  -1.10661  -0.45287  -0.36877  -0.36877
 Alpha  occ. eigenvalues --   -0.33881
 Alpha virt. eigenvalues --   -0.10443   0.21064   0.28129   0.93022   0.93022
 Alpha virt. eigenvalues --    1.02650   1.18461   1.23633   1.23633   1.23654
 Alpha virt. eigenvalues --    1.33250   1.33250   1.70798   2.13525   2.22934

  Beta  occ. eigenvalues --  -24.64365  -1.10641  -0.45267  -0.36870  -0.36870
  Beta virt. eigenvalues --   -0.10918  -0.06114   0.24445   0.38385   0.93020
  Beta virt. eigenvalues --    0.93020   1.02671   1.18505   1.33225   1.33225
  Beta virt. eigenvalues --    1.46212   1.46673   1.46673   1.70824   2.22424

 Mulliken charges and spin densities:
               1          2
     1  H    0.357813  -0.000975
     2  H    0.001365   0.998531
     3  F   -0.359177   0.002444
 Sum of Mulliken charges =  -0.00000   1.00000

 Dipole moment (field-independent basis, Debye):
    X=             -2.4638    Y=              0.0000    Z=             -0.0000  Tot=              2.4638
 Quadrupole moment (field-independent basis, Debye-Ang):
   XX=             -9.3747   YY=             -7.2326   ZZ=             -7.2326
   XY=              0.0000   XZ=              0.0000   YZ=              0.0000

  Exact polarizability:      12.231       0.000       2.256      -0.000      -0.000       2.256
 Approx polarizability:      19.794      -0.000       2.195      -0.000      -0.000       2.195

 ******    2 imaginary frequencies (negative Signs) ******

                      1                      2                      3
                      A                      A                      A
 Frequencies --   -874.6622               -64.8940              1128.7628
 Red. masses --      1.0574                 1.0542                 1.0325
 Frc consts  --      0.4766                 0.0026                 0.7751
 IR Inten    --     54.3686                 0.0849               131.4281

                      4
                      A
 Frequencies --   1128.7628
 Red. masses --      1.0325
 Frc consts  --      0.7751
 IR Inten    --    131.4281

 - Thermochemistry -
 -------------------
 Temperature   298.150 Kelvin.  Pressure   1.00000 Atm.
 Atom     1 has atomic number  1 and mass   1.00783

 Molecular mass:    21.01405 amu.
 Principal axes and moments of inertia in atomic units:
                           1         2         3
     Eigenvalues --     0.00000  86.22893  86.22893
           X            1.00000  -0.00000   0.00000
           Y            0.00000   1.00000   0.00000
           Z            0.00000   0.00000   1.00000
 This molecule is a prolate symmetric top.
 Rotational symmetry number  1.
 Rotational temperature (Kelvin)      1.00446
 Rotational constant (GHZ):          20.929648
    2 imaginary frequencies ignored.
 Zero-point vibrational energy      13503.0 (Joules/Mol)
                                    3.22729 (Kcal/Mol)
 Vibrational temperatures:   1624.04  1624.04
          (Kelvin)

 Zero-point correction=                           0.005143 (Hartree/Particle)
 Thermal correction to Energy=                    0.007548
 Thermal correction to Enthalpy=                  0.008492
 Thermal correction to Gibbs Free Energy=        -0.015196
 Sum of electronic and zero-point Energies=           -100.884023
 Sum of electronic and thermal Energies=              -100.881618
 Sum of electronic and thermal Enthalpies=            -100.880674
 Sum of electronic and thermal Free Energies=         -100.904363

                     E (Thermal)             CV                S
                      KCal/Mol        Cal/Mol-Kelvin    Cal/Mol-Kelvin
 Total                    4.736              5.481             49.857
 Electronic               0.000              0.000              1.377
 Translational            0.889              2.981             35.068
 Rotational               0.592              1.987             13.301
 Vibrational              3.255              0.513              0.111

 Normal termination of Gaussian 16 at Fri Aug 22 16:18:39 2025.
