 Gaussian 16, Revision C.01,
 Gaussian 16:  ES64L-G16RevC.01  3-Jul-2019

 -----------------------------------------
 # sp b3lyp/6-311g** Force nosymm scf=(qc)
 -----------------------------------------

 -------------------
 Title Card Required
 -------------------
 Symbolic Z-matrix:
 Charge =  0 Multiplicity = 2

                          Input orientation:
 ---------------------------------------------------------------------
 Center     Atomic      Atomic             Coordinates (Angstroms)
 Number     Number       Type             X           Y           Z
 ---------------------------------------------------------------------
      1          1           0        0.000000    0.000000    0.000000
      2          1           0       -3.050000    0.000000    0.000000
      3          9           0        1.500000    0.000000    0.000000
 ---------------------------------------------------------------------

 SCF Done:  E(UB3LYP) =  -100.854963782     a.u. after    8 cycles

 Alpha  occ. eigenvalues --  -24.64291  -1.09692  -0.43258  -0.36381  -0.36381
 Alpha  occ. eigenvalues --   -0.34563
 Alpha virt. eigenvalues --   -0.14260   0.21103   0.27609   0.93590   0.93590
 Alpha virt. eigenvalues --    1.03496   1.09925   1.22952   1.22952   1.23402
 Alpha virt. eigenvalues --    1.31385   1.31385   1.73578   2.13669   2.19087

  Beta  occ. eigenvalues --  -24.64198  -1.09448  -0.43025  -0.36293  -0.36293
  Beta virt. eigenvalues --   -0.15049  -0.07285   0.23954   0.37388   0.93553
  Beta virt. eigenvalues --    0.93553   1.03734   1.09978   1.30954   1.30954
  Beta virt. eigenvalues --    1.44663   1.45030   1.45030   1.73490   2.18450

 Mulliken charges and spin densities:
               1          2
     1  H    0.345592  -0.023168
     2  H    0.005654   0.993878
     3  F   -0.351246   0.029291
 Sum of Mulliken charges =  -0.00000   1.00000

 Dipole moment (field-independent basis, Debye):
    X=             -2.6713    Y=             -0.0000    Z=              0.0000  Tot=              2.6713
 Quadrupole moment (field-independent basis, Debye-Ang):
   XX=             -9.7191   YY=             -7.3237   ZZ=             -7.3237
   XY=             -0.0000   XZ=              0.0000   YZ=              0.0000

  Exact polarizability:      17.520      -0.000       2.191       0.000       0.000       2.191
 Approx polarizability:      30.786      -0.000       2.117       0.000      -0.000       2.117

 ******    2 imaginary frequencies (negative Signs) ******

                      1                      2                      3
                      A                      A                      A
 Frequencies --  -1189.3223              -138.1584              1007.1075
 Red. masses --      1.0554                 1.0561                 1.0283
 Frc consts  --      0.8796                 0.0119                 0.6145
 IR Inten    --     62.1508                 0.9286               112.1127

                      4
                      A
 Frequencies --   1007.1075
 Red. masses --      1.0283
 Frc consts  --      0.6145
 IR Inten    --    112.1127

 - Thermochemistry -
 -------------------
 Temperature   298.150 Kelvin.  Pressure   1.00000 Atm.
 Atom     1 has atomic number  1 and mass   1.00783

 Molecular mass:    21.01405 amu.
 Principal axes and moments of inertia in atomic units:
                           1         2         3
     Eigenvalues --     0.00000  76.28840  76.28840
           X            1.00000  -0.00000   0.00000
           Y            0.00000   1.00000   0.00000
           Z            0.00000   0.00000   1.00000
 This molecule is a prolate symmetric top.
 Rotational symmetry number  1.
 Rotational temperature (Kelvin)      1.13535
 Rotational constant (GHZ):          23.656824
    2 imaginary frequencies ignored.
 Zero-point vibrational energy      12047.7 (Joules/Mol)
                                    2.87946 (Kcal/Mol)
 Vibrational temperatures:   1449.00  1449.00
          (Kelvin)

 Zero-point correction=                           0.004589 (Hartree/Particle)
 Thermal correction to Energy=                    0.007021
 Thermal correction to Enthalpy=                  0.007965
 Thermal correction to Gibbs Free Energy=        -0.015642
 Sum of electronic and zero-point Energies=           -100.850375
 Sum of electronic and thermal Energies=              -100.847943
 Sum of electronic and thermal Enthalpies=            -100.846999
 Sum of electronic and thermal Free Energies=         -100.870605

                     E (Thermal)             CV                S
                      KCal/Mol        Cal/Mol-Kelvin    Cal/Mol-Kelvin
 Total                    4.406              5.707             49.684
 Electronic               0.000              0.000              1.377
 Translational            0.889              2.981             35.068
 Rotational               0.592              1.987             13.057
 Vibrational              2.924              0.739              0.182

 Normal termination of Gaussian 16 at Fri Aug 22 16:26:19 2025.
