 Gaussian 16, Revision C.01,
 Gaussian 16:  ES64L-G16RevC.01  3-Jul-2019

 -----------------------------------------
 # sp b3lyp/6-311g** Force nosymm scf=(qc)
 -----------------------------------------

 -------------------
 Title Card Required
 -------------------
 Symbolic Z-matrix:
 Charge =  0 Multiplicity = 2

                          Input orientation:
 ---------------------------------------------------------------------
 Center     Atomic      Atomic             Coordinates (Angstroms)
 Number     Number       Type             X           Y           Z
 ---------------------------------------------------------------------
      1          1           0        0.000000    0.000000    0.000000
      2          1           0       -1.100000    0.000000    0.000000
      3          9           0        1.350000    0.000000    0.000000
 ---------------------------------------------------------------------

 SCF Done:  E(UB3LYP) =  -100.926104769     a.u. after    8 cycles

 Alpha  occ. eigenvalues --  -24.66448  -1.14179  -0.52560  -0.39038  -0.39030
 Alpha  occ. eigenvalues --   -0.39030
 Alpha virt. eigenvalues --    0.03294   0.19609   0.33017   0.90538   0.90538
 Alpha virt. eigenvalues --    0.99691   1.08495   1.08495   1.20489   1.57400
 Alpha virt. eigenvalues --    1.57400   1.60919   2.16398   2.30016   2.45253

  Beta  occ. eigenvalues --  -24.64717  -1.09587  -0.45135  -0.37386  -0.37386
  Beta virt. eigenvalues --   -0.22311   0.06200   0.21804   0.35720   0.91376
  Beta virt. eigenvalues --    0.91376   1.03750   1.13104   1.13104   1.25028
  Beta virt. eigenvalues --    1.60042   1.60042   1.64542   2.22742   2.32670

 Mulliken charges and spin densities:
               1          2
     1  H    0.227704  -0.105573
     2  H    0.055156   0.587657
     3  F   -0.282860   0.517916
 Sum of Mulliken charges =   0.00000   1.00000

 Dipole moment (field-independent basis, Debye):
    X=             -2.2240    Y=             -0.0000    Z=              0.0000  Tot=              2.2240
 Quadrupole moment (field-independent basis, Debye-Ang):
   XX=             -7.6781   YY=             -6.9802   ZZ=             -6.9802
   XY=             -0.0000   XZ=              0.0000   YZ=              0.0000

  Exact polarizability:      26.590      -0.000       2.444      -0.000       0.000       2.444
 Approx polarizability:      38.389      -0.000       2.426       0.000      -0.000       2.426

 ******    1 imaginary frequencies (negative Signs) ******

                      1                      2                      3
                      A                      A                      A
 Frequencies --  -2507.7727               791.1194              1168.0663
 Red. masses --      1.0276                 1.0855                 1.0157
 Frc consts  --      3.8077                 0.4003                 0.8164
 IR Inten    --    626.4922                55.3686                17.0765

                      4
                      A
 Frequencies --   1168.0663
 Red. masses --      1.0157
 Frc consts  --      0.8164
 IR Inten    --     17.0765

 - Thermochemistry -
 -------------------
 Temperature   298.150 Kelvin.  Pressure   1.00000 Atm.
 Atom     1 has atomic number  1 and mass   1.00783

 Molecular mass:    21.01405 amu.
 Principal axes and moments of inertia in atomic units:
                           1         2         3
     Eigenvalues --     0.00000  25.66980  25.66980
           X            1.00000  -0.00000   0.00000
           Y            0.00000   1.00000   0.00000
           Z            0.00000   0.00000   1.00000
 This molecule is a prolate symmetric top.
 Rotational symmetry number  1.
 Rotational temperature (Kelvin)      3.37416
 Rotational constant (GHZ):          70.306015
    1 imaginary frequencies ignored.
 Zero-point vibrational energy      18705.1 (Joules/Mol)
                                    4.47063 (Kcal/Mol)
 Vibrational temperatures:   1138.24  1680.59  1680.59
          (Kelvin)

 Zero-point correction=                           0.007124 (Hartree/Particle)
 Thermal correction to Energy=                    0.009604
 Thermal correction to Enthalpy=                  0.010548
 Thermal correction to Gibbs Free Energy=        -0.012091
 Sum of electronic and zero-point Energies=           -100.918980
 Sum of electronic and thermal Energies=              -100.916501
 Sum of electronic and thermal Enthalpies=            -100.915557
 Sum of electronic and thermal Free Energies=         -100.938195

                     E (Thermal)             CV                S
                      KCal/Mol        Cal/Mol-Kelvin    Cal/Mol-Kelvin
 Total                    6.027              6.087             47.647
 Electronic               0.000              0.000              1.377
 Translational            0.889              2.981             35.068
 Rotational               0.592              1.987             10.893
 Vibrational              4.545              1.119              0.309

 Normal termination of Gaussian 16 at Fri Aug 22 16:16:52 2025.
