 Gaussian 16, Revision C.01,
 Gaussian 16:  ES64L-G16RevC.01  3-Jul-2019

 -----------------------------------------
 # sp b3lyp/6-311g** Force nosymm scf=(qc)
 -----------------------------------------

 -------------------
 Title Card Required
 -------------------
 Symbolic Z-matrix:
 Charge =  0 Multiplicity = 2

                          Input orientation:
 ---------------------------------------------------------------------
 Center     Atomic      Atomic             Coordinates (Angstroms)
 Number     Number       Type             X           Y           Z
 ---------------------------------------------------------------------
      1          1           0        0.000000    0.000000    0.000000
      2          1           0       -2.200000    0.000000    0.000000
      3          9           0        1.150000    0.000000    0.000000
 ---------------------------------------------------------------------

 SCF Done:  E(UB3LYP) =  -100.938596671     a.u. after    6 cycles

 Alpha  occ. eigenvalues --  -24.63951  -1.12738  -0.48626  -0.37490  -0.37490
 Alpha  occ. eigenvalues --   -0.35958
 Alpha virt. eigenvalues --   -0.02217   0.24461   0.29576   0.93648   0.93648
 Alpha virt. eigenvalues --    1.00260   1.16592   1.21515   1.21515   1.35317
 Alpha virt. eigenvalues --    1.35317   1.40851   1.75698   2.12553   2.31966

  Beta  occ. eigenvalues --  -24.63871  -1.12537  -0.48231  -0.37418  -0.37418
  Beta virt. eigenvalues --   -0.12712   0.00502   0.29510   0.35375   0.93648
  Beta virt. eigenvalues --    0.93648   1.00516   1.25127   1.35037   1.35037
  Beta virt. eigenvalues --    1.41745   1.41745   1.51546   1.75846   2.29298

 Mulliken charges and spin densities:
               1          2
     1  H    0.335371  -0.000843
     2  H    0.016769   0.977005
     3  F   -0.352140   0.023838
 Sum of Mulliken charges =  -0.00000   1.00000

 Dipole moment (field-independent basis, Debye):
    X=             -2.4219    Y=              0.0000    Z=              0.0000  Tot=              2.4219
 Quadrupole moment (field-independent basis, Debye-Ang):
   XX=             -8.2443   YY=             -7.0683   ZZ=             -7.0683
   XY=              0.0000   XZ=              0.0000   YZ=              0.0000

  Exact polarizability:      13.099       0.000       2.386      -0.000      -0.000       2.386
 Approx polarizability:      15.857      -0.000       2.352       0.000      -0.000       2.352

 ******    1 imaginary frequencies (negative Signs) ******

                      1                      2                      3
                      A                      A                      A
 Frequencies --   -216.5297              1170.8979              1170.8979
 Red. masses --      1.0466                 1.0273                 1.0273
 Frc consts  --      0.0289                 0.8299                 0.8299
 IR Inten    --      8.5338               125.4323               125.4323

                      4
                      A
 Frequencies --   1375.7385
 Red. masses --      1.0651
 Frc consts  --      1.1877
 IR Inten    --    163.1297

 - Thermochemistry -
 -------------------
 Temperature   298.150 Kelvin.  Pressure   1.00000 Atm.
 Atom     1 has atomic number  1 and mass   1.00783

 Molecular mass:    21.01405 amu.
 Principal axes and moments of inertia in atomic units:
                           1         2         3
     Eigenvalues --     0.00000  41.65427  41.65427
           X            1.00000  -0.00000   0.00000
           Y            0.00000   1.00000   0.00000
           Z            0.00000   0.00000   1.00000
 This molecule is a prolate symmetric top.
 Rotational symmetry number  1.
 Rotational temperature (Kelvin)      2.07935
 Rotational constant (GHZ):          43.326677
    1 imaginary frequencies ignored.
 Zero-point vibrational energy      22235.8 (Joules/Mol)
                                    5.31448 (Kcal/Mol)
 Vibrational temperatures:   1684.66  1684.66  1979.38
          (Kelvin)

 Zero-point correction=                           0.008469 (Hartree/Particle)
 Thermal correction to Energy=                    0.010875
 Thermal correction to Enthalpy=                  0.011820
 Thermal correction to Gibbs Free Energy=        -0.011183
 Sum of electronic and zero-point Energies=           -100.930128
 Sum of electronic and thermal Energies=              -100.927721
 Sum of electronic and thermal Enthalpies=            -100.926777
 Sum of electronic and thermal Free Energies=         -100.949780

                     E (Thermal)             CV                S
                      KCal/Mol        Cal/Mol-Kelvin    Cal/Mol-Kelvin
 Total                    6.824              5.532             48.413
 Electronic               0.000              0.000              1.377
 Translational            0.889              2.981             35.068
 Rotational               0.592              1.987             11.855
 Vibrational              5.343              0.564              0.113

 Normal termination of Gaussian 16 at Fri Aug 22 16:07:52 2025.
