 Gaussian 16, Revision C.01,
 Gaussian 16:  ES64L-G16RevC.01  3-Jul-2019

 -----------------------------------------
 # sp b3lyp/6-311g** Force nosymm scf=(qc)
 -----------------------------------------

 -------------------
 Title Card Required
 -------------------
 Symbolic Z-matrix:
 Charge =  0 Multiplicity = 2

                          Input orientation:
 ---------------------------------------------------------------------
 Center     Atomic      Atomic             Coordinates (Angstroms)
 Number     Number       Type             X           Y           Z
 ---------------------------------------------------------------------
      1          1           0        0.000000    0.000000    0.000000
      2          1           0       -2.600000    0.000000    0.000000
      3          9           0        3.900000    0.000000    0.000000
 ---------------------------------------------------------------------

 SCF Done:  E(UB3LYP) =  -100.761600067     a.u. after   37 cycles

 Alpha  occ. eigenvalues --  -24.75855  -1.21785  -0.54980  -0.46164  -0.46164
 Alpha  occ. eigenvalues --   -0.32489
 Alpha virt. eigenvalues --   -0.08875   0.25672   0.35113   0.86679   0.91182
 Alpha virt. eigenvalues --    0.91182   1.01137   1.25126   1.25126   1.26627
 Alpha virt. eigenvalues --    1.42408   1.42408   1.43434   2.16047   2.37494

  Beta  occ. eigenvalues --  -24.72713  -1.12748  -0.43013  -0.43013  -0.32650
  Beta virt. eigenvalues --   -0.25728  -0.08644   0.25508   0.35423   0.92681
  Beta virt. eigenvalues --    0.92681   0.96040   1.05259   1.24949   1.24949
  Beta virt. eigenvalues --    1.26427   1.42743   1.42743   1.43767   2.16154

 Mulliken charges and spin densities:
               1          2
     1  H    0.002273  -0.973708
     2  H    0.000816   0.977211
     3  F   -0.003088   0.996496
 Sum of Mulliken charges =   0.00000   1.00000

 Dipole moment (field-independent basis, Debye):
    X=             -0.0722    Y=              0.0000    Z=             -0.0000  Tot=              0.0722
 Quadrupole moment (field-independent basis, Debye-Ang):
   XX=             -6.7744   YY=             -7.6589   ZZ=             -7.6589
   XY=              0.0000   XZ=             -0.0000   YZ=             -0.0000

  Exact polarizability:      19.627      -0.000       2.023      -0.000      -0.000       2.023
 Approx polarizability:      14.771       0.000       1.932      -0.000      -0.000       1.932

 ******    2 imaginary frequencies (negative Signs) ******

                      1                      2                      3
                      A                      A                      A
 Frequencies --   -572.9293               -80.1365               210.2488
 Red. masses --      1.0079                 1.1085                 1.0138
 Frc consts  --      0.1949                 0.0042                 0.0264
 IR Inten    --      0.9009                 1.0235                 0.0036

                      4
                      A
 Frequencies --    210.2488
 Red. masses --      1.0138
 Frc consts  --      0.0264
 IR Inten    --      0.0036

 - Thermochemistry -
 -------------------
 Temperature   298.150 Kelvin.  Pressure   1.00000 Atm.
 Atom     1 has atomic number  1 and mass   1.00783

 Molecular mass:    21.01405 amu.
 Principal axes and moments of inertia in atomic units:
                           1         2         3
     Eigenvalues --     0.00000 188.12987 188.12987
           X            1.00000  -0.00000   0.00000
           Y            0.00000   1.00000   0.00000
           Z            0.00000   0.00000   1.00000
 This molecule is a prolate symmetric top.
 Rotational symmetry number  1.
 Rotational temperature (Kelvin)      0.46039
 Rotational constant (GHZ):           9.593061
    2 imaginary frequencies ignored.
 Zero-point vibrational energy       2515.1 (Joules/Mol)
                                    0.60113 (Kcal/Mol)
 Warning -- explicit consideration of   2 degrees of freedom as
           vibrations may cause significant error
 Vibrational temperatures:    302.50   302.50
          (Kelvin)

 Zero-point correction=                           0.000958 (Hartree/Particle)
 Thermal correction to Energy=                    0.004408
 Thermal correction to Enthalpy=                  0.005352
 Thermal correction to Gibbs Free Energy=        -0.020960
 Sum of electronic and zero-point Energies=           -100.760642
 Sum of electronic and thermal Energies=              -100.757192
 Sum of electronic and thermal Enthalpies=            -100.756248
 Sum of electronic and thermal Free Energies=         -100.782560

                     E (Thermal)             CV                S
                      KCal/Mol        Cal/Mol-Kelvin    Cal/Mol-Kelvin
 Total                    2.766              8.618             55.379
 Electronic               0.000              0.000              1.377
 Translational            0.889              2.981             35.068
 Rotational               0.592              1.987             14.851
 Vibrational              1.285              3.650              4.083
 Vibration     1          0.642              1.825              2.042
 Vibration     2          0.642              1.825              2.042

 Normal termination of Gaussian 16 at Sat Aug 23 01:25:31 2025.
