 Gaussian 16, Revision C.01,
 Gaussian 16:  ES64L-G16RevC.01  3-Jul-2019

 -----------------------------------------
 # sp b3lyp/6-311g** Force nosymm scf=(qc)
 -----------------------------------------

 -------------------
 Title Card Required
 -------------------
 Symbolic Z-matrix:
 Charge =  0 Multiplicity = 2

                          Input orientation:
 ---------------------------------------------------------------------
 Center     Atomic      Atomic             Coordinates (Angstroms)
 Number     Number       Type             X           Y           Z
 ---------------------------------------------------------------------
      1          1           0        0.000000    0.000000    0.000000
      2          1           0       -3.600000    0.000000    0.000000
      3          9           0        1.300000    0.000000    0.000000
 ---------------------------------------------------------------------

 SCF Done:  E(UB3LYP) =  -100.901241548     a.u. after    7 cycles

 Alpha  occ. eigenvalues --  -24.64374  -1.11115  -0.46062  -0.37072  -0.37072
 Alpha  occ. eigenvalues --   -0.33812
 Alpha virt. eigenvalues --   -0.08941   0.21386   0.28387   0.93001   0.93001
 Alpha virt. eigenvalues --    1.02059   1.21429   1.23701   1.23701   1.23720
 Alpha virt. eigenvalues --    1.33792   1.33792   1.70510   2.13556   2.24728

  Beta  occ. eigenvalues --  -24.64369  -1.11101  -0.46048  -0.37067  -0.37067
  Beta virt. eigenvalues --   -0.09568  -0.05795   0.25024   0.38483   0.92999
  Beta virt. eigenvalues --    0.92999   1.02074   1.21482   1.33777   1.33777
  Beta virt. eigenvalues --    1.46482   1.46924   1.46924   1.70537   2.24195

 Mulliken charges and spin densities:
               1          2
     1  H    0.358116  -0.000436
     2  H    0.001136   0.998771
     3  F   -0.359252   0.001664
 Sum of Mulliken charges =   0.00000   1.00000

 Dipole moment (field-independent basis, Debye):
    X=             -2.4074    Y=              0.0000    Z=             -0.0000  Tot=              2.4074
 Quadrupole moment (field-independent basis, Debye-Ang):
   XX=             -9.2140   YY=             -7.1995   ZZ=             -7.1995
   XY=              0.0000   XZ=             -0.0000   YZ=             -0.0000

  Exact polarizability:      11.195       0.000       2.279      -0.000      -0.000       2.279
 Approx polarizability:      17.346      -0.000       2.223      -0.000       0.000       2.223

 ******    2 imaginary frequencies (negative Signs) ******

                      1                      2                      3
                      A                      A                      A
 Frequencies --   -606.8649               -57.1885              1162.1088
 Red. masses --      1.0568                 1.0547                 1.0333
 Frc consts  --      0.2293                 0.0020                 0.8222
 IR Inten    --     57.7074                 0.0350               136.6467

                      4
                      A
 Frequencies --   1162.1088
 Red. masses --      1.0333
 Frc consts  --      0.8222
 IR Inten    --    136.6467

 - Thermochemistry -
 -------------------
 Temperature   298.150 Kelvin.  Pressure   1.00000 Atm.
 Atom     1 has atomic number  1 and mass   1.00783

 Molecular mass:    21.01405 amu.
 Principal axes and moments of inertia in atomic units:
                           1         2         3
     Eigenvalues --     0.00000  85.85951  85.85951
           X            1.00000  -0.00000   0.00000
           Y            0.00000   1.00000   0.00000
           Z            0.00000   0.00000   1.00000
 This molecule is a prolate symmetric top.
 Rotational symmetry number  1.
 Rotational temperature (Kelvin)      1.00879
 Rotational constant (GHZ):          21.019701
    2 imaginary frequencies ignored.
 Zero-point vibrational energy      13901.9 (Joules/Mol)
                                    3.32264 (Kcal/Mol)
 Vibrational temperatures:   1672.02  1672.02
          (Kelvin)

 Zero-point correction=                           0.005295 (Hartree/Particle)
 Thermal correction to Energy=                    0.007694
 Thermal correction to Enthalpy=                  0.008639
 Thermal correction to Gibbs Free Energy=        -0.015039
 Sum of electronic and zero-point Energies=           -100.895947
 Sum of electronic and thermal Energies=              -100.893547
 Sum of electronic and thermal Enthalpies=            -100.892603
 Sum of electronic and thermal Free Energies=         -100.916281

                     E (Thermal)             CV                S
                      KCal/Mol        Cal/Mol-Kelvin    Cal/Mol-Kelvin
 Total                    4.828              5.430             49.834
 Electronic               0.000              0.000              1.377
 Translational            0.889              2.981             35.068
 Rotational               0.592              1.987             13.292
 Vibrational              3.347              0.462              0.097

 Normal termination of Gaussian 16 at Fri Aug 22 16:16:08 2025.
