 Gaussian 16, Revision C.01,
 Gaussian 16:  ES64L-G16RevC.01  3-Jul-2019

 -----------------------------------------
 # sp b3lyp/6-311g** Force nosymm scf=(qc)
 -----------------------------------------

 -------------------
 Title Card Required
 -------------------
 Symbolic Z-matrix:
 Charge =  0 Multiplicity = 2

                          Input orientation:
 ---------------------------------------------------------------------
 Center     Atomic      Atomic             Coordinates (Angstroms)
 Number     Number       Type             X           Y           Z
 ---------------------------------------------------------------------
      1          1           0        0.000000    0.000000    0.000000
      2          1           0       -3.250000    0.000000    0.000000
      3          9           0        3.600000    0.000000    0.000000
 ---------------------------------------------------------------------

 SCF Done:  E(UB3LYP) =  -100.759278138     a.u. after   35 cycles

 Alpha  occ. eigenvalues --  -24.75543  -1.21494  -0.54666  -0.45898  -0.45898
 Alpha  occ. eigenvalues --   -0.32356
 Alpha virt. eigenvalues --   -0.07365   0.24603   0.36760   0.87314   0.91383
 Alpha virt. eigenvalues --    0.91383   1.01583   1.25160   1.25160   1.25509
 Alpha virt. eigenvalues --    1.44657   1.44844   1.44844   2.15403   2.40402

  Beta  occ. eigenvalues --  -24.72419  -1.12516  -0.42767  -0.42767  -0.32737
  Beta virt. eigenvalues --   -0.25564  -0.06923   0.24386   0.37484   0.92875
  Beta virt. eigenvalues --    0.92875   0.96521   1.05631   1.24725   1.24725
  Beta virt. eigenvalues --    1.25049   1.45338   1.45551   1.45551   2.15584

 Mulliken charges and spin densities:
               1          2
     1  H    0.008343  -0.986495
     2  H    0.000285   0.996026
     3  F   -0.008628   0.990468
 Sum of Mulliken charges =  -0.00000   1.00000

 Dipole moment (field-independent basis, Debye):
    X=             -0.1643    Y=             -0.0000    Z=              0.0000  Tot=              0.1643
 Quadrupole moment (field-independent basis, Debye-Ang):
   XX=             -7.2281   YY=             -7.6275   ZZ=             -7.6275
   XY=              0.0000   XZ=             -0.0000   YZ=              0.0000

  Exact polarizability:      21.880       0.000       2.042      -0.000      -0.000       2.042
 Approx polarizability:      16.650       0.000       1.933      -0.000      -0.000       1.933

 ******    2 imaginary frequencies (negative Signs) ******

                      1                      2                      3
                      A                      A                      A
 Frequencies --   -275.5758              -110.9447                85.6832
 Red. masses --      1.0142                 1.1009                 1.0168
 Frc consts  --      0.0454                 0.0080                 0.0044
 IR Inten    --      5.8755                 2.2038                 0.0515

                      4
                      A
 Frequencies --     85.6832
 Red. masses --      1.0168
 Frc consts  --      0.0044
 IR Inten    --      0.0515

 - Thermochemistry -
 -------------------
 Temperature   298.150 Kelvin.  Pressure   1.00000 Atm.
 Atom     1 has atomic number  1 and mass   1.00783

 Molecular mass:    21.01405 amu.
 Principal axes and moments of inertia in atomic units:
                           1         2         3
     Eigenvalues --     0.00000 196.66852 196.66852
           X            1.00000  -0.00000   0.00000
           Y            0.00000   1.00000   0.00000
           Z            0.00000   0.00000   1.00000
 This molecule is a prolate symmetric top.
 Rotational symmetry number  1.
 Rotational temperature (Kelvin)      0.44041
 Rotational constant (GHZ):           9.176564
    2 imaginary frequencies ignored.
 Zero-point vibrational energy       1025.0 (Joules/Mol)
                                    0.24498 (Kcal/Mol)
 Warning -- explicit consideration of   2 degrees of freedom as
           vibrations may cause significant error
 Vibrational temperatures:    123.28   123.28
          (Kelvin)

 Zero-point correction=                           0.000390 (Hartree/Particle)
 Thermal correction to Energy=                    0.004276
 Thermal correction to Enthalpy=                  0.005220
 Thermal correction to Gibbs Free Energy=        -0.022764
 Sum of electronic and zero-point Energies=           -100.758888
 Sum of electronic and thermal Energies=              -100.755002
 Sum of electronic and thermal Enthalpies=            -100.754058
 Sum of electronic and thermal Free Energies=         -100.782042

                     E (Thermal)             CV                S
                      KCal/Mol        Cal/Mol-Kelvin    Cal/Mol-Kelvin
 Total                    2.683              8.886             58.897
 Electronic               0.000              0.000              1.377
 Translational            0.889              2.981             35.068
 Rotational               0.592              1.987             14.939
 Vibrational              1.202              3.918              7.513
 Vibration     1          0.601              1.959              3.756
 Vibration     2          0.601              1.959              3.756

 Normal termination of Gaussian 16 at Fri Aug 22 23:07:32 2025.
