 Gaussian 16, Revision C.01,
 Gaussian 16:  ES64L-G16RevC.01  3-Jul-2019

 -----------------------------------------
 # sp b3lyp/6-311g** Force nosymm scf=(qc)
 -----------------------------------------

 -------------------
 Title Card Required
 -------------------
 Symbolic Z-matrix:
 Charge =  0 Multiplicity = 2

                          Input orientation:
 ---------------------------------------------------------------------
 Center     Atomic      Atomic             Coordinates (Angstroms)
 Number     Number       Type             X           Y           Z
 ---------------------------------------------------------------------
      1          1           0        0.000000    0.000000    0.000000
      2          1           0       -2.250000    0.000000    0.000000
      3          9           0        0.900000    0.000000    0.000000
 ---------------------------------------------------------------------

 SCF Done:  E(UB3LYP) =  -100.971893824     a.u. after    5 cycles

 Alpha  occ. eigenvalues --  -24.63821  -1.18905  -0.53833  -0.39504  -0.39504
 Alpha  occ. eigenvalues --   -0.35312
 Alpha virt. eigenvalues --    0.05360   0.24945   0.39207   0.94472   0.94472
 Alpha virt. eigenvalues --    0.97503   1.16500   1.22220   1.22220   1.37431
 Alpha virt. eigenvalues --    1.37431   1.45140   1.99136   2.15255   2.37475

  Beta  occ. eigenvalues --  -24.63790  -1.18826  -0.53683  -0.39478  -0.39478
  Beta virt. eigenvalues --   -0.10577   0.07187   0.36314   0.39187   0.94476
  Beta virt. eigenvalues --    0.94476   0.97788   1.26113   1.37302   1.37302
  Beta virt. eigenvalues --    1.43002   1.43002   1.55805   2.00078   2.37221

 Mulliken charges and spin densities:
               1          2
     1  H    0.287454   0.005162
     2  H    0.009244   0.986107
     3  F   -0.296698   0.008731
 Sum of Mulliken charges =   0.00000   1.00000

 Dipole moment (field-independent basis, Debye):
    X=             -1.9936    Y=             -0.0000    Z=              0.0000  Tot=              1.9936
 Quadrupole moment (field-independent basis, Debye-Ang):
   XX=             -7.6157   YY=             -6.8508   ZZ=             -6.8508
   XY=             -0.0000   XZ=              0.0000   YZ=              0.0000

  Exact polarizability:       8.164       0.000       2.468      -0.000      -0.000       2.468
 Approx polarizability:       8.726      -0.000       2.452      -0.000      -0.000       2.452

 ******    2 imaginary frequencies (negative Signs) ******

                      1                      2                      3
                      A                      A                      A
 Frequencies --   -629.5057              -629.5057               116.3004
 Red. masses --      1.0317                 1.0317                 1.0531
 Frc consts  --      0.2409                 0.2409                 0.0084
 IR Inten    --    159.1366               159.1366                 1.0246

                      4
                      A
 Frequencies --   4418.4904
 Red. masses --      1.0585
 Frc consts  --     12.1756
 IR Inten    --    147.2717

 - Thermochemistry -
 -------------------
 Temperature   298.150 Kelvin.  Pressure   1.00000 Atm.
 Atom     1 has atomic number  1 and mass   1.00783

 Molecular mass:    21.01405 amu.
 Principal axes and moments of inertia in atomic units:
                           1         2         3
     Eigenvalues --     0.00000  35.79517  35.79517
           X            1.00000  -0.00000   0.00000
           Y            0.00000   1.00000   0.00000
           Z            0.00000   0.00000   1.00000
 This molecule is a prolate symmetric top.
 Rotational symmetry number  1.
 Rotational temperature (Kelvin)      2.41971
 Rotational constant (GHZ):          50.418562
    2 imaginary frequencies ignored.
 Zero-point vibrational energy      27124.1 (Joules/Mol)
                                    6.48281 (Kcal/Mol)
 Warning -- explicit consideration of   1 degrees of freedom as
           vibrations may cause significant error
 Vibrational temperatures:    167.33  6357.22
          (Kelvin)

 Zero-point correction=                           0.010331 (Hartree/Particle)
 Thermal correction to Energy=                    0.013395
 Thermal correction to Enthalpy=                  0.014340
 Thermal correction to Gibbs Free Energy=        -0.009968
 Sum of electronic and zero-point Energies=           -100.961563
 Sum of electronic and thermal Energies=              -100.958498
 Sum of electronic and thermal Enthalpies=            -100.957554
 Sum of electronic and thermal Free Energies=         -100.981862

                     E (Thermal)             CV                S
                      KCal/Mol        Cal/Mol-Kelvin    Cal/Mol-Kelvin
 Total                    8.406              6.904             51.160
 Electronic               0.000              0.000              1.377
 Translational            0.889              2.981             35.068
 Rotational               0.592              1.987             11.554
 Vibrational              6.925              1.936              3.161
 Vibration     1          0.608              1.936              3.161

 Normal termination of Gaussian 16 at Fri Aug 22 15:55:59 2025.
