 Gaussian 16, Revision C.01,
 Gaussian 16:  ES64L-G16RevC.01  3-Jul-2019

 -----------------------------------------
 # sp b3lyp/6-311g** Force nosymm scf=(qc)
 -----------------------------------------

 -------------------
 Title Card Required
 -------------------
 Symbolic Z-matrix:
 Charge =  0 Multiplicity = 2

                          Input orientation:
 ---------------------------------------------------------------------
 Center     Atomic      Atomic             Coordinates (Angstroms)
 Number     Number       Type             X           Y           Z
 ---------------------------------------------------------------------
      1          1           0        0.000000    0.000000    0.000000
      2          1           0       -2.500000    0.000000    0.000000
      3          9           0        2.800000    0.000000    0.000000
 ---------------------------------------------------------------------

 SCF Done:  E(UB3LYP) =  -100.766538091     a.u. after   20 cycles

 Alpha  occ. eigenvalues --  -24.73336  -1.19445  -0.52449  -0.44042  -0.44042
 Alpha  occ. eigenvalues --   -0.33320
 Alpha virt. eigenvalues --   -0.10975   0.25172   0.33424   0.90129   0.92727
 Alpha virt. eigenvalues --    0.92727   1.05211   1.24332   1.24332   1.26527
 Alpha virt. eigenvalues --    1.39199   1.39199   1.41442   2.15128   2.35751

  Beta  occ. eigenvalues --  -24.70364  -1.10944  -0.41071  -0.41071  -0.34310
  Beta virt. eigenvalues --   -0.24358  -0.09377   0.25659   0.34778   0.94168
  Beta virt. eigenvalues --    0.94168   0.98538   1.08960   1.23181   1.23181
  Beta virt. eigenvalues --    1.25757   1.41783   1.41783   1.43492   2.15821

 Mulliken charges and spin densities:
               1          2
     1  H    0.045228  -0.911660
     2  H    0.007519   0.970689
     3  F   -0.052747   0.940971
 Sum of Mulliken charges =  -0.00000   1.00000

 Dipole moment (field-independent basis, Debye):
    X=             -0.8463    Y=              0.0000    Z=             -0.0000  Tot=              0.8463
 Quadrupole moment (field-independent basis, Debye-Ang):
   XX=             -8.3056   YY=             -7.6401   ZZ=             -7.6401
   XY=              0.0000   XZ=             -0.0000   YZ=              0.0000

  Exact polarizability:      44.837       0.000       2.013      -0.000       0.000       2.013
 Approx polarizability:      43.690       0.000       1.919      -0.000      -0.000       1.919

 ******    2 imaginary frequencies (negative Signs) ******

                      1                      2                      3
                      A                      A                      A
 Frequencies --   -734.0359              -278.6658               279.6913
 Red. masses --      1.0125                 1.1029                 1.0166
 Frc consts  --      0.3214                 0.0505                 0.0469
 IR Inten    --     33.3731                23.4044                 1.6256

                      4
                      A
 Frequencies --    279.6913
 Red. masses --      1.0166
 Frc consts  --      0.0469
 IR Inten    --      1.6256

 - Thermochemistry -
 -------------------
 Temperature   298.150 Kelvin.  Pressure   1.00000 Atm.
 Atom     1 has atomic number  1 and mass   1.00783

 Molecular mass:    21.01405 amu.
 Principal axes and moments of inertia in atomic units:
                           1         2         3
     Eigenvalues --     0.00000 117.98764 117.98764
           X            1.00000  -0.00000   0.00000
           Y            0.00000   1.00000   0.00000
           Z            0.00000   0.00000   1.00000
 This molecule is a prolate symmetric top.
 Rotational symmetry number  1.
 Rotational temperature (Kelvin)      0.73409
 Rotational constant (GHZ):          15.296020
    2 imaginary frequencies ignored.
 Zero-point vibrational energy       3345.9 (Joules/Mol)
                                    0.79968 (Kcal/Mol)
 Warning -- explicit consideration of   2 degrees of freedom as
           vibrations may cause significant error
 Vibrational temperatures:    402.41   402.41
          (Kelvin)

 Zero-point correction=                           0.001274 (Hartree/Particle)
 Thermal correction to Energy=                    0.004527
 Thermal correction to Enthalpy=                  0.005471
 Thermal correction to Gibbs Free Energy=        -0.019920
 Sum of electronic and zero-point Energies=           -100.765264
 Sum of electronic and thermal Energies=              -100.762011
 Sum of electronic and thermal Enthalpies=            -100.761067
 Sum of electronic and thermal Free Energies=         -100.786458

                     E (Thermal)             CV                S
                      KCal/Mol        Cal/Mol-Kelvin    Cal/Mol-Kelvin
 Total                    2.841              8.390             53.440
 Electronic               0.000              0.000              1.377
 Translational            0.889              2.981             35.068
 Rotational               0.592              1.987             13.924
 Vibrational              1.360              3.422              3.071
 Vibration     1          0.680              1.711              1.536
 Vibration     2          0.680              1.711              1.536

 Normal termination of Gaussian 16 at Fri Aug 22 18:43:34 2025.
