 Gaussian 16, Revision C.01,
 Gaussian 16:  ES64L-G16RevC.01  3-Jul-2019

 -----------------------------------------
 # sp b3lyp/6-311g** Force nosymm scf=(qc)
 -----------------------------------------

 -------------------
 Title Card Required
 -------------------
 Symbolic Z-matrix:
 Charge =  0 Multiplicity = 2

                          Input orientation:
 ---------------------------------------------------------------------
 Center     Atomic      Atomic             Coordinates (Angstroms)
 Number     Number       Type             X           Y           Z
 ---------------------------------------------------------------------
      1          1           0        0.000000    0.000000    0.000000
      2          1           0       -2.950000    0.000000    0.000000
      3          9           0        1.350000    0.000000    0.000000
 ---------------------------------------------------------------------

 SCF Done:  E(UB3LYP) =  -100.889456807     a.u. after    7 cycles

 Alpha  occ. eigenvalues --  -24.64288  -1.10606  -0.45259  -0.36806  -0.36806
 Alpha  occ. eigenvalues --   -0.34619
 Alpha virt. eigenvalues --   -0.10202   0.22215   0.27775   0.93098   0.93098
 Alpha virt. eigenvalues --    1.02686   1.18941   1.22905   1.22905   1.23681
 Alpha virt. eigenvalues --    1.33363   1.33363   1.71496   2.13837   2.23375

  Beta  occ. eigenvalues --  -24.64257  -1.10526  -0.45160  -0.36778  -0.36778
  Beta virt. eigenvalues --   -0.11881  -0.06237   0.25365   0.37364   0.93091
  Beta virt. eigenvalues --    0.93091   1.02769   1.19259   1.33266   1.33266
  Beta virt. eigenvalues --    1.44789   1.45095   1.45095   1.71638   2.23237

 Mulliken charges and spin densities:
               1          2
     1  H    0.354574  -0.003651
     2  H    0.005452   0.993867
     3  F   -0.360026   0.009784
 Sum of Mulliken charges =   0.00000   1.00000

 Dipole moment (field-independent basis, Debye):
    X=             -2.5231    Y=             -0.0000    Z=             -0.0000  Tot=              2.5231
 Quadrupole moment (field-independent basis, Debye-Ang):
   XX=             -9.1921   YY=             -7.2335   ZZ=             -7.2335
   XY=             -0.0000   XZ=              0.0000   YZ=              0.0000

  Exact polarizability:      14.112      -0.000       2.263       0.000       0.000       2.263
 Approx polarizability:      21.475       0.000       2.204      -0.000       0.000       2.204

 ******    2 imaginary frequencies (negative Signs) ******

                      1                      2                      3
                      A                      A                      A
 Frequencies --   -901.5611              -126.2801              1116.8206
 Red. masses --      1.0542                 1.0574                 1.0295
 Frc consts  --      0.5048                 0.0099                 0.7566
 IR Inten    --     78.1744                 0.5022               124.8285

                      4
                      A
 Frequencies --   1116.8206
 Red. masses --      1.0295
 Frc consts  --      0.7566
 IR Inten    --    124.8285

 - Thermochemistry -
 -------------------
 Temperature   298.150 Kelvin.  Pressure   1.00000 Atm.
 Atom     1 has atomic number  1 and mass   1.00783

 Molecular mass:    21.01405 amu.
 Principal axes and moments of inertia in atomic units:
                           1         2         3
     Eigenvalues --     0.00000  67.59482  67.59482
           X            1.00000  -0.00000   0.00000
           Y            0.00000   1.00000   0.00000
           Z            0.00000   0.00000   1.00000
 This molecule is a prolate symmetric top.
 Rotational symmetry number  1.
 Rotational temperature (Kelvin)      1.28137
 Rotational constant (GHZ):          26.699402
    2 imaginary frequencies ignored.
 Zero-point vibrational energy      13360.1 (Joules/Mol)
                                    3.19315 (Kcal/Mol)
 Vibrational temperatures:   1606.86  1606.86
          (Kelvin)

 Zero-point correction=                           0.005089 (Hartree/Particle)
 Thermal correction to Energy=                    0.007496
 Thermal correction to Enthalpy=                  0.008440
 Thermal correction to Gibbs Free Energy=        -0.015021
 Sum of electronic and zero-point Energies=           -100.884368
 Sum of electronic and thermal Energies=              -100.881961
 Sum of electronic and thermal Enthalpies=            -100.881017
 Sum of electronic and thermal Free Energies=         -100.904478

                     E (Thermal)             CV                S
                      KCal/Mol        Cal/Mol-Kelvin    Cal/Mol-Kelvin
 Total                    4.704              5.500             49.379
 Electronic               0.000              0.000              1.377
 Translational            0.889              2.981             35.068
 Rotational               0.592              1.987             12.817
 Vibrational              3.222              0.532              0.116

 Normal termination of Gaussian 16 at Fri Aug 22 16:18:15 2025.
