 Gaussian 16, Revision C.01,
 Gaussian 16:  ES64L-G16RevC.01  3-Jul-2019

 -----------------------------------------
 # sp b3lyp/6-311g** Force nosymm scf=(qc)
 -----------------------------------------

 -------------------
 Title Card Required
 -------------------
 Symbolic Z-matrix:
 Charge =  0 Multiplicity = 2

                          Input orientation:
 ---------------------------------------------------------------------
 Center     Atomic      Atomic             Coordinates (Angstroms)
 Number     Number       Type             X           Y           Z
 ---------------------------------------------------------------------
      1          1           0        0.000000    0.000000    0.000000
      2          1           0       -3.500000    0.000000    0.000000
      3          9           0        1.300000    0.000000    0.000000
 ---------------------------------------------------------------------

 SCF Done:  E(UB3LYP) =  -100.901259996     a.u. after    7 cycles

 Alpha  occ. eigenvalues --  -24.64368  -1.11111  -0.46059  -0.37067  -0.37067
 Alpha  occ. eigenvalues --   -0.33903
 Alpha virt. eigenvalues --   -0.08923   0.21448   0.28457   0.93006   0.93006
 Alpha virt. eigenvalues --    1.02062   1.21475   1.23612   1.23612   1.23672
 Alpha virt. eigenvalues --    1.33800   1.33800   1.70588   2.13669   2.24730

  Beta  occ. eigenvalues --  -24.64362  -1.11094  -0.46041  -0.37061  -0.37061
  Beta virt. eigenvalues --   -0.09701  -0.05813   0.25107   0.38413   0.93005
  Beta virt. eigenvalues --    0.93005   1.02080   1.21551   1.33781   1.33781
  Beta virt. eigenvalues --    1.46273   1.46751   1.46751   1.70619   2.24328

 Mulliken charges and spin densities:
               1          2
     1  H    0.357874  -0.000533
     2  H    0.001436   0.998436
     3  F   -0.359311   0.002097
 Sum of Mulliken charges =   0.00000   1.00000

 Dipole moment (field-independent basis, Debye):
    X=             -2.4124    Y=              0.0000    Z=             -0.0000  Tot=              2.4124
 Quadrupole moment (field-independent basis, Debye-Ang):
   XX=             -9.1952   YY=             -7.1996   ZZ=             -7.1996
   XY=             -0.0000   XZ=             -0.0000   YZ=              0.0000

  Exact polarizability:      11.366       0.000       2.280      -0.000      -0.000       2.280
 Approx polarizability:      17.495       0.000       2.224      -0.000       0.000       2.224

 ******    2 imaginary frequencies (negative Signs) ******

                      1                      2                      3
                      A                      A                      A
 Frequencies --   -609.4896               -64.9967              1160.4599
 Red. masses --      1.0563                 1.0552                 1.0329
 Frc consts  --      0.2312                 0.0026                 0.8195
 IR Inten    --     59.4133                 0.0438               135.9473

                      4
                      A
 Frequencies --   1160.4599
 Red. masses --      1.0329
 Frc consts  --      0.8195
 IR Inten    --    135.9473

 - Thermochemistry -
 -------------------
 Temperature   298.150 Kelvin.  Pressure   1.00000 Atm.
 Atom     1 has atomic number  1 and mass   1.00783

 Molecular mass:    21.01405 amu.
 Principal axes and moments of inertia in atomic units:
                           1         2         3
     Eigenvalues --     0.00000  82.58078  82.58078
           X            1.00000  -0.00000   0.00000
           Y            0.00000   1.00000   0.00000
           Z            0.00000   0.00000   1.00000
 This molecule is a prolate symmetric top.
 Rotational symmetry number  1.
 Rotational temperature (Kelvin)      1.04884
 Rotational constant (GHZ):          21.854253
    2 imaginary frequencies ignored.
 Zero-point vibrational energy      13882.2 (Joules/Mol)
                                    3.31792 (Kcal/Mol)
 Vibrational temperatures:   1669.64  1669.64
          (Kelvin)

 Zero-point correction=                           0.005287 (Hartree/Particle)
 Thermal correction to Energy=                    0.007687
 Thermal correction to Enthalpy=                  0.008631
 Thermal correction to Gibbs Free Energy=        -0.015010
 Sum of electronic and zero-point Energies=           -100.895973
 Sum of electronic and thermal Energies=              -100.893573
 Sum of electronic and thermal Enthalpies=            -100.892629
 Sum of electronic and thermal Free Energies=         -100.916270

                     E (Thermal)             CV                S
                      KCal/Mol        Cal/Mol-Kelvin    Cal/Mol-Kelvin
 Total                    4.824              5.432             49.757
 Electronic               0.000              0.000              1.377
 Translational            0.889              2.981             35.068
 Rotational               0.592              1.987             13.215
 Vibrational              3.343              0.464              0.097

 Normal termination of Gaussian 16 at Fri Aug 22 16:16:04 2025.
