 Gaussian 16, Revision C.01,
 Gaussian 16:  ES64L-G16RevC.01  3-Jul-2019

 -----------------------------------------
 # sp b3lyp/6-311g** Force nosymm scf=(qc)
 -----------------------------------------

 -------------------
 Title Card Required
 -------------------
 Symbolic Z-matrix:
 Charge =  0 Multiplicity = 2

                          Input orientation:
 ---------------------------------------------------------------------
 Center     Atomic      Atomic             Coordinates (Angstroms)
 Number     Number       Type             X           Y           Z
 ---------------------------------------------------------------------
      1          1           0        0.000000    0.000000    0.000000
      2          1           0       -3.350000    0.000000    0.000000
      3          9           0        1.700000    0.000000    0.000000
 ---------------------------------------------------------------------

 SCF Done:  E(UB3LYP) =  -100.814622127     a.u. after   10 cycles

 Alpha  occ. eigenvalues --  -24.64183  -1.08796  -0.40926  -0.35956  -0.35956
 Alpha  occ. eigenvalues --   -0.34226
 Alpha virt. eigenvalues --   -0.18748   0.19922   0.27540   0.94896   0.94896
 Alpha virt. eigenvalues --    0.96575   1.07426   1.23276   1.23276   1.23396
 Alpha virt. eigenvalues --    1.27604   1.27604   1.70331   2.13281   2.16065

  Beta  occ. eigenvalues --  -24.64205  -1.08856  -0.40947  -0.35978  -0.35978
  Beta virt. eigenvalues --   -0.18846  -0.07217   0.22940   0.37824   0.94910
  Beta virt. eigenvalues --    0.94910   0.96640   1.07440   1.27787   1.27787
  Beta virt. eigenvalues --    1.45064   1.45551   1.45551   1.70472   2.16013

 Mulliken charges and spin densities:
               1          2
     1  H    0.324747   0.010896
     2  H    0.003812   0.996043
     3  F   -0.328559  -0.006938
 Sum of Mulliken charges =  -0.00000   1.00000

 Dipole moment (field-independent basis, Debye):
    X=             -2.8131    Y=              0.0000    Z=              0.0000  Tot=              2.8131
 Quadrupole moment (field-independent basis, Debye-Ang):
   XX=            -10.5491   YY=             -7.4198   ZZ=             -7.4198
   XY=              0.0000   XZ=              0.0000   YZ=              0.0000

  Exact polarizability:      21.505      -0.000       2.103       0.000      -0.000       2.103
 Approx polarizability:      48.117       0.000       2.016      -0.000       0.000       2.016

 ******    2 imaginary frequencies (negative Signs) ******

                      1                      2                      3
                      A                      A                      A
 Frequencies --  -1190.6551              -111.9844               863.7400
 Red. masses --      1.0568                 1.0547                 1.0278
 Frc consts  --      0.8827                 0.0078                 0.4518
 IR Inten    --     46.8003                 0.8576                99.6340

                      4
                      A
 Frequencies --    863.7400
 Red. masses --      1.0278
 Frc consts  --      0.4518
 IR Inten    --     99.6340

 - Thermochemistry -
 -------------------
 Temperature   298.150 Kelvin.  Pressure   1.00000 Atm.
 Atom     1 has atomic number  1 and mass   1.00783

 Molecular mass:    21.01405 amu.
 Principal axes and moments of inertia in atomic units:
                           1         2         3
     Eigenvalues --     0.00000  94.32045  94.32045
           X            1.00000  -0.00000   0.00000
           Y            0.00000   1.00000   0.00000
           Z            0.00000   0.00000   1.00000
 This molecule is a prolate symmetric top.
 Rotational symmetry number  1.
 Rotational temperature (Kelvin)      0.91829
 Rotational constant (GHZ):          19.134146
    2 imaginary frequencies ignored.
 Zero-point vibrational energy      10332.6 (Joules/Mol)
                                    2.46956 (Kcal/Mol)
 Vibrational temperatures:   1242.73  1242.73
          (Kelvin)

 Zero-point correction=                           0.003935 (Hartree/Particle)
 Thermal correction to Energy=                    0.006420
 Thermal correction to Enthalpy=                  0.007364
 Thermal correction to Gibbs Free Energy=        -0.016510
 Sum of electronic and zero-point Energies=           -100.810687
 Sum of electronic and thermal Energies=              -100.808202
 Sum of electronic and thermal Enthalpies=            -100.807258
 Sum of electronic and thermal Free Energies=         -100.831132

                     E (Thermal)             CV                S
                      KCal/Mol        Cal/Mol-Kelvin    Cal/Mol-Kelvin
 Total                    4.028              6.071             50.247
 Electronic               0.000              0.000              1.377
 Translational            0.889              2.981             35.068
 Rotational               0.592              1.987             13.479
 Vibrational              2.547              1.103              0.323

 Normal termination of Gaussian 16 at Fri Aug 22 16:38:40 2025.
