 Gaussian 16, Revision C.01,
 Gaussian 16:  ES64L-G16RevC.01  3-Jul-2019

 -----------------------------------------
 # sp b3lyp/6-311g** Force nosymm scf=(qc)
 -----------------------------------------

 -------------------
 Title Card Required
 -------------------
 Symbolic Z-matrix:
 Charge =  0 Multiplicity = 2

                          Input orientation:
 ---------------------------------------------------------------------
 Center     Atomic      Atomic             Coordinates (Angstroms)
 Number     Number       Type             X           Y           Z
 ---------------------------------------------------------------------
      1          1           0        0.000000    0.000000    0.000000
      2          1           0       -0.500000    0.000000    0.000000
      3          9           0        1.400000    0.000000    0.000000
 ---------------------------------------------------------------------

 SCF Done:  E(UB3LYP) =  -100.852711915     a.u. after    6 cycles

 Alpha  occ. eigenvalues --  -24.71717  -1.19337  -0.61421  -0.43907  -0.43459
 Alpha  occ. eigenvalues --   -0.43459
 Alpha virt. eigenvalues --    0.12709   0.19343   0.57354   0.87887   0.87887
 Alpha virt. eigenvalues --    0.95820   1.13498   1.13498   1.43583   1.64278
 Alpha virt. eigenvalues --    1.85262   1.97583   1.97583   2.47466   3.75531

  Beta  occ. eigenvalues --  -24.68933  -1.11803  -0.54129  -0.40776  -0.40776
  Beta virt. eigenvalues --   -0.22097   0.13501   0.19976   0.59856   0.89149
  Beta virt. eigenvalues --    0.89149   1.02092   1.15518   1.15518   1.47451
  Beta virt. eigenvalues --    1.67199   1.86213   1.98822   1.98822   2.50824

 Mulliken charges and spin densities:
               1          2
     1  H    0.152955  -0.018663
     2  H   -0.023424   0.196141
     3  F   -0.129531   0.822522
 Sum of Mulliken charges =   0.00000   1.00000

 Dipole moment (field-independent basis, Debye):
    X=             -0.8634    Y=              0.0000    Z=              0.0000  Tot=              0.8634
 Quadrupole moment (field-independent basis, Debye-Ang):
   XX=             -6.6280   YY=             -6.4519   ZZ=             -6.4519
   XY=              0.0000   XZ=              0.0000   YZ=              0.0000

  Exact polarizability:      12.761      -0.000       2.247       0.000      -0.000       2.247
 Approx polarizability:      14.808       0.000       2.310       0.000      -0.000       2.310

 ******    2 imaginary frequencies (negative Signs) ******

                      1                      2                      3
                      A                      A                      A
 Frequencies --  -4946.8739             -4946.8739               838.0451
 Red. masses --      1.0101                 1.0101                 1.1085
 Frc consts  --     14.5638                14.5638                 0.4587
 IR Inten    --      0.0997                 0.0997                47.8846

                      4
                      A
 Frequencies --   9816.5791
 Red. masses --      1.0078
 Frc consts  --     57.2214
 IR Inten    --    404.7867

 - Thermochemistry -
 -------------------
 Temperature   298.150 Kelvin.  Pressure   1.00000 Atm.
 Atom     1 has atomic number  1 and mass   1.00783

 Molecular mass:    21.01405 amu.
 Principal axes and moments of inertia in atomic units:
                           1         2         3
     Eigenvalues --     0.00000  18.16679  18.16679
           X            1.00000  -0.00000   0.00000
           Y            0.00000   1.00000   0.00000
           Z            0.00000   0.00000   1.00000
 This molecule is a prolate symmetric top.
 Rotational symmetry number  1.
 Rotational temperature (Kelvin)      4.76771
 Rotational constant (GHZ):          99.342888
    2 imaginary frequencies ignored.
 Zero-point vibrational energy      63728.8 (Joules/Mol)
                                   15.23155 (Kcal/Mol)
 Vibrational temperatures:   1205.76 14123.87
          (Kelvin)

 Zero-point correction=                           0.024273 (Hartree/Particle)
 Thermal correction to Energy=                    0.026702
 Thermal correction to Enthalpy=                  0.027646
 Thermal correction to Gibbs Free Energy=         0.005395
 Sum of electronic and zero-point Energies=           -100.828439
 Sum of electronic and thermal Energies=              -100.826010
 Sum of electronic and thermal Enthalpies=            -100.825066
 Sum of electronic and thermal Free Energies=         -100.847316

                     E (Thermal)             CV                S
                      KCal/Mol        Cal/Mol-Kelvin    Cal/Mol-Kelvin
 Total                   16.756              5.558             46.830
 Electronic               0.000              0.000              1.377
 Translational            0.889              2.981             35.068
 Rotational               0.592              1.987             10.206
 Vibrational             15.274              0.590              0.178

 Normal termination of Gaussian 16 at Fri Aug 22 16:18:58 2025.
