 Gaussian 16, Revision C.01,
 Gaussian 16:  ES64L-G16RevC.01  3-Jul-2019

 -----------------------------------------
 # sp b3lyp/6-311g** Force nosymm scf=(qc)
 -----------------------------------------

 -------------------
 Title Card Required
 -------------------
 Symbolic Z-matrix:
 Charge =  0 Multiplicity = 2

                          Input orientation:
 ---------------------------------------------------------------------
 Center     Atomic      Atomic             Coordinates (Angstroms)
 Number     Number       Type             X           Y           Z
 ---------------------------------------------------------------------
      1          1           0        0.000000    0.000000    0.000000
      2          1           0       -3.150000    0.000000    0.000000
      3          9           0        1.750000    0.000000    0.000000
 ---------------------------------------------------------------------

 SCF Done:  E(UB3LYP) =  -100.805897224     a.u. after   11 cycles

 Alpha  occ. eigenvalues --  -24.64074  -1.08591  -0.40414  -0.35814  -0.35814
 Alpha  occ. eigenvalues --   -0.34523
 Alpha virt. eigenvalues --   -0.19557   0.20159   0.27464   0.94838   0.95351
 Alpha virt. eigenvalues --    0.95351   1.07792   1.22963   1.22963   1.23275
 Alpha virt. eigenvalues --    1.26789   1.26789   1.68363   2.13476   2.15660

  Beta  occ. eigenvalues --  -24.64100  -1.08660  -0.40410  -0.35839  -0.35839
  Beta virt. eigenvalues --   -0.19692  -0.07718   0.23269   0.37351   0.94954
  Beta virt. eigenvalues --    0.95369   0.95369   1.07824   1.27043   1.27043
  Beta virt. eigenvalues --    1.44429   1.44881   1.44881   1.68595   2.16042

 Mulliken charges and spin densities:
               1          2
     1  H    0.316201   0.015165
     2  H    0.006849   0.992895
     3  F   -0.323050  -0.008060
 Sum of Mulliken charges =   0.00000   1.00000

 Dipole moment (field-independent basis, Debye):
    X=             -2.8988    Y=             -0.0000    Z=             -0.0000  Tot=              2.8988
 Quadrupole moment (field-independent basis, Debye-Ang):
   XX=            -10.6241   YY=             -7.4424   ZZ=             -7.4424
   XY=             -0.0000   XZ=             -0.0000   YZ=              0.0000

  Exact polarizability:      24.815       0.000       2.085       0.000      -0.000       2.085
 Approx polarizability:      55.858       0.000       1.996       0.000      -0.000       1.996

 ******    2 imaginary frequencies (negative Signs) ******

                      1                      2                      3
                      A                      A                      A
 Frequencies --  -1189.6234              -146.3563               825.7014
 Red. masses --      1.0557                 1.0558                 1.0264
 Frc consts  --      0.8803                 0.0133                 0.4123
 IR Inten    --     63.6688                 2.1765                93.2893

                      4
                      A
 Frequencies --    825.7014
 Red. masses --      1.0264
 Frc consts  --      0.4123
 IR Inten    --     93.2893

 - Thermochemistry -
 -------------------
 Temperature   298.150 Kelvin.  Pressure   1.00000 Atm.
 Atom     1 has atomic number  1 and mass   1.00783

 Molecular mass:    21.01405 amu.
 Principal axes and moments of inertia in atomic units:
                           1         2         3
     Eigenvalues --     0.00000  89.80105  89.80105
           X            1.00000  -0.00000   0.00000
           Y            0.00000   1.00000   0.00000
           Z            0.00000   0.00000   1.00000
 This molecule is a prolate symmetric top.
 Rotational symmetry number  1.
 Rotational temperature (Kelvin)      0.96451
 Rotational constant (GHZ):          20.097106
    2 imaginary frequencies ignored.
 Zero-point vibrational energy       9877.6 (Joules/Mol)
                                    2.36080 (Kcal/Mol)
 Vibrational temperatures:   1188.00  1188.00
          (Kelvin)

 Zero-point correction=                           0.003762 (Hartree/Particle)
 Thermal correction to Energy=                    0.006265
 Thermal correction to Enthalpy=                  0.007209
 Thermal correction to Gibbs Free Energy=        -0.016643
 Sum of electronic and zero-point Energies=           -100.802135
 Sum of electronic and thermal Energies=              -100.799632
 Sum of electronic and thermal Enthalpies=            -100.798688
 Sum of electronic and thermal Free Energies=         -100.822540

                     E (Thermal)             CV                S
                      KCal/Mol        Cal/Mol-Kelvin    Cal/Mol-Kelvin
 Total                    3.931              6.187             50.202
 Electronic               0.000              0.000              1.377
 Translational            0.889              2.981             35.068
 Rotational               0.592              1.987             13.381
 Vibrational              2.450              1.219              0.375

 Normal termination of Gaussian 16 at Fri Aug 22 16:41:29 2025.
