 Gaussian 16, Revision C.01,
 Gaussian 16:  ES64L-G16RevC.01  3-Jul-2019

 -----------------------------------------
 # sp b3lyp/6-311g** Force nosymm scf=(qc)
 -----------------------------------------

 -------------------
 Title Card Required
 -------------------
 Symbolic Z-matrix:
 Charge =  0 Multiplicity = 2

                          Input orientation:
 ---------------------------------------------------------------------
 Center     Atomic      Atomic             Coordinates (Angstroms)
 Number     Number       Type             X           Y           Z
 ---------------------------------------------------------------------
      1          1           0        0.000000    0.000000    0.000000
      2          1           0       -3.950000    0.000000    0.000000
      3          9           0        2.200000    0.000000    0.000000
 ---------------------------------------------------------------------

 SCF Done:  E(UB3LYP) =  -100.776409333     a.u. after   14 cycles

 Alpha  occ. eigenvalues --  -24.69769  -1.16077  -0.48826  -0.41063  -0.41063
 Alpha  occ. eigenvalues --   -0.32984
 Alpha virt. eigenvalues --   -0.12279   0.22967   0.33212   0.88289   0.94493
 Alpha virt. eigenvalues --    0.94493   1.05892   1.24518   1.24518   1.24518
 Alpha virt. eigenvalues --    1.37551   1.37551   1.51742   2.13814   2.32537

  Beta  occ. eigenvalues --  -24.67144  -1.08671  -0.38461  -0.38461  -0.36775
  Beta virt. eigenvalues --   -0.21954  -0.06196   0.23088   0.38082   0.91246
  Beta virt. eigenvalues --    0.95576   0.95576   1.08128   1.21501   1.21501
  Beta virt. eigenvalues --    1.41980   1.46461   1.46613   1.46613   2.11321

 Mulliken charges and spin densities:
               1          2
     1  H    0.143991  -0.826079
     2  H    0.000406   0.999289
     3  F   -0.144398   0.826790
 Sum of Mulliken charges =  -0.00000   1.00000

 Dipole moment (field-independent basis, Debye):
    X=             -1.5985    Y=             -0.0000    Z=             -0.0000  Tot=              1.5985
 Quadrupole moment (field-independent basis, Debye-Ang):
   XX=             -9.8566   YY=             -7.5241   ZZ=             -7.5241
   XY=             -0.0000   XZ=             -0.0000   YZ=             -0.0000

  Exact polarizability:      27.054      -0.000       2.041      -0.000      -0.000       2.041
 Approx polarizability:      37.804      -0.000       1.929      -0.000       0.000       1.929

 ******    2 imaginary frequencies (negative Signs) ******

                      1                      2                      3
                      A                      A                      A
 Frequencies --   -861.4565               -71.4070               361.6564
 Red. masses --      1.0576                 1.0540                 1.0263
 Frc consts  --      0.4624                 0.0032                 0.0791
 IR Inten    --    106.2323                 0.0344                20.1029

                      4
                      A
 Frequencies --    361.6564
 Red. masses --      1.0263
 Frc consts  --      0.0791
 IR Inten    --     20.1029

 - Thermochemistry -
 -------------------
 Temperature   298.150 Kelvin.  Pressure   1.00000 Atm.
 Atom     1 has atomic number  1 and mass   1.00783

 Molecular mass:    21.01405 amu.
 Principal axes and moments of inertia in atomic units:
                           1         2         3
     Eigenvalues --     0.00000 141.50812 141.50812
           X            1.00000  -0.00000   0.00000
           Y            0.00000   1.00000   0.00000
           Z            0.00000   0.00000   1.00000
 This molecule is a prolate symmetric top.
 Rotational symmetry number  1.
 Rotational temperature (Kelvin)      0.61208
 Rotational constant (GHZ):          12.753623
    2 imaginary frequencies ignored.
 Zero-point vibrational energy       4326.4 (Joules/Mol)
                                    1.03403 (Kcal/Mol)
 Warning -- explicit consideration of   2 degrees of freedom as
           vibrations may cause significant error
 Vibrational temperatures:    520.34   520.34
          (Kelvin)

 Zero-point correction=                           0.001648 (Hartree/Particle)
 Thermal correction to Energy=                    0.004705
 Thermal correction to Enthalpy=                  0.005650
 Thermal correction to Gibbs Free Energy=        -0.019514
 Sum of electronic and zero-point Energies=           -100.774762
 Sum of electronic and thermal Energies=              -100.771704
 Sum of electronic and thermal Enthalpies=            -100.770760
 Sum of electronic and thermal Free Energies=         -100.795923

                     E (Thermal)             CV                S
                      KCal/Mol        Cal/Mol-Kelvin    Cal/Mol-Kelvin
 Total                    2.953              8.070             52.960
 Electronic               0.000              0.000              1.377
 Translational            0.889              2.981             35.068
 Rotational               0.592              1.987             14.285
 Vibrational              1.472              3.102              2.230
 Vibration     1          0.736              1.551              1.115
 Vibration     2          0.736              1.551              1.115

 Normal termination of Gaussian 16 at Fri Aug 22 17:13:28 2025.
