 Gaussian 16, Revision C.01,
 Gaussian 16:  ES64L-G16RevC.01  3-Jul-2019

 -----------------------------------------
 # sp b3lyp/6-311g** Force nosymm scf=(qc)
 -----------------------------------------

 -------------------
 Title Card Required
 -------------------
 Symbolic Z-matrix:
 Charge =  0 Multiplicity = 2

                          Input orientation:
 ---------------------------------------------------------------------
 Center     Atomic      Atomic             Coordinates (Angstroms)
 Number     Number       Type             X           Y           Z
 ---------------------------------------------------------------------
      1          1           0        0.000000    0.000000    0.000000
      2          1           0       -2.750000    0.000000    0.000000
      3          9           0        1.800000    0.000000    0.000000
 ---------------------------------------------------------------------

 SCF Done:  E(UB3LYP) =  -100.798289122     a.u. after   12 cycles

 Alpha  occ. eigenvalues --  -24.63716  -1.08165  -0.39877  -0.35469  -0.35469
 Alpha  occ. eigenvalues --   -0.35297
 Alpha virt. eigenvalues --   -0.20096   0.21171   0.26798   0.93842   0.95966
 Alpha virt. eigenvalues --    0.95966   1.08415   1.22063   1.22063   1.23353
 Alpha virt. eigenvalues --    1.26033   1.26033   1.66180   2.12994   2.15795

  Beta  occ. eigenvalues --  -24.63770  -1.08313  -0.39730  -0.35522  -0.35522
  Beta virt. eigenvalues --   -0.20407  -0.08866   0.24394   0.35873   0.94102
  Beta virt. eigenvalues --    0.96005   0.96005   1.08520   1.26659   1.26659
  Beta virt. eigenvalues --    1.42946   1.42946   1.43113   1.66766   2.16641

 Mulliken charges and spin densities:
               1          2
     1  H    0.300981   0.037096
     2  H    0.018896   0.980167
     3  F   -0.319877  -0.017262
 Sum of Mulliken charges =   0.00000   1.00000

 Dipole moment (field-independent basis, Debye):
    X=             -3.1068    Y=              0.0000    Z=              0.0000  Tot=              3.1068
 Quadrupole moment (field-independent basis, Debye-Ang):
   XX=            -10.4838   YY=             -7.4650   ZZ=             -7.4650
   XY=              0.0000   XZ=              0.0000   YZ=              0.0000

  Exact polarizability:      31.963       0.000       2.069       0.000       0.000       2.069
 Approx polarizability:      68.797       0.000       1.981       0.000       0.000       1.981

 ******    2 imaginary frequencies (negative Signs) ******

                      1                      2                      3
                      A                      A                      A
 Frequencies --  -1210.3000              -224.2766               787.3359
 Red. masses --      1.0518                 1.0598                 1.0238
 Frc consts  --      0.9077                 0.0314                 0.3739
 IR Inten    --    139.7095                 7.8844                80.5796

                      4
                      A
 Frequencies --    787.3359
 Red. masses --      1.0238
 Frc consts  --      0.3739
 IR Inten    --     80.5796

 - Thermochemistry -
 -------------------
 Temperature   298.150 Kelvin.  Pressure   1.00000 Atm.
 Atom     1 has atomic number  1 and mass   1.00783

 Molecular mass:    21.01405 amu.
 Principal axes and moments of inertia in atomic units:
                           1         2         3
     Eigenvalues --     0.00000  79.20932  79.20932
           X            1.00000  -0.00000   0.00000
           Y            0.00000   1.00000   0.00000
           Z            0.00000   0.00000   1.00000
 This molecule is a prolate symmetric top.
 Rotational symmetry number  1.
 Rotational temperature (Kelvin)      1.09348
 Rotational constant (GHZ):          22.784455
    2 imaginary frequencies ignored.
 Zero-point vibrational energy       9418.6 (Joules/Mol)
                                    2.25111 (Kcal/Mol)
 Vibrational temperatures:   1132.80  1132.80
          (Kelvin)

 Zero-point correction=                           0.003587 (Hartree/Particle)
 Thermal correction to Energy=                    0.006112
 Thermal correction to Enthalpy=                  0.007056
 Thermal correction to Gibbs Free Energy=        -0.016707
 Sum of electronic and zero-point Energies=           -100.794702
 Sum of electronic and thermal Energies=              -100.792177
 Sum of electronic and thermal Enthalpies=            -100.791233
 Sum of electronic and thermal Free Energies=         -100.814996

                     E (Thermal)             CV                S
                      KCal/Mol        Cal/Mol-Kelvin    Cal/Mol-Kelvin
 Total                    3.835              6.312             50.013
 Electronic               0.000              0.000              1.377
 Translational            0.889              2.981             35.068
 Rotational               0.592              1.987             13.132
 Vibrational              2.354              1.344              0.436

 Normal termination of Gaussian 16 at Fri Aug 22 16:44:14 2025.
