 Gaussian 16, Revision C.01,
 Gaussian 16:  ES64L-G16RevC.01  3-Jul-2019

 -----------------------------------------
 # sp b3lyp/6-311g** Force nosymm scf=(qc)
 -----------------------------------------

 -------------------
 Title Card Required
 -------------------
 Symbolic Z-matrix:
 Charge =  0 Multiplicity = 2

                          Input orientation:
 ---------------------------------------------------------------------
 Center     Atomic      Atomic             Coordinates (Angstroms)
 Number     Number       Type             X           Y           Z
 ---------------------------------------------------------------------
      1          1           0        0.000000    0.000000    0.000000
      2          1           0       -0.550000    0.000000    0.000000
      3          9           0        3.150000    0.000000    0.000000
 ---------------------------------------------------------------------

 SCF Done:  E(UB3LYP) =  -100.894573341     a.u. after  226 cycles

 Alpha  occ. eigenvalues --  -24.76501  -1.22313  -0.55510  -0.47885  -0.46660
 Alpha  occ. eigenvalues --   -0.46620
 Alpha virt. eigenvalues --    0.09466   0.18694   0.53933   0.85942   0.90815
 Alpha virt. eigenvalues --    0.93955   1.05481   1.11160   1.11166   1.61802
 Alpha virt. eigenvalues --    1.83527   1.96288   1.96296   2.36959   3.64740

  Beta  occ. eigenvalues --  -24.73340  -1.13227  -0.47821  -0.43511  -0.43491
  Beta virt. eigenvalues --   -0.26136   0.09516   0.18721   0.54049   0.92314
  Beta virt. eigenvalues --    0.95401   0.95755   1.09137   1.11159   1.11165
  Beta virt. eigenvalues --    1.61822   1.83569   1.96288   1.96295   2.36962

 Mulliken charges and spin densities:
               1          2
     1  H   -0.007117  -0.001371
     2  H   -0.001334   0.000272
     3  F    0.008451   1.001099
 Sum of Mulliken charges =   0.00000   1.00000

 Dipole moment (field-independent basis, Debye):
    X=              0.0779    Y=             -0.0000    Z=             -0.0000  Tot=              0.0779
 Quadrupole moment (field-independent basis, Debye-Ang):
   XX=             -6.0167   YY=             -5.9948   ZZ=             -6.4813
   XY=             -0.0000   XZ=             -0.0000   YZ=             -0.3568

  Exact polarizability:       6.216      -0.000       2.199       0.000      -0.191       1.939
 Approx polarizability:       6.602       0.000       2.373      -0.000      -0.239       2.047

 ******    2 imaginary frequencies (negative Signs) ******

                      1                      2                      3
                      A                      A                      A
 Frequencies --  -3690.8679             -3690.5666                51.7741
 Red. masses --      1.0085                 1.0085                 1.1085
 Frc consts  --      8.0942                 8.0928                 0.0018
 IR Inten    --      0.0358                 0.0343                 0.1548

                      4
                      A
 Frequencies --   8342.8945
 Red. masses --      1.0078
 Frc consts  --     41.3303
 IR Inten    --      0.1735

 - Thermochemistry -
 -------------------
 Temperature   298.150 Kelvin.  Pressure   1.00000 Atm.
 Atom     1 has atomic number  1 and mass   1.00783

 Molecular mass:    21.01405 amu.
 Principal axes and moments of inertia in atomic units:
                           1         2         3
     Eigenvalues --     0.00000  76.88244  76.88244
           X            1.00000  -0.00000   0.00000
           Y            0.00000   1.00000   0.00000
           Z            0.00000   0.00000   1.00000
 This molecule is a prolate symmetric top.
 Rotational symmetry number  1.
 Rotational temperature (Kelvin)      1.12658
 Rotational constant (GHZ):          23.474036
    2 imaginary frequencies ignored.
 Zero-point vibrational energy      50211.3 (Joules/Mol)
                                   12.00078 (Kcal/Mol)
 Warning -- explicit consideration of   1 degrees of freedom as
           vibrations may cause significant error
 Vibrational temperatures:     74.49 12003.56
          (Kelvin)

 Zero-point correction=                           0.019124 (Hartree/Particle)
 Thermal correction to Energy=                    0.022316
 Thermal correction to Enthalpy=                  0.023260
 Thermal correction to Gibbs Free Energy=        -0.002524
 Sum of electronic and zero-point Energies=           -100.875449
 Sum of electronic and thermal Energies=              -100.872257
 Sum of electronic and thermal Enthalpies=            -100.871313
 Sum of electronic and thermal Free Energies=         -100.897097

                     E (Thermal)             CV                S
                      KCal/Mol        Cal/Mol-Kelvin    Cal/Mol-Kelvin
 Total                   14.004              6.945             54.267
 Electronic               0.000              0.000              1.377
 Translational            0.889              2.981             35.068
 Rotational               0.592              1.987             13.073
 Vibrational             12.522              1.977              4.748
 Vibration     1          0.596              1.977              4.748

 Normal termination of Gaussian 16 at Fri Aug 22 19:57:49 2025.
