 Gaussian 16, Revision C.01,
 Gaussian 16:  ES64L-G16RevC.01  3-Jul-2019

 -----------------------------------------
 # sp b3lyp/6-311g** Force nosymm scf=(qc)
 -----------------------------------------

 -------------------
 Title Card Required
 -------------------
 Symbolic Z-matrix:
 Charge =  0 Multiplicity = 2

                          Input orientation:
 ---------------------------------------------------------------------
 Center     Atomic      Atomic             Coordinates (Angstroms)
 Number     Number       Type             X           Y           Z
 ---------------------------------------------------------------------
      1          1           0        0.000000    0.000000    0.000000
      2          1           0       -2.150000    0.000000    0.000000
      3          9           0        2.100000    0.000000    0.000000
 ---------------------------------------------------------------------

 SCF Done:  E(UB3LYP) =  -100.790324968     a.u. after   16 cycles

 Alpha  occ. eigenvalues --  -24.68905  -1.15224  -0.47961  -0.40308  -0.40308
 Alpha  occ. eigenvalues --   -0.35600
 Alpha virt. eigenvalues --   -0.13574   0.24279   0.31385   0.88669   0.94835
 Alpha virt. eigenvalues --    0.94835   1.05766   1.22248   1.22248   1.27559
 Alpha virt. eigenvalues --    1.34507   1.34507   1.54741   2.11394   2.30402

  Beta  occ. eigenvalues --  -24.66387  -1.08147  -0.37818  -0.37818  -0.36943
  Beta virt. eigenvalues --   -0.21651  -0.11271   0.26058   0.32753   0.91977
  Beta virt. eigenvalues --    0.95773   0.95773   1.08736   1.22458   1.22458
  Beta virt. eigenvalues --    1.37906   1.37906   1.40278   1.49553   2.11871

 Mulliken charges and spin densities:
               1          2
     1  H    0.130851  -0.714307
     2  H    0.033052   0.921987
     3  F   -0.163903   0.792320
 Sum of Mulliken charges =  -0.00000   1.00000

 Dipole moment (field-independent basis, Debye):
    X=             -2.0584    Y=              0.0000    Z=              0.0000  Tot=              2.0584
 Quadrupole moment (field-independent basis, Debye-Ang):
   XX=             -8.8789   YY=             -7.5686   ZZ=             -7.5686
   XY=              0.0000   XZ=              0.0000   YZ=             -0.0000

  Exact polarizability:      48.216       0.000       2.043       0.000      -0.000       2.043
 Approx polarizability:      55.289      -0.000       1.945      -0.000       0.000       1.945

 ******    2 imaginary frequencies (negative Signs) ******

                      1                      2                      3
                      A                      A                      A
 Frequencies --  -1319.0370              -513.2852               545.5348
 Red. masses --      1.0213                 1.0927                 1.0182
 Frc consts  --      1.0469                 0.1696                 0.1785
 IR Inten    --     81.7662                38.1586                11.9003

                      4
                      A
 Frequencies --    545.5348
 Red. masses --      1.0182
 Frc consts  --      0.1785
 IR Inten    --     11.9003

 - Thermochemistry -
 -------------------
 Temperature   298.150 Kelvin.  Pressure   1.00000 Atm.
 Atom     1 has atomic number  1 and mass   1.00783

 Molecular mass:    21.01405 amu.
 Principal axes and moments of inertia in atomic units:
                           1         2         3
     Eigenvalues --     0.00000  73.91878  73.91878
           X            1.00000  -0.00000   0.00000
           Y            0.00000   1.00000   0.00000
           Z            0.00000   0.00000   1.00000
 This molecule is a prolate symmetric top.
 Rotational symmetry number  1.
 Rotational temperature (Kelvin)      1.17174
 Rotational constant (GHZ):          24.415193
    2 imaginary frequencies ignored.
 Zero-point vibrational energy       6526.0 (Joules/Mol)
                                    1.55976 (Kcal/Mol)
 Warning -- explicit consideration of   2 degrees of freedom as
           vibrations may cause significant error
 Vibrational temperatures:    784.90   784.90
          (Kelvin)

 Zero-point correction=                           0.002486 (Hartree/Particle)
 Thermal correction to Energy=                    0.005231
 Thermal correction to Enthalpy=                  0.006175
 Thermal correction to Gibbs Free Energy=        -0.017841
 Sum of electronic and zero-point Energies=           -100.787839
 Sum of electronic and thermal Energies=              -100.785094
 Sum of electronic and thermal Enthalpies=            -100.784150
 Sum of electronic and thermal Free Energies=         -100.808166

                     E (Thermal)             CV                S
                      KCal/Mol        Cal/Mol-Kelvin    Cal/Mol-Kelvin
 Total                    3.283              7.267             50.547
 Electronic               0.000              0.000              1.377
 Translational            0.889              2.981             35.068
 Rotational               0.592              1.987             12.995
 Vibrational              1.801              2.299              1.107
 Vibration     1          0.901              1.149              0.554
 Vibration     2          0.901              1.149              0.554

 Normal termination of Gaussian 16 at Fri Aug 22 17:03:58 2025.
