 Gaussian 16, Revision C.01,
 Gaussian 16:  ES64L-G16RevC.01  3-Jul-2019

 -----------------------------------------
 # sp b3lyp/6-311g** Force nosymm scf=(qc)
 -----------------------------------------

 -------------------
 Title Card Required
 -------------------
 Symbolic Z-matrix:
 Charge =  0 Multiplicity = 2

                          Input orientation:
 ---------------------------------------------------------------------
 Center     Atomic      Atomic             Coordinates (Angstroms)
 Number     Number       Type             X           Y           Z
 ---------------------------------------------------------------------
      1          1           0        0.000000    0.000000    0.000000
      2          1           0       -1.000000    0.000000    0.000000
      3          9           0        3.750000    0.000000    0.000000
 ---------------------------------------------------------------------

 SCF Done:  E(UB3LYP) =  -100.906567256     a.u. after    7 cycles

 Alpha  occ. eigenvalues --  -24.76148  -1.22058  -0.55274  -0.46421  -0.46421
 Alpha  occ. eigenvalues --   -0.39088
 Alpha virt. eigenvalues --    0.00115   0.21240   0.38411   0.87072   0.90970
 Alpha virt. eigenvalues --    0.90970   1.01193   1.09015   1.09015   1.37384
 Alpha virt. eigenvalues --    1.65660   1.65660   2.21448   2.35859   2.58707

  Beta  occ. eigenvalues --  -24.72997  -1.12993  -0.43261  -0.43261  -0.39085
  Beta virt. eigenvalues --   -0.25980   0.00133   0.21255   0.38507   0.92469
  Beta virt. eigenvalues --    0.92469   0.96390   1.05332   1.09019   1.09019
  Beta virt. eigenvalues --    1.37396   1.65663   1.65663   2.21464   2.35866

 Mulliken charges and spin densities:
               1          2
     1  H   -0.003912  -0.000471
     2  H    0.003546   0.001173
     3  F    0.000366   0.999298
 Sum of Mulliken charges =   0.00000   1.00000

 Dipole moment (field-independent basis, Debye):
    X=             -0.0106    Y=              0.0000    Z=             -0.0000  Tot=              0.0106
 Quadrupole moment (field-independent basis, Debye-Ang):
   XX=             -5.5041   YY=             -7.2707   ZZ=             -7.2707
   XY=              0.0000   XZ=             -0.0000   YZ=             -0.0000

  Exact polarizability:      12.725       0.000       2.057      -0.000       0.000       2.057
 Approx polarizability:      16.599       0.000       2.108      -0.000       0.000       2.108

 ******    1 imaginary frequencies (negative Signs) ******

                      1                      2                      3
                      A                      A                      A
 Frequencies --    -26.9017              1540.5198              1540.5198
 Red. masses --      1.1085                 1.0092                 1.0092
 Frc consts  --      0.0005                 1.4111                 1.4111
 IR Inten    --      0.0056                 0.0162                 0.0162

                      4
                      A
 Frequencies --   1793.8436
 Red. masses --      1.0078
 Frc consts  --      1.9108
 IR Inten    --      0.1725

 - Thermochemistry -
 -------------------
 Temperature   298.150 Kelvin.  Pressure   1.00000 Atm.
 Atom     1 has atomic number  1 and mass   1.00783

 Molecular mass:    21.01405 amu.
 Principal axes and moments of inertia in atomic units:
                           1         2         3
     Eigenvalues --     0.00000 119.34284 119.34284
           X            1.00000  -0.00000   0.00000
           Y            0.00000   1.00000   0.00000
           Z            0.00000   0.00000   1.00000
 This molecule is a prolate symmetric top.
 Rotational symmetry number  1.
 Rotational temperature (Kelvin)      0.72576
 Rotational constant (GHZ):          15.122325
    1 imaginary frequencies ignored.
 Zero-point vibrational energy      29158.3 (Joules/Mol)
                                    6.96900 (Kcal/Mol)
 Vibrational temperatures:   2216.46  2216.46  2580.94
          (Kelvin)

 Zero-point correction=                           0.011106 (Hartree/Particle)
 Thermal correction to Energy=                    0.013476
 Thermal correction to Enthalpy=                  0.014420
 Thermal correction to Gibbs Free Energy=        -0.009534
 Sum of electronic and zero-point Energies=           -100.895461
 Sum of electronic and thermal Energies=              -100.893091
 Sum of electronic and thermal Enthalpies=            -100.892147
 Sum of electronic and thermal Free Energies=         -100.916101

                     E (Thermal)             CV                S
                      KCal/Mol        Cal/Mol-Kelvin    Cal/Mol-Kelvin
 Total                    8.456              5.124             50.415
 Electronic               0.000              0.000              1.377
 Translational            0.889              2.981             35.068
 Rotational               0.592              1.987             13.946
 Vibrational              6.975              0.156              0.023

 Normal termination of Gaussian 16 at Sat Aug 23 00:11:36 2025.
