 Gaussian 16, Revision C.01,
 Gaussian 16:  ES64L-G16RevC.01  3-Jul-2019

 -----------------------------------------
 # sp b3lyp/6-311g** Force nosymm scf=(qc)
 -----------------------------------------

 -------------------
 Title Card Required
 -------------------
 Symbolic Z-matrix:
 Charge =  0 Multiplicity = 2

                          Input orientation:
 ---------------------------------------------------------------------
 Center     Atomic      Atomic             Coordinates (Angstroms)
 Number     Number       Type             X           Y           Z
 ---------------------------------------------------------------------
      1          1           0        0.000000    0.000000    0.000000
      2          1           0       -3.600000    0.000000    0.000000
      3          9           0        1.600000    0.000000    0.000000
 ---------------------------------------------------------------------

 SCF Done:  E(UB3LYP) =  -100.833873874     a.u. after   10 cycles

 Alpha  occ. eigenvalues --  -24.64064  -1.08356  -0.41467  -0.36011  -0.36011
 Alpha  occ. eigenvalues --   -0.33864
 Alpha virt. eigenvalues --   -0.17058   0.19619   0.27088   0.93874   0.93874
 Alpha virt. eigenvalues --    1.01116   1.07191   1.23639   1.23639   1.23646
 Alpha virt. eigenvalues --    1.27710   1.27710   1.72030   2.12252   2.15578

  Beta  occ. eigenvalues --  -24.64831  -1.10414  -0.43225  -0.36747  -0.36747
  Beta virt. eigenvalues --   -0.15652  -0.06310   0.24101   0.38568   0.94172
  Beta virt. eigenvalues --    0.94172   1.00467   1.06969   1.31873   1.31873
  Beta virt. eigenvalues --    1.45960   1.46430   1.46430   1.74080   2.20107

 Mulliken charges and spin densities:
               1          2
     1  H    0.330467   0.243881
     2  H    0.001553   0.998445
     3  F   -0.332020  -0.242326
 Sum of Mulliken charges =  -0.00000   1.00000

 Dipole moment (field-independent basis, Debye):
    X=             -2.6240    Y=              0.0000    Z=             -0.0000  Tot=              2.6240
 Quadrupole moment (field-independent basis, Debye-Ang):
   XX=            -10.1876   YY=             -7.3679   ZZ=             -7.3679
   XY=              0.0000   XZ=             -0.0000   YZ=             -0.0000

  Exact polarizability:      19.500      -0.000       2.147      -0.000      -0.000       2.147
 Approx polarizability:      34.503       0.000       2.061       0.000      -0.000       2.061

 ******    2 imaginary frequencies (negative Signs) ******

                      1                      2                      3
                      A                      A                      A
 Frequencies --  -1920.3345               -60.4967               914.1269
 Red. masses --      1.0586                 1.0529                 1.0300
 Frc consts  --      2.3001                 0.0023                 0.5071
 IR Inten    --     69.5884                 0.3046               103.8861

                      4
                      A
 Frequencies --    914.1269
 Red. masses --      1.0300
 Frc consts  --      0.5071
 IR Inten    --    103.8861

 - Thermochemistry -
 -------------------
 Temperature   298.150 Kelvin.  Pressure   1.00000 Atm.
 Atom     1 has atomic number  1 and mass   1.00783

 Molecular mass:    21.01405 amu.
 Principal axes and moments of inertia in atomic units:
                           1         2         3
     Eigenvalues --     0.00000  98.54931  98.54931
           X            1.00000  -0.00000   0.00000
           Y            0.00000   1.00000   0.00000
           Z            0.00000   0.00000   1.00000
 This molecule is a prolate symmetric top.
 Rotational symmetry number  1.
 Rotational temperature (Kelvin)      0.87889
 Rotational constant (GHZ):          18.313078
    2 imaginary frequencies ignored.
 Zero-point vibrational energy      10935.4 (Joules/Mol)
                                    2.61362 (Kcal/Mol)
 Vibrational temperatures:   1315.22  1315.22
          (Kelvin)

 Zero-point correction=                           0.004165 (Hartree/Particle)
 Thermal correction to Energy=                    0.006628
 Thermal correction to Enthalpy=                  0.007572
 Thermal correction to Gibbs Free Energy=        -0.016315
 Sum of electronic and zero-point Energies=           -100.829709
 Sum of electronic and thermal Energies=              -100.827246
 Sum of electronic and thermal Enthalpies=            -100.826302
 Sum of electronic and thermal Free Energies=         -100.850189

                     E (Thermal)             CV                S
                      KCal/Mol        Cal/Mol-Kelvin    Cal/Mol-Kelvin
 Total                    4.159              5.930             50.275
 Electronic               0.000              0.000              1.377
 Translational            0.889              2.981             35.068
 Rotational               0.592              1.987             13.566
 Vibrational              2.678              0.962              0.264

 Normal termination of Gaussian 16 at Fri Aug 22 16:32:38 2025.
