 Gaussian 16, Revision C.01,
 Gaussian 16:  ES64L-G16RevC.01  3-Jul-2019

 -----------------------------------------
 # sp b3lyp/6-311g** Force nosymm scf=(qc)
 -----------------------------------------

 -------------------
 Title Card Required
 -------------------
 Symbolic Z-matrix:
 Charge =  0 Multiplicity = 2

                          Input orientation:
 ---------------------------------------------------------------------
 Center     Atomic      Atomic             Coordinates (Angstroms)
 Number     Number       Type             X           Y           Z
 ---------------------------------------------------------------------
      1          1           0        0.000000    0.000000    0.000000
      2          1           0       -1.100000    0.000000    0.000000
      3          9           0        3.150000    0.000000    0.000000
 ---------------------------------------------------------------------

 SCF Done:  E(UB3LYP) =  -100.890151498     a.u. after  149 cycles

 Alpha  occ. eigenvalues --  -24.76571  -1.22404  -0.55598  -0.46826  -0.46749
 Alpha  occ. eigenvalues --   -0.37407
 Alpha virt. eigenvalues --   -0.01717   0.22230   0.36390   0.85843   0.90716
 Alpha virt. eigenvalues --    0.93240   1.03083   1.10883   1.10888   1.29839
 Alpha virt. eigenvalues --    1.59998   1.60003   2.17413   2.34742   2.55808

  Beta  occ. eigenvalues --  -24.73411  -1.13321  -0.43666  -0.43581  -0.37396
  Beta virt. eigenvalues --   -0.26228  -0.01702   0.22248   0.36458   0.92216
  Beta virt. eigenvalues --    0.94867   0.95303   1.07012   1.10882   1.10887
  Beta virt. eigenvalues --    1.29848   1.59997   1.60002   2.17425   2.34747

 Mulliken charges and spin densities:
               1          2
     1  H   -0.001575  -0.000439
     2  H   -0.004854  -0.000373
     3  F    0.006430   1.000812
 Sum of Mulliken charges =   0.00000   1.00000

 Dipole moment (field-independent basis, Debye):
    X=              0.0829    Y=              0.0000    Z=             -0.0000  Tot=              0.0829
 Quadrupole moment (field-independent basis, Debye-Ang):
   XX=             -6.1739   YY=             -6.7183   ZZ=             -7.2056
   XY=             -0.0000   XZ=             -0.0000   YZ=              0.3566

  Exact polarizability:      14.350      -0.000       2.437      -0.000       0.191       2.176
 Approx polarizability:      19.928      -0.000       2.570      -0.000       0.240       2.242

                      1                      2                      3
                      A                      A                      A
 Frequencies --     44.5656              1028.0048              1527.6011
 Red. masses --      1.1085                 1.0078                 1.0100
 Frc consts  --      0.0013                 0.6275                 1.3887
 IR Inten    --      0.3366                 0.4997                 0.0002

                      4
                      A
 Frequencies --   1528.4923
 Red. masses --      1.0100
 Frc consts  --      1.3903
 IR Inten    --      0.0004

 - Thermochemistry -
 -------------------
 Temperature   298.150 Kelvin.  Pressure   1.00000 Atm.
 Atom     1 has atomic number  1 and mass   1.00783

 Molecular mass:    21.01405 amu.
 Principal axes and moments of inertia in atomic units:
                           1         2         3
     Eigenvalues --     0.00000  91.26630  91.26630
           X            1.00000  -0.00000   0.00000
           Y            0.00000   1.00000   0.00000
           Z            0.00000   0.00000   1.00000
 This molecule is a prolate symmetric top.
 Rotational symmetry number  1.
 Rotational temperature (Kelvin)      0.94902
 Rotational constant (GHZ):          19.774454
 Zero-point vibrational energy      24694.9 (Joules/Mol)
                                    5.90222 (Kcal/Mol)
 Warning -- explicit consideration of   1 degrees of freedom as
           vibrations may cause significant error
 Vibrational temperatures:     64.12  1479.07  2197.88  2199.16
          (Kelvin)

 Zero-point correction=                           0.009406 (Hartree/Particle)
 Thermal correction to Energy=                    0.012654
 Thermal correction to Enthalpy=                  0.013599
 Thermal correction to Gibbs Free Energy=        -0.012538
 Sum of electronic and zero-point Energies=           -100.880746
 Sum of electronic and thermal Energies=              -100.877497
 Sum of electronic and thermal Enthalpies=            -100.876553
 Sum of electronic and thermal Free Energies=         -100.902689

                     E (Thermal)             CV                S
                      KCal/Mol        Cal/Mol-Kelvin    Cal/Mol-Kelvin
 Total                    7.941              7.431             55.008
 Electronic               0.000              0.000              1.377
 Translational            0.889              2.981             35.068
 Rotational               0.592              1.987             13.413
 Vibrational              6.460              2.463              5.149
 Vibration     1          0.595              1.980              5.045

 Normal termination of Gaussian 16 at Fri Aug 22 20:04:13 2025.
