 Gaussian 16, Revision C.01,
 Gaussian 16:  ES64L-G16RevC.01  3-Jul-2019

 -----------------------------------------
 # sp b3lyp/6-311g** Force nosymm scf=(qc)
 -----------------------------------------

 -------------------
 Title Card Required
 -------------------
 Symbolic Z-matrix:
 Charge =  0 Multiplicity = 2

                          Input orientation:
 ---------------------------------------------------------------------
 Center     Atomic      Atomic             Coordinates (Angstroms)
 Number     Number       Type             X           Y           Z
 ---------------------------------------------------------------------
      1          1           0        0.000000    0.000000    0.000000
      2          1           0       -1.500000    0.000000    0.000000
      3          9           0        2.350000    0.000000    0.000000
 ---------------------------------------------------------------------

 SCF Done:  E(UB3LYP) =  -100.825865287     a.u. after   16 cycles

 Alpha  occ. eigenvalues --  -24.72509  -1.18690  -0.51736  -0.43377  -0.43377
 Alpha  occ. eigenvalues --   -0.36447
 Alpha virt. eigenvalues --   -0.10697   0.23382   0.31387   0.87690   0.93009
 Alpha virt. eigenvalues --    0.93009   1.03322   1.17634   1.17634   1.17903
 Alpha virt. eigenvalues --    1.39489   1.39489   1.79825   2.19785   2.45890

  Beta  occ. eigenvalues --  -24.69638  -1.10515  -0.40514  -0.40514  -0.35904
  Beta virt. eigenvalues --   -0.24543  -0.09745   0.24730   0.31375   0.93557
  Beta virt. eigenvalues --    0.94362   0.94362   1.06491   1.18506   1.18506
  Beta virt. eigenvalues --    1.21649   1.40114   1.40114   1.80681   2.20864

 Mulliken charges and spin densities:
               1          2
     1  H    0.031982  -0.329208
     2  H    0.045325   0.423083
     3  F   -0.077307   0.906125
 Sum of Mulliken charges =  -0.00000   1.00000

 Dipole moment (field-independent basis, Debye):
    X=             -1.2400    Y=             -0.0000    Z=             -0.0000  Tot=              1.2400
 Quadrupole moment (field-independent basis, Debye-Ang):
   XX=             -7.1317   YY=             -7.6342   ZZ=             -7.6342
   XY=             -0.0000   XZ=             -0.0000   YZ=             -0.0000

  Exact polarizability:      57.539       0.000       2.064       0.000      -0.000       2.064
 Approx polarizability:      82.741      -0.000       2.036      -0.000       0.000       2.036

 ******    2 imaginary frequencies (negative Signs) ******

                      1                      2                      3
                      A                      A                      A
 Frequencies --  -2058.5671              -351.7956              1125.8630
 Red. masses --      1.0090                 1.1071                 1.0134
 Frc consts  --      2.5193                 0.0807                 0.7569
 IR Inten    --    719.9424                31.3469                 0.0825

                      4
                      A
 Frequencies --   1125.8630
 Red. masses --      1.0134
 Frc consts  --      0.7569
 IR Inten    --      0.0825

 - Thermochemistry -
 -------------------
 Temperature   298.150 Kelvin.  Pressure   1.00000 Atm.
 Atom     1 has atomic number  1 and mass   1.00783

 Molecular mass:    21.01405 amu.
 Principal axes and moments of inertia in atomic units:
                           1         2         3
     Eigenvalues --     0.00000  66.58682  66.58682
           X            1.00000  -0.00000   0.00000
           Y            0.00000   1.00000   0.00000
           Z            0.00000   0.00000   1.00000
 This molecule is a prolate symmetric top.
 Rotational symmetry number  1.
 Rotational temperature (Kelvin)      1.30077
 Rotational constant (GHZ):          27.103580
    2 imaginary frequencies ignored.
 Zero-point vibrational energy      13468.3 (Joules/Mol)
                                    3.21900 (Kcal/Mol)
 Vibrational temperatures:   1619.87  1619.87
          (Kelvin)

 Zero-point correction=                           0.005130 (Hartree/Particle)
 Thermal correction to Energy=                    0.007535
 Thermal correction to Enthalpy=                  0.008479
 Thermal correction to Gibbs Free Energy=        -0.014966
 Sum of electronic and zero-point Energies=           -100.820735
 Sum of electronic and thermal Energies=              -100.818330
 Sum of electronic and thermal Enthalpies=            -100.817386
 Sum of electronic and thermal Free Energies=         -100.840831

                     E (Thermal)             CV                S
                      KCal/Mol        Cal/Mol-Kelvin    Cal/Mol-Kelvin
 Total                    4.728              5.485             49.345
 Electronic               0.000              0.000              1.377
 Translational            0.889              2.981             35.068
 Rotational               0.592              1.987             12.787
 Vibrational              3.247              0.517              0.112

 Normal termination of Gaussian 16 at Fri Aug 22 17:25:49 2025.
