 Gaussian 16, Revision C.01,
 Gaussian 16:  ES64L-G16RevC.01  3-Jul-2019

 -----------------------------------------
 # sp b3lyp/6-311g** Force nosymm scf=(qc)
 -----------------------------------------

 -------------------
 Title Card Required
 -------------------
 Symbolic Z-matrix:
 Charge =  0 Multiplicity = 2

                          Input orientation:
 ---------------------------------------------------------------------
 Center     Atomic      Atomic             Coordinates (Angstroms)
 Number     Number       Type             X           Y           Z
 ---------------------------------------------------------------------
      1          1           0        0.000000    0.000000    0.000000
      2          1           0       -1.950000    0.000000    0.000000
      3          9           0        3.350000    0.000000    0.000000
 ---------------------------------------------------------------------

 SCF Done:  E(UB3LYP) =  -100.777222528     a.u. after   29 cycles

 Alpha  occ. eigenvalues --  -24.75362  -1.21327  -0.54484  -0.45750  -0.45750
 Alpha  occ. eigenvalues --   -0.33293
 Alpha virt. eigenvalues --   -0.11251   0.25758   0.31786   0.88148   0.91481
 Alpha virt. eigenvalues --    0.91481   1.02181   1.15032   1.24672   1.24672
 Alpha virt. eigenvalues --    1.37362   1.37362   1.53122   2.13083   2.37196

  Beta  occ. eigenvalues --  -24.72256  -1.12403  -0.42638  -0.42638  -0.33354
  Beta virt. eigenvalues --   -0.25533  -0.10959   0.25751   0.32270   0.92967
  Beta virt. eigenvalues --    0.92967   0.97223   1.06196   1.15037   1.24582
  Beta virt. eigenvalues --    1.24582   1.37767   1.37767   1.53434   2.13826

 Mulliken charges and spin densities:
               1          2
     1  H    0.004636  -0.818121
     2  H    0.008512   0.833365
     3  F   -0.013148   0.984756
 Sum of Mulliken charges =  -0.00000   1.00000

 Dipole moment (field-independent basis, Debye):
    X=             -0.3044    Y=             -0.0000    Z=              0.0000  Tot=              0.3044
 Quadrupole moment (field-independent basis, Debye-Ang):
   XX=             -6.7015   YY=             -7.7309   ZZ=             -7.7309
   XY=             -0.0000   XZ=              0.0000   YZ=              0.0000

  Exact polarizability:      49.465      -0.000       2.017       0.000       0.000       2.017
 Approx polarizability:      44.448      -0.000       1.940       0.000      -0.000       1.940

 ******    2 imaginary frequencies (negative Signs) ******

                      1                      2                      3
                      A                      A                      A
 Frequencies --  -1450.3811              -160.7137               599.0886
 Red. masses --      1.0079                 1.1085                 1.0127
 Frc consts  --      1.2491                 0.0169                 0.2142
 IR Inten    --     19.2416                11.4966                 0.0011

                      4
                      A
 Frequencies --    599.0886
 Red. masses --      1.0127
 Frc consts  --      0.2142
 IR Inten    --      0.0011

 - Thermochemistry -
 -------------------
 Temperature   298.150 Kelvin.  Pressure   1.00000 Atm.
 Atom     1 has atomic number  1 and mass   1.00783

 Molecular mass:    21.01405 amu.
 Principal axes and moments of inertia in atomic units:
                           1         2         3
     Eigenvalues --     0.00000 128.57114 128.57114
           X            1.00000  -0.00000   0.00000
           Y            0.00000   1.00000   0.00000
           Z            0.00000   0.00000   1.00000
 This molecule is a prolate symmetric top.
 Rotational symmetry number  1.
 Rotational temperature (Kelvin)      0.67367
 Rotational constant (GHZ):          14.036907
    2 imaginary frequencies ignored.
 Zero-point vibrational energy       7166.7 (Joules/Mol)
                                    1.71288 (Kcal/Mol)
 Warning -- explicit consideration of   2 degrees of freedom as
           vibrations may cause significant error
 Vibrational temperatures:    861.95   861.95
          (Kelvin)

 Zero-point correction=                           0.002730 (Hartree/Particle)
 Thermal correction to Energy=                    0.005411
 Thermal correction to Enthalpy=                  0.006355
 Thermal correction to Gibbs Free Energy=        -0.018087
 Sum of electronic and zero-point Energies=           -100.774493
 Sum of electronic and thermal Energies=              -100.771811
 Sum of electronic and thermal Enthalpies=            -100.770867
 Sum of electronic and thermal Free Energies=         -100.795309

                     E (Thermal)             CV                S
                      KCal/Mol        Cal/Mol-Kelvin    Cal/Mol-Kelvin
 Total                    3.395              7.035             51.442
 Electronic               0.000              0.000              1.377
 Translational            0.889              2.981             35.068
 Rotational               0.592              1.987             14.094
 Vibrational              1.914              2.067              0.902
 Vibration     1          0.957              1.034              0.451
 Vibration     2          0.957              1.034              0.451

 Normal termination of Gaussian 16 at Fri Aug 22 21:01:07 2025.
