 Gaussian 16, Revision C.01,
 Gaussian 16:  ES64L-G16RevC.01  3-Jul-2019

 -----------------------------------------
 # sp b3lyp/6-311g** Force nosymm scf=(qc)
 -----------------------------------------

 -------------------
 Title Card Required
 -------------------
 Symbolic Z-matrix:
 Charge =  0 Multiplicity = 2

                          Input orientation:
 ---------------------------------------------------------------------
 Center     Atomic      Atomic             Coordinates (Angstroms)
 Number     Number       Type             X           Y           Z
 ---------------------------------------------------------------------
      1          1           0        0.000000    0.000000    0.000000
      2          1           0       -0.500000    0.000000    0.000000
      3          9           0        2.050000    0.000000    0.000000
 ---------------------------------------------------------------------

 SCF Done:  E(UB3LYP) =  -100.861086411     a.u. after   57 cycles

 Alpha  occ. eigenvalues --  -24.75605  -1.21617  -0.55976  -0.49535  -0.45994
 Alpha  occ. eigenvalues --   -0.45994
 Alpha virt. eigenvalues --    0.11599   0.19479   0.53332   0.90525   0.90525
 Alpha virt. eigenvalues --    0.92884   1.11307   1.11307   1.18157   1.63602
 Alpha virt. eigenvalues --    1.84207   1.98840   1.98840   2.43882   3.67699

  Beta  occ. eigenvalues --  -24.72498  -1.12733  -0.50516  -0.42891  -0.42891
  Beta virt. eigenvalues --   -0.25756   0.12070   0.20064   0.53922   0.91946
  Beta virt. eigenvalues --    0.91946   1.00612   1.11651   1.11651   1.22160
  Beta virt. eigenvalues --    1.64328   1.84608   1.98938   1.98938   2.44368

 Mulliken charges and spin densities:
               1          2
     1  H   -0.011359  -0.014310
     2  H    0.024284   0.037694
     3  F   -0.012925   0.976616
 Sum of Mulliken charges =   0.00000   1.00000

 Dipole moment (field-independent basis, Debye):
    X=             -0.1756    Y=              0.0000    Z=              0.0000  Tot=              0.1756
 Quadrupole moment (field-independent basis, Debye-Ang):
   XX=             -5.6491   YY=             -6.5691   ZZ=             -6.5691
   XY=              0.0000   XZ=              0.0000   YZ=              0.0000

  Exact polarizability:       9.257       0.000       1.939       0.000      -0.000       1.939
 Approx polarizability:       9.478       0.000       2.018       0.000      -0.000       2.018

 ******    2 imaginary frequencies (negative Signs) ******

                      1                      2                      3
                      A                      A                      A
 Frequencies --  -4848.4719             -4848.4719               199.0453
 Red. masses --      1.0090                 1.0090                 1.1085
 Frc consts  --     13.9751                13.9751                 0.0259
 IR Inten    --      0.8019                 0.8019                 7.0498

                      4
                      A
 Frequencies --   9941.5799
 Red. masses --      1.0078
 Frc consts  --     58.6876
 IR Inten    --     58.6342

 - Thermochemistry -
 -------------------
 Temperature   298.150 Kelvin.  Pressure   1.00000 Atm.
 Atom     1 has atomic number  1 and mass   1.00783

 Molecular mass:    21.01405 amu.
 Principal axes and moments of inertia in atomic units:
                           1         2         3
     Eigenvalues --     0.00000  34.87502  34.87502
           X            1.00000  -0.00000   0.00000
           Y            0.00000   1.00000   0.00000
           Z            0.00000   0.00000   1.00000
 This molecule is a prolate symmetric top.
 Rotational symmetry number  1.
 Rotational temperature (Kelvin)      2.48355
 Rotational constant (GHZ):          51.748816
    2 imaginary frequencies ignored.
 Zero-point vibrational energy      60654.4 (Joules/Mol)
                                   14.49675 (Kcal/Mol)
 Warning -- explicit consideration of   1 degrees of freedom as
           vibrations may cause significant error
 Vibrational temperatures:    286.38 14303.72
          (Kelvin)

 Zero-point correction=                           0.023102 (Hartree/Particle)
 Thermal correction to Energy=                    0.026025
 Thermal correction to Enthalpy=                  0.026969
 Thermal correction to Gibbs Free Energy=         0.003170
 Sum of electronic and zero-point Energies=           -100.837984
 Sum of electronic and thermal Energies=              -100.835062
 Sum of electronic and thermal Enthalpies=            -100.834117
 Sum of electronic and thermal Free Energies=         -100.857916

                     E (Thermal)             CV                S
                      KCal/Mol        Cal/Mol-Kelvin    Cal/Mol-Kelvin
 Total                   16.331              6.809             50.089
 Electronic               0.000              0.000              1.377
 Translational            0.889              2.981             35.068
 Rotational               0.592              1.987             11.502
 Vibrational             14.850              1.841              2.142
 Vibration     1          0.637              1.841              2.142

 Normal termination of Gaussian 16 at Fri Aug 22 16:58:28 2025.
