 Gaussian 16, Revision C.01,
 Gaussian 16:  ES64L-G16RevC.01  3-Jul-2019

 -----------------------------------------
 # sp b3lyp/6-311g** Force nosymm scf=(qc)
 -----------------------------------------

 -------------------
 Title Card Required
 -------------------
 Symbolic Z-matrix:
 Charge =  0 Multiplicity = 2

                          Input orientation:
 ---------------------------------------------------------------------
 Center     Atomic      Atomic             Coordinates (Angstroms)
 Number     Number       Type             X           Y           Z
 ---------------------------------------------------------------------
      1          1           0        0.000000    0.000000    0.000000
      2          1           0       -2.750000    0.000000    0.000000
      3          9           0        1.400000    0.000000    0.000000
 ---------------------------------------------------------------------

 SCF Done:  E(UB3LYP) =  -100.877914438     a.u. after    7 cycles

 Alpha  occ. eigenvalues --  -24.64208  -1.10188  -0.44531  -0.36576  -0.36576
 Alpha  occ. eigenvalues --   -0.35022
 Alpha virt. eigenvalues --   -0.11436   0.22563   0.27222   0.93262   0.93262
 Alpha virt. eigenvalues --    1.03221   1.16025   1.22495   1.22495   1.23907
 Alpha virt. eigenvalues --    1.32862   1.32862   1.72573   2.13595   2.22054

  Beta  occ. eigenvalues --  -24.64141  -1.10011  -0.44311  -0.36512  -0.36512
  Beta virt. eigenvalues --   -0.13402  -0.06735   0.25330   0.36685   0.93244
  Beta virt. eigenvalues --    0.93244   1.03394   1.16447   1.32623   1.32623
  Beta virt. eigenvalues --    1.44070   1.44070   1.44148   1.72749   2.21673

 Mulliken charges and spin densities:
               1          2
     1  H    0.349907  -0.010872
     2  H    0.009267   0.989500
     3  F   -0.359174   0.021373
 Sum of Mulliken charges =  -0.00000   1.00000

 Dipole moment (field-independent basis, Debye):
    X=             -2.6233    Y=             -0.0000    Z=             -0.0000  Tot=              2.6233
 Quadrupole moment (field-independent basis, Debye-Ang):
   XX=             -9.2476   YY=             -7.2652   ZZ=             -7.2652
   XY=             -0.0000   XZ=             -0.0000   YZ=             -0.0000

  Exact polarizability:      16.519      -0.000       2.244       0.000       0.000       2.244
 Approx polarizability:      25.479       0.000       2.180       0.000       0.000       2.180

 ******    2 imaginary frequencies (negative Signs) ******

                      1                      2                      3
                      A                      A                      A
 Frequencies --  -1066.7217              -168.4067              1076.1347
 Red. masses --      1.0527                 1.0589                 1.0278
 Frc consts  --      0.7058                 0.0177                 0.7013
 IR Inten    --     95.5511                 1.2190               115.9156

                      4
                      A
 Frequencies --   1076.1347
 Red. masses --      1.0278
 Frc consts  --      0.7013
 IR Inten    --    115.9156

 - Thermochemistry -
 -------------------
 Temperature   298.150 Kelvin.  Pressure   1.00000 Atm.
 Atom     1 has atomic number  1 and mass   1.00783

 Molecular mass:    21.01405 amu.
 Principal axes and moments of inertia in atomic units:
                           1         2         3
     Eigenvalues --     0.00000  63.72126  63.72126
           X            1.00000  -0.00000   0.00000
           Y            0.00000   1.00000   0.00000
           Z            0.00000   0.00000   1.00000
 This molecule is a prolate symmetric top.
 Rotational symmetry number  1.
 Rotational temperature (Kelvin)      1.35926
 Rotational constant (GHZ):          28.322436
    2 imaginary frequencies ignored.
 Zero-point vibrational energy      12873.4 (Joules/Mol)
                                    3.07682 (Kcal/Mol)
 Vibrational temperatures:   1548.32  1548.32
          (Kelvin)

 Zero-point correction=                           0.004903 (Hartree/Particle)
 Thermal correction to Energy=                    0.007318
 Thermal correction to Enthalpy=                  0.008263
 Thermal correction to Gibbs Free Energy=        -0.015153
 Sum of electronic and zero-point Energies=           -100.873011
 Sum of electronic and thermal Energies=              -100.870596
 Sum of electronic and thermal Enthalpies=            -100.869652
 Sum of electronic and thermal Free Energies=         -100.893067

                     E (Thermal)             CV                S
                      KCal/Mol        Cal/Mol-Kelvin    Cal/Mol-Kelvin
 Total                    4.592              5.570             49.282
 Electronic               0.000              0.000              1.377
 Translational            0.889              2.981             35.068
 Rotational               0.592              1.987             12.700
 Vibrational              3.111              0.602              0.137

 Normal termination of Gaussian 16 at Fri Aug 22 16:20:42 2025.
