 Gaussian 16, Revision C.01,
 Gaussian 16:  ES64L-G16RevC.01  3-Jul-2019

 -----------------------------------------
 # sp b3lyp/6-311g** Force nosymm scf=(qc)
 -----------------------------------------

 -------------------
 Title Card Required
 -------------------
 Symbolic Z-matrix:
 Charge =  0 Multiplicity = 2

                          Input orientation:
 ---------------------------------------------------------------------
 Center     Atomic      Atomic             Coordinates (Angstroms)
 Number     Number       Type             X           Y           Z
 ---------------------------------------------------------------------
      1          1           0        0.000000    0.000000    0.000000
      2          1           0       -3.150000    0.000000    0.000000
      3          9           0        2.550000    0.000000    0.000000
 ---------------------------------------------------------------------

 SCF Done:  E(UB3LYP) =  -100.766945252     a.u. after   20 cycles

 Alpha  occ. eigenvalues --  -24.72031  -1.18228  -0.51136  -0.42953  -0.42953
 Alpha  occ. eigenvalues --   -0.33037
 Alpha virt. eigenvalues --   -0.10398   0.23932   0.34902   0.89902   0.93460
 Alpha virt. eigenvalues --    0.93460   1.06272   1.24491   1.24491   1.25074
 Alpha virt. eigenvalues --    1.40799   1.40799   1.43862   2.14955   2.35884

  Beta  occ. eigenvalues --  -24.69163  -1.10059  -0.40093  -0.40093  -0.35161
  Beta virt. eigenvalues --   -0.23534  -0.07457   0.24440   0.37164   0.94843
  Beta virt. eigenvalues --    0.94843   0.96817   1.08869   1.22269   1.22269
  Beta virt. eigenvalues --    1.28411   1.44930   1.45077   1.45077   2.13808

 Mulliken charges and spin densities:
               1          2
     1  H    0.081046  -0.901398
     2  H    0.002051   0.994962
     3  F   -0.083097   0.906436
 Sum of Mulliken charges =  -0.00000   1.00000

 Dipole moment (field-independent basis, Debye):
    X=             -1.1108    Y=             -0.0000    Z=              0.0000  Tot=              1.1108
 Quadrupole moment (field-independent basis, Debye-Ang):
   XX=             -9.1230   YY=             -7.5840   ZZ=             -7.5840
   XY=             -0.0000   XZ=              0.0000   YZ=              0.0000

  Exact polarizability:      33.276      -0.000       2.023       0.000       0.000       2.023
 Approx polarizability:      39.980      -0.000       1.920       0.000      -0.000       1.920

 ******    2 imaginary frequencies (negative Signs) ******

                      1                      2                      3
                      A                      A                      A
 Frequencies --   -607.9205              -179.8228               235.5670
 Red. masses --      1.0477                 1.0640                 1.0207
 Frc consts  --      0.2281                 0.0203                 0.0334
 IR Inten    --     73.8404                 1.6542                 6.0911

                      4
                      A
 Frequencies --    235.5670
 Red. masses --      1.0207
 Frc consts  --      0.0334
 IR Inten    --      6.0911

 - Thermochemistry -
 -------------------
 Temperature   298.150 Kelvin.  Pressure   1.00000 Atm.
 Atom     1 has atomic number  1 and mass   1.00783

 Molecular mass:    21.01405 amu.
 Principal axes and moments of inertia in atomic units:
                           1         2         3
     Eigenvalues --     0.00000 128.58628 128.58628
           X            1.00000  -0.00000   0.00000
           Y            0.00000   1.00000   0.00000
           Z            0.00000   0.00000   1.00000
 This molecule is a prolate symmetric top.
 Rotational symmetry number  1.
 Rotational temperature (Kelvin)      0.67359
 Rotational constant (GHZ):          14.035255
    2 imaginary frequencies ignored.
 Zero-point vibrational energy       2818.0 (Joules/Mol)
                                    0.67352 (Kcal/Mol)
 Warning -- explicit consideration of   2 degrees of freedom as
           vibrations may cause significant error
 Vibrational temperatures:    338.93   338.93
          (Kelvin)

 Zero-point correction=                           0.001073 (Hartree/Particle)
 Thermal correction to Energy=                    0.004448
 Thermal correction to Enthalpy=                  0.005392
 Thermal correction to Gibbs Free Energy=        -0.020366
 Sum of electronic and zero-point Energies=           -100.765872
 Sum of electronic and thermal Energies=              -100.762497
 Sum of electronic and thermal Enthalpies=            -100.761553
 Sum of electronic and thermal Free Energies=         -100.787311

                     E (Thermal)             CV                S
                      KCal/Mol        Cal/Mol-Kelvin    Cal/Mol-Kelvin
 Total                    2.791              8.541             54.212
 Electronic               0.000              0.000              1.377
 Translational            0.889              2.981             35.068
 Rotational               0.592              1.987             14.095
 Vibrational              1.310              3.573              3.672
 Vibration     1          0.655              1.786              1.836
 Vibration     2          0.655              1.786              1.836

 Normal termination of Gaussian 16 at Fri Aug 22 17:54:57 2025.
