 Gaussian 16, Revision C.01,
 Gaussian 16:  ES64L-G16RevC.01  3-Jul-2019

 -----------------------------------------
 # sp b3lyp/6-311g** Force nosymm scf=(qc)
 -----------------------------------------

 -------------------
 Title Card Required
 -------------------
 Symbolic Z-matrix:
 Charge =  0 Multiplicity = 2

                          Input orientation:
 ---------------------------------------------------------------------
 Center     Atomic      Atomic             Coordinates (Angstroms)
 Number     Number       Type             X           Y           Z
 ---------------------------------------------------------------------
      1          1           0        0.000000    0.000000    0.000000
      2          1           0       -0.600000    0.000000    0.000000
      3          9           0        3.750000    0.000000    0.000000
 ---------------------------------------------------------------------

 SCF Done:  E(UB3LYP) =  -100.914559985     a.u. after  107 cycles

 Alpha  occ. eigenvalues --  -24.76237  -1.22113  -0.55316  -0.46665  -0.46471
 Alpha  occ. eigenvalues --   -0.46423
 Alpha virt. eigenvalues --    0.08424   0.18885   0.51769   0.86073   0.90950
 Alpha virt. eigenvalues --    0.92398   1.01517   1.10204   1.10207   1.60511
 Alpha virt. eigenvalues --    1.81695   1.92748   1.92751   2.36967   3.64908

  Beta  occ. eigenvalues --  -24.73081  -1.13036  -0.46598  -0.43324  -0.43306
  Beta virt. eigenvalues --   -0.25960   0.08437   0.18891   0.51819   0.92450
  Beta virt. eigenvalues --    0.93895   0.95538   1.05602   1.10204   1.10207
  Beta virt. eigenvalues --    1.60515   1.81712   1.92747   1.92750   2.36968

 Mulliken charges and spin densities:
               1          2
     1  H   -0.001120  -0.000353
     2  H   -0.001521   0.000062
     3  F    0.002641   1.000291
 Sum of Mulliken charges =   0.00000   1.00000

 Dipole moment (field-independent basis, Debye):
    X=              0.0328    Y=             -0.0000    Z=              0.0000  Tot=              0.0328
 Quadrupole moment (field-independent basis, Debye-Ang):
   XX=             -6.1991   YY=             -5.9861   ZZ=             -6.6245
   XY=              0.0000   XZ=             -0.0000   YZ=             -0.2914

  Exact polarizability:       6.344       0.000       2.272      -0.000      -0.157       1.928
 Approx polarizability:       6.922       0.000       2.455      -0.000      -0.196       2.025

 ******    3 imaginary frequencies (negative Signs) ******

                      1                      2                      3
                      A                      A                      A
 Frequencies --  -2766.2433             -2765.3423               -51.1033
 Red. masses --      1.0084                 1.0084                 1.1085
 Frc consts  --      4.5463                 4.5433                 0.0017
 IR Inten    --      0.0011                 0.0008                 0.0861

                      4
                      A
 Frequencies --   7042.5131
 Red. masses --      1.0078
 Frc consts  --     29.4504
 IR Inten    --      0.0295

 - Thermochemistry -
 -------------------
 Temperature   298.150 Kelvin.  Pressure   1.00000 Atm.
 Atom     1 has atomic number  1 and mass   1.00783

 Molecular mass:    21.01405 amu.
 Principal axes and moments of inertia in atomic units:
                           1         2         3
     Eigenvalues --     0.00000 107.38856 107.38856
           X            1.00000  -0.00000   0.00000
           Y            0.00000   1.00000   0.00000
           Z            0.00000   0.00000   1.00000
 This molecule is a prolate symmetric top.
 Rotational symmetry number  1.
 Rotational temperature (Kelvin)      0.80655
 Rotational constant (GHZ):          16.805712
    3 imaginary frequencies ignored.
 Zero-point vibrational energy      42123.6 (Joules/Mol)
                                   10.06778 (Kcal/Mol)
 Vibrational temperatures:  10132.61
          (Kelvin)

 Zero-point correction=                           0.016044 (Hartree/Particle)
 Thermal correction to Energy=                    0.018404
 Thermal correction to Enthalpy=                  0.019349
 Thermal correction to Gibbs Free Energy=        -0.004494
 Sum of electronic and zero-point Energies=           -100.898516
 Sum of electronic and thermal Energies=              -100.896155
 Sum of electronic and thermal Enthalpies=            -100.895211
 Sum of electronic and thermal Free Energies=         -100.919054

                     E (Thermal)             CV                S
                      KCal/Mol        Cal/Mol-Kelvin    Cal/Mol-Kelvin
 Total                   11.549              4.968             50.182
 Electronic               0.000              0.000              1.377
 Translational            0.889              2.981             35.068
 Rotational               0.592              1.987             13.737
 Vibrational             10.068              0.000              0.000

 Normal termination of Gaussian 16 at Sat Aug 23 00:07:20 2025.
