 Gaussian 16, Revision C.01,
 Gaussian 16:  ES64L-G16RevC.01  3-Jul-2019

 -----------------------------------------
 # sp b3lyp/6-311g** Force nosymm scf=(qc)
 -----------------------------------------

 -------------------
 Title Card Required
 -------------------
 Symbolic Z-matrix:
 Charge =  0 Multiplicity = 2

                          Input orientation:
 ---------------------------------------------------------------------
 Center     Atomic      Atomic             Coordinates (Angstroms)
 Number     Number       Type             X           Y           Z
 ---------------------------------------------------------------------
      1          1           0        0.000000    0.000000    0.000000
      2          1           0       -0.700000    0.000000    0.000000
      3          9           0        2.950000    0.000000    0.000000
 ---------------------------------------------------------------------

 SCF Done:  E(UB3LYP) =  -100.933035736     a.u. after   14 cycles

 Alpha  occ. eigenvalues --  -24.76632  -1.22432  -0.55623  -0.46930  -0.46772
 Alpha  occ. eigenvalues --   -0.43992
 Alpha virt. eigenvalues --    0.07115   0.19707   0.48844   0.85847   0.90719
 Alpha virt. eigenvalues --    0.93915   1.06773   1.09071   1.09079   1.57972
 Alpha virt. eigenvalues --    1.85976   1.85986   1.91571   2.38726   3.57095

  Beta  occ. eigenvalues --  -24.73470  -1.13343  -0.44440  -0.43602  -0.43308
  Beta virt. eigenvalues --   -0.26244   0.07168   0.19740   0.48954   0.92217
  Beta virt. eigenvalues --    0.95303   0.95781   1.09071   1.09078   1.10375
  Beta virt. eigenvalues --    1.57987   1.85975   1.85985   1.91605   2.38732

 Mulliken charges and spin densities:
               1          2
     1  H   -0.006615  -0.001391
     2  H   -0.003615   0.000004
     3  F    0.010230   1.001386
 Sum of Mulliken charges =   0.00000   1.00000

 Dipole moment (field-independent basis, Debye):
    X=              0.0980    Y=             -0.0000    Z=              0.0000  Tot=              0.0980
 Quadrupole moment (field-independent basis, Debye-Ang):
   XX=             -6.0471   YY=             -6.4592   ZZ=             -6.4585
   XY=             -0.0000   XZ=              0.0000   YZ=             -0.4317

  Exact polarizability:       8.033      -0.000       2.166      -0.000      -0.229       2.166
 Approx polarizability:       8.957      -0.000       2.305      -0.000      -0.288       2.305

 ******    2 imaginary frequencies (negative Signs) ******

                      1                      2                      3
                      A                      A                      A
 Frequencies --  -1164.1685             -1164.0780                66.8060
 Red. masses --      1.0090                 1.0090                 1.1085
 Frc consts  --      0.8057                 0.8055                 0.0029
 IR Inten    --      0.0176                 0.0164                 0.2434

                      4
                      A
 Frequencies --   5088.2037
 Red. masses --      1.0078
 Frc consts  --     15.3732
 IR Inten    --      0.4869

 - Thermochemistry -
 -------------------
 Temperature   298.150 Kelvin.  Pressure   1.00000 Atm.
 Atom     1 has atomic number  1 and mass   1.00783

 Molecular mass:    21.01405 amu.
 Principal axes and moments of inertia in atomic units:
                           1         2         3
     Eigenvalues --     0.00000  71.74941  71.74941
           X            1.00000  -0.00000   0.00000
           Y            0.00000   1.00000   0.00000
           Z            0.00000   0.00000   1.00000
 This molecule is a prolate symmetric top.
 Rotational symmetry number  1.
 Rotational temperature (Kelvin)      1.20717
 Rotational constant (GHZ):          25.153396
    2 imaginary frequencies ignored.
 Zero-point vibrational energy      30833.8 (Joules/Mol)
                                    7.36946 (Kcal/Mol)
 Warning -- explicit consideration of   1 degrees of freedom as
           vibrations may cause significant error
 Vibrational temperatures:     96.12  7320.79
          (Kelvin)

 Zero-point correction=                           0.011744 (Hartree/Particle)
 Thermal correction to Energy=                    0.014905
 Thermal correction to Enthalpy=                  0.015849
 Thermal correction to Gibbs Free Energy=        -0.009631
 Sum of electronic and zero-point Energies=           -100.921292
 Sum of electronic and thermal Energies=              -100.918131
 Sum of electronic and thermal Enthalpies=            -100.917187
 Sum of electronic and thermal Free Energies=         -100.942666

                     E (Thermal)             CV                S
                      KCal/Mol        Cal/Mol-Kelvin    Cal/Mol-Kelvin
 Total                    9.353              6.938             53.626
 Electronic               0.000              0.000              1.377
 Translational            0.889              2.981             35.068
 Rotational               0.592              1.987             12.935
 Vibrational              7.872              1.970              4.245
 Vibration     1          0.598              1.970              4.245

 Normal termination of Gaussian 16 at Fri Aug 22 19:08:02 2025.
