 Gaussian 16, Revision C.01,
 Gaussian 16:  ES64L-G16RevC.01  3-Jul-2019

 -----------------------------------------
 # sp b3lyp/6-311g** Force nosymm scf=(qc)
 -----------------------------------------

 -------------------
 Title Card Required
 -------------------
 Symbolic Z-matrix:
 Charge =  0 Multiplicity = 2

                          Input orientation:
 ---------------------------------------------------------------------
 Center     Atomic      Atomic             Coordinates (Angstroms)
 Number     Number       Type             X           Y           Z
 ---------------------------------------------------------------------
      1          1           0        0.000000    0.000000    0.000000
      2          1           0       -1.100000    0.000000    0.000000
      3          9           0        2.100000    0.000000    0.000000
 ---------------------------------------------------------------------

 SCF Done:  E(UB3LYP) =  -100.893367969     a.u. after   13 cycles

 Alpha  occ. eigenvalues --  -24.73622  -1.19775  -0.53189  -0.44352  -0.44352
 Alpha  occ. eigenvalues --   -0.39706
 Alpha virt. eigenvalues --   -0.02072   0.21631   0.36164   0.89052   0.91746
 Alpha virt. eigenvalues --    0.91746   1.08683   1.08737   1.08737   1.39730
 Alpha virt. eigenvalues --    1.57804   1.57804   2.15343   2.31883   2.55125

  Beta  occ. eigenvalues --  -24.70695  -1.11445  -0.41436  -0.41436  -0.39470
  Beta virt. eigenvalues --   -0.25313  -0.00886   0.22300   0.36643   0.93084
  Beta virt. eigenvalues --    0.93084   0.96501   1.09608   1.09608   1.11662
  Beta virt. eigenvalues --    1.42156   1.58430   1.58430   2.16483   2.32832

 Mulliken charges and spin densities:
               1          2
     1  H    0.019789  -0.066269
     2  H    0.041132   0.146115
     3  F   -0.060921   0.920155
 Sum of Mulliken charges =  -0.00000   1.00000

 Dipole moment (field-independent basis, Debye):
    X=             -0.8410    Y=             -0.0000    Z=             -0.0000  Tot=              0.8410
 Quadrupole moment (field-independent basis, Debye-Ang):
   XX=             -6.5168   YY=             -7.3165   ZZ=             -7.3165
   XY=             -0.0000   XZ=             -0.0000   YZ=             -0.0000

  Exact polarizability:      35.257      -0.000       2.156      -0.000      -0.000       2.156
 Approx polarizability:      46.494       0.000       2.169       0.000       0.000       2.169

 ******    1 imaginary frequencies (negative Signs) ******

                      1                      2                      3
                      A                      A                      A
 Frequencies --   -649.9513               643.8906              1451.1278
 Red. masses --      1.0727                 1.0394                 1.0120
 Frc consts  --      0.2670                 0.2539                 1.2556
 IR Inten    --    423.2832               241.7655                 0.0081

                      4
                      A
 Frequencies --   1451.1278
 Red. masses --      1.0120
 Frc consts  --      1.2556
 IR Inten    --      0.0081

 - Thermochemistry -
 -------------------
 Temperature   298.150 Kelvin.  Pressure   1.00000 Atm.
 Atom     1 has atomic number  1 and mass   1.00783

 Molecular mass:    21.01405 amu.
 Principal axes and moments of inertia in atomic units:
                           1         2         3
     Eigenvalues --     0.00000  47.87695  47.87695
           X            1.00000  -0.00000   0.00000
           Y            0.00000   1.00000   0.00000
           Z            0.00000   0.00000   1.00000
 This molecule is a prolate symmetric top.
 Rotational symmetry number  1.
 Rotational temperature (Kelvin)      1.80909
 Rotational constant (GHZ):          37.695411
    1 imaginary frequencies ignored.
 Zero-point vibrational energy      21210.7 (Joules/Mol)
                                    5.06947 (Kcal/Mol)
 Vibrational temperatures:    926.41  2087.85  2087.85
          (Kelvin)

 Zero-point correction=                           0.008079 (Hartree/Particle)
 Thermal correction to Energy=                    0.010589
 Thermal correction to Enthalpy=                  0.011533
 Thermal correction to Gibbs Free Energy=        -0.011742
 Sum of electronic and zero-point Energies=           -100.885289
 Sum of electronic and thermal Energies=              -100.882779
 Sum of electronic and thermal Enthalpies=            -100.881835
 Sum of electronic and thermal Free Energies=         -100.905110

                     E (Thermal)             CV                S
                      KCal/Mol        Cal/Mol-Kelvin    Cal/Mol-Kelvin
 Total                    6.644              6.086             48.986
 Electronic               0.000              0.000              1.377
 Translational            0.889              2.981             35.068
 Rotational               0.592              1.987             12.131
 Vibrational              5.163              1.118              0.409

 Normal termination of Gaussian 16 at Fri Aug 22 17:02:59 2025.
