 Gaussian 16, Revision C.01,
 Gaussian 16:  ES64L-G16RevC.01  3-Jul-2019

 -----------------------------------------
 # sp b3lyp/6-311g** Force nosymm scf=(qc)
 -----------------------------------------

 -------------------
 Title Card Required
 -------------------
 Symbolic Z-matrix:
 Charge =  0 Multiplicity = 2

                          Input orientation:
 ---------------------------------------------------------------------
 Center     Atomic      Atomic             Coordinates (Angstroms)
 Number     Number       Type             X           Y           Z
 ---------------------------------------------------------------------
      1          1           0        0.000000    0.000000    0.000000
      2          1           0       -2.650000    0.000000    0.000000
      3          9           0        1.450000    0.000000    0.000000
 ---------------------------------------------------------------------

 SCF Done:  E(UB3LYP) =  -100.866686812     a.u. after    8 cycles

 Alpha  occ. eigenvalues --  -24.64150  -1.09870  -0.43883  -0.36388  -0.36388
 Alpha  occ. eigenvalues --   -0.35284
 Alpha virt. eigenvalues --   -0.12615   0.22656   0.26945   0.93491   0.93491
 Alpha virt. eigenvalues --    1.03561   1.13097   1.22218   1.22218   1.24055
 Alpha virt. eigenvalues --    1.32336   1.32336   1.73604   2.13362   2.20844

  Beta  occ. eigenvalues --  -24.64023  -1.09537  -0.43494  -0.36268  -0.36268
  Beta virt. eigenvalues --   -0.14651  -0.07273   0.25178   0.36221   0.93451
  Beta virt. eigenvalues --    0.93451   1.03879   1.13502   1.31833   1.31833
  Beta virt. eigenvalues --    1.43356   1.43356   1.43785   1.73688   2.20059

 Mulliken charges and spin densities:
               1          2
     1  H    0.344122  -0.025583
     2  H    0.012623   0.985660
     3  F   -0.356746   0.039923
 Sum of Mulliken charges =   0.00000   1.00000

 Dipole moment (field-independent basis, Debye):
    X=             -2.7129    Y=             -0.0000    Z=              0.0000  Tot=              2.7129
 Quadrupole moment (field-independent basis, Debye-Ang):
   XX=             -9.3323   YY=             -7.2953   ZZ=             -7.2953
   XY=             -0.0000   XZ=              0.0000   YZ=             -0.0000

  Exact polarizability:      18.785      -0.000       2.222      -0.000       0.000       2.222
 Approx polarizability:      29.650       0.000       2.154      -0.000       0.000       2.154

 ******    2 imaginary frequencies (negative Signs) ******

                      1                      2                      3
                      A                      A                      A
 Frequencies --  -1185.8117              -201.2634              1036.1420
 Red. masses --      1.0513                 1.0603                 1.0266
 Frc consts  --      0.8710                 0.0253                 0.6494
 IR Inten    --    105.5757                 1.8870               108.2666

                      4
                      A
 Frequencies --   1036.1420
 Red. masses --      1.0266
 Frc consts  --      0.6494
 IR Inten    --    108.2666

 - Thermochemistry -
 -------------------
 Temperature   298.150 Kelvin.  Pressure   1.00000 Atm.
 Atom     1 has atomic number  1 and mass   1.00783

 Molecular mass:    21.01405 amu.
 Principal axes and moments of inertia in atomic units:
                           1         2         3
     Eigenvalues --     0.00000  62.74952  62.74952
           X            1.00000  -0.00000   0.00000
           Y            0.00000   1.00000   0.00000
           Z            0.00000   0.00000   1.00000
 This molecule is a prolate symmetric top.
 Rotational symmetry number  1.
 Rotational temperature (Kelvin)      1.38031
 Rotational constant (GHZ):          28.761034
    2 imaginary frequencies ignored.
 Zero-point vibrational energy      12395.0 (Joules/Mol)
                                    2.96248 (Kcal/Mol)
 Vibrational temperatures:   1490.78  1490.78
          (Kelvin)

 Zero-point correction=                           0.004721 (Hartree/Particle)
 Thermal correction to Energy=                    0.007146
 Thermal correction to Enthalpy=                  0.008090
 Thermal correction to Gibbs Free Energy=        -0.015323
 Sum of electronic and zero-point Energies=           -100.861966
 Sum of electronic and thermal Energies=              -100.859541
 Sum of electronic and thermal Enthalpies=            -100.858597
 Sum of electronic and thermal Free Energies=         -100.882010

                     E (Thermal)             CV                S
                      KCal/Mol        Cal/Mol-Kelvin    Cal/Mol-Kelvin
 Total                    4.484              5.647             49.276
 Electronic               0.000              0.000              1.377
 Translational            0.889              2.981             35.068
 Rotational               0.592              1.987             12.669
 Vibrational              3.003              0.679              0.162

 Normal termination of Gaussian 16 at Fri Aug 22 16:23:17 2025.
