 Gaussian 16, Revision C.01,
 Gaussian 16:  ES64L-G16RevC.01  3-Jul-2019

 -----------------------------------------
 # sp b3lyp/6-311g** Force nosymm scf=(qc)
 -----------------------------------------

 -------------------
 Title Card Required
 -------------------
 Symbolic Z-matrix:
 Charge =  0 Multiplicity = 2

                          Input orientation:
 ---------------------------------------------------------------------
 Center     Atomic      Atomic             Coordinates (Angstroms)
 Number     Number       Type             X           Y           Z
 ---------------------------------------------------------------------
      1          1           0        0.000000    0.000000    0.000000
      2          1           0       -3.850000    0.000000    0.000000
      3          9           0        2.000000    0.000000    0.000000
 ---------------------------------------------------------------------

 SCF Done:  E(UB3LYP) =  -100.787099523     a.u. after   17 cycles

 Alpha  occ. eigenvalues --  -24.68249  -1.14567  -0.47227  -0.39780  -0.39780
 Alpha  occ. eigenvalues --   -0.33223
 Alpha virt. eigenvalues --   -0.13757   0.22411   0.31527   0.88854   0.94840
 Alpha virt. eigenvalues --    0.94840   1.05617   1.24282   1.24282   1.24283
 Alpha virt. eigenvalues --    1.35459   1.35459   1.60475   2.13675   2.29525

  Beta  occ. eigenvalues --  -24.65878  -1.07938  -0.37947  -0.37443  -0.37443
  Beta virt. eigenvalues --   -0.20748  -0.06413   0.22401   0.38038   0.90166
  Beta virt. eigenvalues --    0.95474   0.95474   1.08072   1.21941   1.21941
  Beta virt. eigenvalues --    1.46163   1.46452   1.46452   1.53315   2.11511

 Mulliken charges and spin densities:
               1          2
     1  H    0.193118  -0.744888
     2  H    0.000661   0.999035
     3  F   -0.193778   0.745853
 Sum of Mulliken charges =   0.00000   1.00000

 Dipole moment (field-independent basis, Debye):
    X=             -1.9267    Y=             -0.0000    Z=              0.0000  Tot=              1.9267
 Quadrupole moment (field-independent basis, Debye-Ang):
   XX=            -10.0895   YY=             -7.4862   ZZ=             -7.4862
   XY=             -0.0000   XZ=             -0.0000   YZ=             -0.0000

  Exact polarizability:      24.969       0.000       2.062      -0.000      -0.000       2.062
 Approx polarizability:      36.684      -0.000       1.947       0.000       0.000       1.947

 ******    2 imaginary frequencies (negative Signs) ******

                      1                      2                      3
                      A                      A                      A
 Frequencies --  -1128.1785               -78.6212               481.6900
 Red. masses --      1.0578                 1.0538                 1.0274
 Frc consts  --      0.7932                 0.0038                 0.1405
 IR Inten    --    122.8040                 0.0583                35.5344

                      4
                      A
 Frequencies --    481.6900
 Red. masses --      1.0274
 Frc consts  --      0.1405
 IR Inten    --     35.5344

 - Thermochemistry -
 -------------------
 Temperature   298.150 Kelvin.  Pressure   1.00000 Atm.
 Atom     1 has atomic number  1 and mass   1.00783

 Molecular mass:    21.01405 amu.
 Principal axes and moments of inertia in atomic units:
                           1         2         3
     Eigenvalues --     0.00000 126.92663 126.92663
           X            1.00000  -0.00000   0.00000
           Y            0.00000   1.00000   0.00000
           Z            0.00000   0.00000   1.00000
 This molecule is a prolate symmetric top.
 Rotational symmetry number  1.
 Rotational temperature (Kelvin)      0.68239
 Rotational constant (GHZ):          14.218775
    2 imaginary frequencies ignored.
 Zero-point vibrational energy       5762.3 (Joules/Mol)
                                    1.37722 (Kcal/Mol)
 Warning -- explicit consideration of   2 degrees of freedom as
           vibrations may cause significant error
 Vibrational temperatures:    693.04   693.04
          (Kelvin)

 Zero-point correction=                           0.002195 (Hartree/Particle)
 Thermal correction to Energy=                    0.005031
 Thermal correction to Enthalpy=                  0.005975
 Thermal correction to Gibbs Free Energy=        -0.018696
 Sum of electronic and zero-point Energies=           -100.784905
 Sum of electronic and thermal Energies=              -100.782068
 Sum of electronic and thermal Enthalpies=            -100.781124
 Sum of electronic and thermal Free Energies=         -100.805796

                     E (Thermal)             CV                S
                      KCal/Mol        Cal/Mol-Kelvin    Cal/Mol-Kelvin
 Total                    3.157              7.549             51.925
 Electronic               0.000              0.000              1.377
 Translational            0.889              2.981             35.068
 Rotational               0.592              1.987             14.069
 Vibrational              1.676              2.581              1.411
 Vibration     1          0.838              1.291              0.706
 Vibration     2          0.838              1.291              0.706

 Normal termination of Gaussian 16 at Fri Aug 22 16:58:06 2025.
