 Gaussian 16, Revision C.01,
 Gaussian 16:  ES64L-G16RevC.01  3-Jul-2019

 -----------------------------------------
 # sp b3lyp/6-311g** Force nosymm scf=(qc)
 -----------------------------------------

 -------------------
 Title Card Required
 -------------------
 Symbolic Z-matrix:
 Charge =  0 Multiplicity = 2

                          Input orientation:
 ---------------------------------------------------------------------
 Center     Atomic      Atomic             Coordinates (Angstroms)
 Number     Number       Type             X           Y           Z
 ---------------------------------------------------------------------
      1          1           0        0.000000    0.000000    0.000000
      2          1           0       -2.900000    0.000000    0.000000
      3          9           0        3.200000    0.000000    0.000000
 ---------------------------------------------------------------------

 SCF Done:  E(UB3LYP) =  -100.761184428     a.u. after   25 cycles

 Alpha  occ. eigenvalues --  -24.74749  -1.20759  -0.53869  -0.45231  -0.45231
 Alpha  occ. eigenvalues --   -0.32628
 Alpha virt. eigenvalues --   -0.08814   0.24969   0.35076   0.88708   0.91873
 Alpha virt. eigenvalues --    0.91873   1.02881   1.24922   1.24922   1.25895
 Alpha virt. eigenvalues --    1.42716   1.42716   1.42996   2.15707   2.38990

  Beta  occ. eigenvalues --  -24.71677  -1.11944  -0.42154  -0.42154  -0.33341
  Beta virt. eigenvalues --   -0.25151  -0.07846   0.24832   0.36382   0.93349
  Beta virt. eigenvalues --    0.93349   0.97645   1.06793   1.24082   1.24082
  Beta virt. eigenvalues --    1.24991   1.44267   1.44267   1.44386   2.16292

 Mulliken charges and spin densities:
               1          2
     1  H    0.022325  -0.964005
     2  H    0.001498   0.990302
     3  F   -0.023823   0.973704
 Sum of Mulliken charges =  -0.00000   1.00000

 Dipole moment (field-independent basis, Debye):
    X=             -0.4124    Y=             -0.0000    Z=              0.0000  Tot=              0.4124
 Quadrupole moment (field-independent basis, Debye-Ang):
   XX=             -7.7781   YY=             -7.6333   ZZ=             -7.6333
   XY=              0.0000   XZ=             -0.0000   YZ=              0.0000

  Exact polarizability:      33.963       0.000       2.024      -0.000       0.000       2.024
 Approx polarizability:      29.685       0.000       1.927      -0.000      -0.000       1.927

 ******    2 imaginary frequencies (negative Signs) ******

                      1                      2                      3
                      A                      A                      A
 Frequencies --   -434.1540              -174.4919               157.2072
 Red. masses --      1.0145                 1.1006                 1.0168
 Frc consts  --      0.1127                 0.0197                 0.0148
 IR Inten    --     19.3397                 7.8262                 0.4264

                      4
                      A
 Frequencies --    157.2072
 Red. masses --      1.0168
 Frc consts  --      0.0148
 IR Inten    --      0.4264

 - Thermochemistry -
 -------------------
 Temperature   298.150 Kelvin.  Pressure   1.00000 Atm.
 Atom     1 has atomic number  1 and mass   1.00783

 Molecular mass:    21.01405 amu.
 Principal axes and moments of inertia in atomic units:
                           1         2         3
     Eigenvalues --     0.00000 155.84418 155.84418
           X            1.00000  -0.00000   0.00000
           Y            0.00000   1.00000   0.00000
           Z            0.00000   0.00000   1.00000
 This molecule is a prolate symmetric top.
 Rotational symmetry number  1.
 Rotational temperature (Kelvin)      0.55577
 Rotational constant (GHZ):          11.580421
    2 imaginary frequencies ignored.
 Zero-point vibrational energy       1880.6 (Joules/Mol)
                                    0.44948 (Kcal/Mol)
 Warning -- explicit consideration of   2 degrees of freedom as
           vibrations may cause significant error
 Vibrational temperatures:    226.19   226.19
          (Kelvin)

 Zero-point correction=                           0.000716 (Hartree/Particle)
 Thermal correction to Energy=                    0.004339
 Thermal correction to Enthalpy=                  0.005283
 Thermal correction to Gibbs Free Energy=        -0.021367
 Sum of electronic and zero-point Energies=           -100.760468
 Sum of electronic and thermal Energies=              -100.756846
 Sum of electronic and thermal Enthalpies=            -100.755902
 Sum of electronic and thermal Free Energies=         -100.782551

                     E (Thermal)             CV                S
                      KCal/Mol        Cal/Mol-Kelvin    Cal/Mol-Kelvin
 Total                    2.722              8.757             56.088
 Electronic               0.000              0.000              1.377
 Translational            0.889              2.981             35.068
 Rotational               0.592              1.987             14.477
 Vibrational              1.241              3.789              5.166
 Vibration     1          0.621              1.895              2.583
 Vibration     2          0.621              1.895              2.583

 Normal termination of Gaussian 16 at Fri Aug 22 20:24:14 2025.
