 Gaussian 16, Revision C.01,
 Gaussian 16:  ES64L-G16RevC.01  3-Jul-2019

 -----------------------------------------
 # sp b3lyp/6-311g** Force nosymm scf=(qc)
 -----------------------------------------

 -------------------
 Title Card Required
 -------------------
 Symbolic Z-matrix:
 Charge =  0 Multiplicity = 2

                          Input orientation:
 ---------------------------------------------------------------------
 Center     Atomic      Atomic             Coordinates (Angstroms)
 Number     Number       Type             X           Y           Z
 ---------------------------------------------------------------------
      1          1           0        0.000000    0.000000    0.000000
      2          1           0       -0.650000    0.000000    0.000000
      3          9           0        1.000000    0.000000    0.000000
 ---------------------------------------------------------------------

 SCF Done:  E(UB3LYP) =  -100.903502852     a.u. after    6 cycles

 Alpha  occ. eigenvalues --  -24.67311  -1.20861  -0.64979  -0.41869  -0.41869
 Alpha  occ. eigenvalues --   -0.35038
 Alpha virt. eigenvalues --    0.13935   0.18308   0.61556   0.86884   0.86884
 Alpha virt. eigenvalues --    0.94557   1.11203   1.11203   1.46819   1.72026
 Alpha virt. eigenvalues --    1.82293   1.82293   1.93080   2.50697   3.79050

  Beta  occ. eigenvalues --  -24.65587  -1.16498  -0.57141  -0.40309  -0.40309
  Beta virt. eigenvalues --   -0.17162   0.16027   0.19328   0.66506   0.88801
  Beta virt. eigenvalues --    0.88801   0.98013   1.15230   1.15230   1.49106
  Beta virt. eigenvalues --    1.79655   1.86265   1.86265   1.94264   2.57171

 Mulliken charges and spin densities:
               1          2
     1  H    0.278587  -0.016395
     2  H   -0.050348   0.583694
     3  F   -0.228238   0.432701
 Sum of Mulliken charges =   0.00000   1.00000

 Dipole moment (field-independent basis, Debye):
    X=             -1.3813    Y=             -0.0000    Z=             -0.0000  Tot=              1.3813
 Quadrupole moment (field-independent basis, Debye-Ang):
   XX=             -7.3818   YY=             -6.4746   ZZ=             -6.4746
   XY=             -0.0000   XZ=             -0.0000   YZ=              0.0000

  Exact polarizability:      12.678       0.000       2.505      -0.000      -0.000       2.505
 Approx polarizability:      15.030      -0.000       2.570      -0.000      -0.000       2.570

 ******    2 imaginary frequencies (negative Signs) ******

                      1                      2                      3
                      A                      A                      A
 Frequencies --  -2838.8760             -2838.8760              2205.3957
 Red. masses --      1.0136                 1.0136                 1.1085
 Frc consts  --      4.8128                 4.8128                 3.1766
 IR Inten    --     26.4820                26.4820                18.0161

                      4
                      A
 Frequencies --   5551.3876
 Red. masses --      1.0078
 Frc consts  --     18.2996
 IR Inten    --    127.7867

 - Thermochemistry -
 -------------------
 Temperature   298.150 Kelvin.  Pressure   1.00000 Atm.
 Atom     1 has atomic number  1 and mass   1.00783

 Molecular mass:    21.01405 amu.
 Principal axes and moments of inertia in atomic units:
                           1         2         3
     Eigenvalues --     0.00000  12.18518  12.18518
           X            1.00000  -0.00000   0.00000
           Y            0.00000   1.00000   0.00000
           Z            0.00000   0.00000   1.00000
 This molecule is a prolate symmetric top.
 Rotational symmetry number  1.
 Rotational temperature (Kelvin)      7.10814
 Rotational constant (GHZ):         148.109557
    2 imaginary frequencies ignored.
 Zero-point vibrational energy      46395.9 (Joules/Mol)
                                   11.08888 (Kcal/Mol)
 Vibrational temperatures:   3173.07  7987.21
          (Kelvin)

 Zero-point correction=                           0.017671 (Hartree/Particle)
 Thermal correction to Energy=                    0.020032
 Thermal correction to Enthalpy=                  0.020976
 Thermal correction to Gibbs Free Energy=        -0.000813
 Sum of electronic and zero-point Energies=           -100.885832
 Sum of electronic and thermal Energies=              -100.883471
 Sum of electronic and thermal Enthalpies=            -100.882527
 Sum of electronic and thermal Free Energies=         -100.904315

                     E (Thermal)             CV                S
                      KCal/Mol        Cal/Mol-Kelvin    Cal/Mol-Kelvin
 Total                   12.570              4.973             45.858
 Electronic               0.000              0.000              1.377
 Translational            0.889              2.981             35.068
 Rotational               0.592              1.987              9.412
 Vibrational             11.089              0.005              0.001

 Normal termination of Gaussian 16 at Fri Aug 22 15:59:36 2025.
