 Gaussian 16, Revision C.01,
 Gaussian 16:  ES64L-G16RevC.01  3-Jul-2019

 -----------------------------------------
 # sp b3lyp/6-311g** Force nosymm scf=(qc)
 -----------------------------------------

 -------------------
 Title Card Required
 -------------------
 Symbolic Z-matrix:
 Charge =  0 Multiplicity = 2

                          Input orientation:
 ---------------------------------------------------------------------
 Center     Atomic      Atomic             Coordinates (Angstroms)
 Number     Number       Type             X           Y           Z
 ---------------------------------------------------------------------
      1          1           0        0.000000    0.000000    0.000000
      2          1           0       -1.350000    0.000000    0.000000
      3          9           0        3.650000    0.000000    0.000000
 ---------------------------------------------------------------------

 SCF Done:  E(UB3LYP) =  -100.845068630     a.u. after  261 cycles

 Alpha  occ. eigenvalues --  -24.76319  -1.22204  -0.55405  -0.46592  -0.46560
 Alpha  occ. eigenvalues --   -0.34805
 Alpha virt. eigenvalues --   -0.07154   0.23907   0.31961   0.85980   0.90856
 Alpha virt. eigenvalues --    0.91743   1.01081   1.13024   1.16656   1.16659
 Alpha virt. eigenvalues --    1.47225   1.47227   1.94210   2.27147   2.51399

  Beta  occ. eigenvalues --  -24.73162  -1.13129  -0.43428  -0.43396  -0.34803
  Beta virt. eigenvalues --   -0.26051  -0.07151   0.23913   0.31982   0.92356
  Beta virt. eigenvalues --    0.93238   0.95445   1.05208   1.13033   1.16656
  Beta virt. eigenvalues --    1.16659   1.47225   1.47227   1.94214   2.27148

 Mulliken charges and spin densities:
               1          2
     1  H    0.000698   0.000001
     2  H   -0.002664  -0.000228
     3  F    0.001966   1.000227
 Sum of Mulliken charges =   0.00000   1.00000

 Dipole moment (field-independent basis, Debye):
    X=              0.0376    Y=             -0.0000    Z=              0.0000  Tot=              0.0376
 Quadrupole moment (field-independent basis, Debye-Ang):
   XX=             -6.2825   YY=             -6.7746   ZZ=             -7.6389
   XY=             -0.0000   XZ=              0.0000   YZ=             -0.0063

  Exact polarizability:      19.217      -0.000       2.532       0.000      -0.003       2.066
 Approx polarizability:      32.550      -0.000       2.658       0.000      -0.004       2.075

 ******    2 imaginary frequencies (negative Signs) ******

                      1                      2                      3
                      A                      A                      A
 Frequencies --  -1088.2151               -56.9011              1353.4113
 Red. masses --      1.0078                 1.1085                 1.0102
 Frc consts  --      0.7032                 0.0021                 1.0903
 IR Inten    --      0.1250                 0.1084                 0.0022

                      4
                      A
 Frequencies --   1354.3459
 Red. masses --      1.0102
 Frc consts  --      1.0918
 IR Inten    --      0.0016

 - Thermochemistry -
 -------------------
 Temperature   298.150 Kelvin.  Pressure   1.00000 Atm.
 Atom     1 has atomic number  1 and mass   1.00783

 Molecular mass:    21.01405 amu.
 Principal axes and moments of inertia in atomic units:
                           1         2         3
     Eigenvalues --     0.00000 125.00812 125.00812
           X            1.00000  -0.00000   0.00000
           Y            0.00000   1.00000   0.00000
           Z            0.00000   0.00000   1.00000
 This molecule is a prolate symmetric top.
 Rotational symmetry number  1.
 Rotational temperature (Kelvin)      0.69287
 Rotational constant (GHZ):          14.436991
    2 imaginary frequencies ignored.
 Zero-point vibrational energy      16196.0 (Joules/Mol)
                                    3.87093 (Kcal/Mol)
 Vibrational temperatures:   1947.26  1948.60
          (Kelvin)

 Zero-point correction=                           0.006169 (Hartree/Particle)
 Thermal correction to Energy=                    0.008547
 Thermal correction to Enthalpy=                  0.009491
 Thermal correction to Gibbs Free Energy=        -0.014516
 Sum of electronic and zero-point Energies=           -100.838900
 Sum of electronic and thermal Energies=              -100.836521
 Sum of electronic and thermal Enthalpies=            -100.835577
 Sum of electronic and thermal Free Energies=         -100.859585

                     E (Thermal)             CV                S
                      KCal/Mol        Cal/Mol-Kelvin    Cal/Mol-Kelvin
 Total                    5.363              5.215             50.528
 Electronic               0.000              0.000              1.377
 Translational            0.889              2.981             35.068
 Rotational               0.592              1.987             14.039
 Vibrational              3.882              0.247              0.044

 Normal termination of Gaussian 16 at Fri Aug 22 23:26:17 2025.
