 Gaussian 16, Revision C.01,
 Gaussian 16:  ES64L-G16RevC.01  3-Jul-2019

 -----------------------------------------
 # sp b3lyp/6-311g** Force nosymm scf=(qc)
 -----------------------------------------

 -------------------
 Title Card Required
 -------------------
 Symbolic Z-matrix:
 Charge =  0 Multiplicity = 2

                          Input orientation:
 ---------------------------------------------------------------------
 Center     Atomic      Atomic             Coordinates (Angstroms)
 Number     Number       Type             X           Y           Z
 ---------------------------------------------------------------------
      1          1           0        0.000000    0.000000    0.000000
      2          1           0       -1.750000    0.000000    0.000000
      3          9           0        2.400000    0.000000    0.000000
 ---------------------------------------------------------------------

 SCF Done:  E(UB3LYP) =  -100.798544596     a.u. after   17 cycles

 Alpha  occ. eigenvalues --  -24.71692  -1.17904  -0.50831  -0.42664  -0.42664
 Alpha  occ. eigenvalues --   -0.35700
 Alpha virt. eigenvalues --   -0.12505   0.24177   0.31277   0.88434   0.93601
 Alpha virt. eigenvalues --    0.93601   1.03457   1.17399   1.21535   1.21535
 Alpha virt. eigenvalues --    1.35122   1.35122   1.62152   2.13317   2.38901

  Beta  occ. eigenvalues --  -24.68869  -1.09875  -0.39851  -0.39851  -0.35499
  Beta virt. eigenvalues --   -0.23741  -0.11694   0.26249   0.30702   0.94012
  Beta virt. eigenvalues --    0.94938   0.94938   1.06683   1.21274   1.22132
  Beta virt. eigenvalues --    1.22132   1.36002   1.36002   1.62751   2.14196

 Mulliken charges and spin densities:
               1          2
     1  H    0.050030  -0.611040
     2  H    0.041439   0.719646
     3  F   -0.091469   0.891393
 Sum of Mulliken charges =  -0.00000   1.00000

 Dipole moment (field-independent basis, Debye):
    X=             -1.4610    Y=              0.0000    Z=             -0.0000  Tot=              1.4610
 Quadrupole moment (field-independent basis, Debye-Ang):
   XX=             -7.7816   YY=             -7.6642   ZZ=             -7.6642
   XY=              0.0000   XZ=             -0.0000   YZ=              0.0000

  Exact polarizability:      61.598       0.000       2.024      -0.000       0.000       2.024
 Approx polarizability:      76.823      -0.000       1.964       0.000      -0.000       1.964

 ******    2 imaginary frequencies (negative Signs) ******

                      1                      2                      3
                      A                      A                      A
 Frequencies --  -1843.2744              -408.3861               810.6886
 Red. masses --      1.0088                 1.1073                 1.0146
 Frc consts  --      2.0195                 0.1088                 0.3929
 IR Inten    --    223.0632                50.1285                 0.8144

                      4
                      A
 Frequencies --    810.6886
 Red. masses --      1.0146
 Frc consts  --      0.3929
 IR Inten    --      0.8144

 - Thermochemistry -
 -------------------
 Temperature   298.150 Kelvin.  Pressure   1.00000 Atm.
 Atom     1 has atomic number  1 and mass   1.00783

 Molecular mass:    21.01405 amu.
 Principal axes and moments of inertia in atomic units:
                           1         2         3
     Eigenvalues --     0.00000  75.30895  75.30895
           X            1.00000  -0.00000   0.00000
           Y            0.00000   1.00000   0.00000
           Z            0.00000   0.00000   1.00000
 This molecule is a prolate symmetric top.
 Rotational symmetry number  1.
 Rotational temperature (Kelvin)      1.15011
 Rotational constant (GHZ):          23.964500
    2 imaginary frequencies ignored.
 Zero-point vibrational energy       9698.0 (Joules/Mol)
                                    2.31788 (Kcal/Mol)
 Vibrational temperatures:   1166.40  1166.40
          (Kelvin)

 Zero-point correction=                           0.003694 (Hartree/Particle)
 Thermal correction to Energy=                    0.006205
 Thermal correction to Enthalpy=                  0.007149
 Thermal correction to Gibbs Free Energy=        -0.016548
 Sum of electronic and zero-point Energies=           -100.794851
 Sum of electronic and thermal Energies=              -100.792340
 Sum of electronic and thermal Enthalpies=            -100.791395
 Sum of electronic and thermal Free Energies=         -100.815092

                     E (Thermal)             CV                S
                      KCal/Mol        Cal/Mol-Kelvin    Cal/Mol-Kelvin
 Total                    3.894              6.235             49.875
 Electronic               0.000              0.000              1.377
 Translational            0.889              2.981             35.068
 Rotational               0.592              1.987             13.032
 Vibrational              2.412              1.267              0.398

 Normal termination of Gaussian 16 at Fri Aug 22 17:31:54 2025.
