 Gaussian 16, Revision C.01,
 Gaussian 16:  ES64L-G16RevC.01  3-Jul-2019

 -----------------------------------------
 # sp b3lyp/6-311g** Force nosymm scf=(qc)
 -----------------------------------------

 -------------------
 Title Card Required
 -------------------
 Symbolic Z-matrix:
 Charge =  0 Multiplicity = 2

                          Input orientation:
 ---------------------------------------------------------------------
 Center     Atomic      Atomic             Coordinates (Angstroms)
 Number     Number       Type             X           Y           Z
 ---------------------------------------------------------------------
      1          1           0        0.000000    0.000000    0.000000
      2          1           0       -2.100000    0.000000    0.000000
      3          9           0        2.850000    0.000000    0.000000
 ---------------------------------------------------------------------

 SCF Done:  E(UB3LYP) =  -100.773678113     a.u. after   21 cycles

 Alpha  occ. eigenvalues --  -24.73675  -1.19757  -0.52790  -0.44324  -0.44324
 Alpha  occ. eigenvalues --   -0.33828
 Alpha virt. eigenvalues --   -0.11872   0.25362   0.32271   0.90106   0.92527
 Alpha virt. eigenvalues --    0.92527   1.04908   1.20746   1.24084   1.24084
 Alpha virt. eigenvalues --    1.36897   1.36897   1.46327   2.12474   2.35511

  Beta  occ. eigenvalues --  -24.70681  -1.11186  -0.41330  -0.41330  -0.34168
  Beta virt. eigenvalues --   -0.24598  -0.10947   0.26085   0.32879   0.93975
  Beta virt. eigenvalues --    0.93975   0.98615   1.08746   1.20692   1.23645
  Beta virt. eigenvalues --    1.23645   1.38391   1.38391   1.47468   2.13651

 Mulliken charges and spin densities:
               1          2
     1  H    0.029592  -0.848819
     2  H    0.016055   0.900516
     3  F   -0.045647   0.948303
 Sum of Mulliken charges =  -0.00000   1.00000

 Dipole moment (field-independent basis, Debye):
    X=             -0.8276    Y=              0.0000    Z=              0.0000  Tot=              0.8276
 Quadrupole moment (field-independent basis, Debye-Ang):
   XX=             -7.7509   YY=             -7.6867   ZZ=             -7.6867
   XY=              0.0000   XZ=              0.0000   YZ=              0.0000

  Exact polarizability:      57.468       0.000       2.005       0.000      -0.000       2.005
 Approx polarizability:      53.824       0.000       1.925       0.000       0.000       1.925

 ******    2 imaginary frequencies (negative Signs) ******

                      1                      2                      3
                      A                      A                      A
 Frequencies --  -1203.1346              -282.1061               473.5784
 Red. masses --      1.0083                 1.1079                 1.0147
 Frc consts  --      0.8600                 0.0519                 0.1341
 IR Inten    --     37.9754                34.7110                 0.4684

                      4
                      A
 Frequencies --    473.5784
 Red. masses --      1.0147
 Frc consts  --      0.1341
 IR Inten    --      0.4684

 - Thermochemistry -
 -------------------
 Temperature   298.150 Kelvin.  Pressure   1.00000 Atm.
 Atom     1 has atomic number  1 and mass   1.00783

 Molecular mass:    21.01405 amu.
 Principal axes and moments of inertia in atomic units:
                           1         2         3
     Eigenvalues --     0.00000 106.91625 106.91625
           X            1.00000  -0.00000   0.00000
           Y            0.00000   1.00000   0.00000
           Z            0.00000   0.00000   1.00000
 This molecule is a prolate symmetric top.
 Rotational symmetry number  1.
 Rotational temperature (Kelvin)      0.81011
 Rotational constant (GHZ):          16.879953
    2 imaginary frequencies ignored.
 Zero-point vibrational energy       5665.3 (Joules/Mol)
                                    1.35403 (Kcal/Mol)
 Warning -- explicit consideration of   2 degrees of freedom as
           vibrations may cause significant error
 Vibrational temperatures:    681.37   681.37
          (Kelvin)

 Zero-point correction=                           0.002158 (Hartree/Particle)
 Thermal correction to Energy=                    0.005007
 Thermal correction to Enthalpy=                  0.005951
 Thermal correction to Gibbs Free Energy=        -0.018579
 Sum of electronic and zero-point Energies=           -100.771520
 Sum of electronic and thermal Energies=              -100.768671
 Sum of electronic and thermal Enthalpies=            -100.767727
 Sum of electronic and thermal Free Energies=         -100.792257

                     E (Thermal)             CV                S
                      KCal/Mol        Cal/Mol-Kelvin    Cal/Mol-Kelvin
 Total                    3.142              7.585             51.629
 Electronic               0.000              0.000              1.377
 Translational            0.889              2.981             35.068
 Rotational               0.592              1.987             13.728
 Vibrational              1.661              2.617              1.455
 Vibration     1          0.830              1.309              0.728
 Vibration     2          0.830              1.309              0.728

 Normal termination of Gaussian 16 at Fri Aug 22 18:53:25 2025.
