 Gaussian 16, Revision C.01,
 Gaussian 16:  ES64L-G16RevC.01  3-Jul-2019

 -----------------------------------------
 # sp b3lyp/6-311g** Force nosymm scf=(qc)
 -----------------------------------------

 -------------------
 Title Card Required
 -------------------
 Symbolic Z-matrix:
 Charge =  0 Multiplicity = 2

                          Input orientation:
 ---------------------------------------------------------------------
 Center     Atomic      Atomic             Coordinates (Angstroms)
 Number     Number       Type             X           Y           Z
 ---------------------------------------------------------------------
      1          1           0        0.000000    0.000000    0.000000
      2          1           0       -2.150000    0.000000    0.000000
      3          9           0        3.300000    0.000000    0.000000
 ---------------------------------------------------------------------

 SCF Done:  E(UB3LYP) =  -100.769736275     a.u. after   24 cycles

 Alpha  occ. eigenvalues --  -24.75147  -1.21126  -0.54268  -0.45566  -0.45566
 Alpha  occ. eigenvalues --   -0.33125
 Alpha virt. eigenvalues --   -0.10915   0.25772   0.32773   0.88350   0.91623
 Alpha virt. eigenvalues --    0.91623   1.02405   1.22067   1.24758   1.24758
 Alpha virt. eigenvalues --    1.38478   1.38478   1.46084   2.13499   2.35689

  Beta  occ. eigenvalues --  -24.72052  -1.12239  -0.42465  -0.42465  -0.33327
  Beta virt. eigenvalues --   -0.25395  -0.10425   0.25749   0.33454   0.93106
  Beta virt. eigenvalues --    0.93106   0.97391   1.06403   1.21856   1.24489
  Beta virt. eigenvalues --    1.24489   1.39224   1.39224   1.46699   2.14391

 Mulliken charges and spin densities:
               1          2
     1  H    0.009649  -0.894008
     2  H    0.007004   0.912913
     3  F   -0.016653   0.981095
 Sum of Mulliken charges =   0.00000   1.00000

 Dipole moment (field-independent basis, Debye):
    X=             -0.3535    Y=             -0.0000    Z=             -0.0000  Tot=              0.3535
 Quadrupole moment (field-independent basis, Debye-Ang):
   XX=             -7.0663   YY=             -7.7011   ZZ=             -7.7011
   XY=              0.0000   XZ=              0.0000   YZ=              0.0000

  Exact polarizability:      47.802       0.000       2.012       0.000       0.000       2.012
 Approx polarizability:      38.877       0.000       1.929       0.000      -0.000       1.929

 ******    2 imaginary frequencies (negative Signs) ******

                      1                      2                      3
                      A                      A                      A
 Frequencies --  -1106.1094              -176.5988               430.5412
 Red. masses --      1.0079                 1.1084                 1.0136
 Frc consts  --      0.7266                 0.0204                 0.1107
 IR Inten    --     14.5052                13.4258                 0.0396

                      4
                      A
 Frequencies --    430.5412
 Red. masses --      1.0136
 Frc consts  --      0.1107
 IR Inten    --      0.0396

 - Thermochemistry -
 -------------------
 Temperature   298.150 Kelvin.  Pressure   1.00000 Atm.
 Atom     1 has atomic number  1 and mass   1.00783

 Molecular mass:    21.01405 amu.
 Principal axes and moments of inertia in atomic units:
                           1         2         3
     Eigenvalues --     0.00000 132.87754 132.87754
           X            1.00000  -0.00000   0.00000
           Y            0.00000   1.00000   0.00000
           Z            0.00000   0.00000   1.00000
 This molecule is a prolate symmetric top.
 Rotational symmetry number  1.
 Rotational temperature (Kelvin)      0.65183
 Rotational constant (GHZ):          13.581989
    2 imaginary frequencies ignored.
 Zero-point vibrational energy       5150.4 (Joules/Mol)
                                    1.23098 (Kcal/Mol)
 Warning -- explicit consideration of   2 degrees of freedom as
           vibrations may cause significant error
 Vibrational temperatures:    619.45   619.45
          (Kelvin)

 Zero-point correction=                           0.001962 (Hartree/Particle)
 Thermal correction to Energy=                    0.004884
 Thermal correction to Enthalpy=                  0.005828
 Thermal correction to Gibbs Free Energy=        -0.019031
 Sum of electronic and zero-point Energies=           -100.767775
 Sum of electronic and thermal Energies=              -100.764852
 Sum of electronic and thermal Enthalpies=            -100.763908
 Sum of electronic and thermal Free Energies=         -100.788767

                     E (Thermal)             CV                S
                      KCal/Mol        Cal/Mol-Kelvin    Cal/Mol-Kelvin
 Total                    3.065              7.775             52.319
 Electronic               0.000              0.000              1.377
 Translational            0.889              2.981             35.068
 Rotational               0.592              1.987             14.160
 Vibrational              1.583              2.807              1.714
 Vibration     1          0.792              1.404              0.857
 Vibration     2          0.792              1.404              0.857

 Normal termination of Gaussian 16 at Fri Aug 22 20:48:22 2025.
