 Gaussian 16, Revision C.01,
 Gaussian 16:  ES64L-G16RevC.01  3-Jul-2019

 -----------------------------------------
 # sp b3lyp/6-311g** Force nosymm scf=(qc)
 -----------------------------------------

 -------------------
 Title Card Required
 -------------------
 Symbolic Z-matrix:
 Charge =  0 Multiplicity = 2

                          Input orientation:
 ---------------------------------------------------------------------
 Center     Atomic      Atomic             Coordinates (Angstroms)
 Number     Number       Type             X           Y           Z
 ---------------------------------------------------------------------
      1          1           0        0.000000    0.000000    0.000000
      2          1           0       -2.750000    0.000000    0.000000
      3          9           0        3.350000    0.000000    0.000000
 ---------------------------------------------------------------------

 SCF Done:  E(UB3LYP) =  -100.761357658     a.u. after   23 cycles

 Alpha  occ. eigenvalues --  -24.75135  -1.21116  -0.54256  -0.45555  -0.45555
 Alpha  occ. eigenvalues --   -0.32612
 Alpha virt. eigenvalues --   -0.08963   0.25288   0.34851   0.88133   0.91636
 Alpha virt. eigenvalues --    0.91636   1.02259   1.24963   1.24963   1.26258
 Alpha virt. eigenvalues --    1.42417   1.42417   1.42914   2.15891   2.38383

  Beta  occ. eigenvalues --  -24.72038  -1.12222  -0.42452  -0.42452  -0.33112
  Beta virt. eigenvalues --   -0.25359  -0.08251   0.25100   0.35875   0.93119
  Beta virt. eigenvalues --    0.93119   0.97195   1.06241   1.24372   1.24372
  Beta virt. eigenvalues --    1.25576   1.43553   1.43553   1.44025   2.16456

 Mulliken charges and spin densities:
               1          2
     1  H    0.014752  -0.967111
     2  H    0.001667   0.985320
     3  F   -0.016419   0.981791
 Sum of Mulliken charges =  -0.00000   1.00000

 Dipole moment (field-independent basis, Debye):
    X=             -0.3044    Y=              0.0000    Z=             -0.0000  Tot=              0.3044
 Quadrupole moment (field-independent basis, Debye-Ang):
   XX=             -7.4587   YY=             -7.6445   ZZ=             -7.6445
   XY=              0.0000   XZ=             -0.0000   YZ=             -0.0000

  Exact polarizability:      32.929       0.000       2.024      -0.000       0.000       2.024
 Approx polarizability:      26.457       0.000       1.928      -0.000       0.000       1.928

 ******    2 imaginary frequencies (negative Signs) ******

                      1                      2                      3
                      A                      A                      A
 Frequencies --   -491.9173              -160.7231               176.6164
 Red. masses --      1.0096                 1.1064                 1.0157
 Frc consts  --      0.1439                 0.0168                 0.0187
 IR Inten    --     11.0716                 7.8362                 0.1753

                      4
                      A
 Frequencies --    176.6164
 Red. masses --      1.0157
 Frc consts  --      0.0187
 IR Inten    --      0.1753

 - Thermochemistry -
 -------------------
 Temperature   298.150 Kelvin.  Pressure   1.00000 Atm.
 Atom     1 has atomic number  1 and mass   1.00783

 Molecular mass:    21.01405 amu.
 Principal axes and moments of inertia in atomic units:
                           1         2         3
     Eigenvalues --     0.00000 158.89475 158.89475
           X            1.00000  -0.00000   0.00000
           Y            0.00000   1.00000   0.00000
           Z            0.00000   0.00000   1.00000
 This molecule is a prolate symmetric top.
 Rotational symmetry number  1.
 Rotational temperature (Kelvin)      0.54510
 Rotational constant (GHZ):          11.358092
    2 imaginary frequencies ignored.
 Zero-point vibrational energy       2112.8 (Joules/Mol)
                                    0.50497 (Kcal/Mol)
 Warning -- explicit consideration of   2 degrees of freedom as
           vibrations may cause significant error
 Vibrational temperatures:    254.11   254.11
          (Kelvin)

 Zero-point correction=                           0.000805 (Hartree/Particle)
 Thermal correction to Energy=                    0.004362
 Thermal correction to Enthalpy=                  0.005306
 Thermal correction to Gibbs Free Energy=        -0.021153
 Sum of electronic and zero-point Energies=           -100.760553
 Sum of electronic and thermal Energies=              -100.756996
 Sum of electronic and thermal Enthalpies=            -100.756052
 Sum of electronic and thermal Free Energies=         -100.782511

                     E (Thermal)             CV                S
                      KCal/Mol        Cal/Mol-Kelvin    Cal/Mol-Kelvin
 Total                    2.737              8.710             55.688
 Electronic               0.000              0.000              1.377
 Translational            0.889              2.981             35.068
 Rotational               0.592              1.987             14.515
 Vibrational              1.256              3.742              4.728
 Vibration     1          0.628              1.871              2.364
 Vibration     2          0.628              1.871              2.364

 Normal termination of Gaussian 16 at Fri Aug 22 21:02:15 2025.
