 Gaussian 16, Revision C.01,
 Gaussian 16:  ES64L-G16RevC.01  3-Jul-2019

 -----------------------------------------
 # sp b3lyp/6-311g** Force nosymm scf=(qc)
 -----------------------------------------

 -------------------
 Title Card Required
 -------------------
 Symbolic Z-matrix:
 Charge =  0 Multiplicity = 2

                          Input orientation:
 ---------------------------------------------------------------------
 Center     Atomic      Atomic             Coordinates (Angstroms)
 Number     Number       Type             X           Y           Z
 ---------------------------------------------------------------------
      1          1           0        0.000000    0.000000    0.000000
      2          1           0       -2.650000    0.000000    0.000000
      3          9           0        1.650000    0.000000    0.000000
 ---------------------------------------------------------------------

 SCF Done:  E(UB3LYP) =  -100.826882261     a.u. after   16 cycles

 Alpha  occ. eigenvalues --  -24.65150  -1.11062  -0.43853  -0.37059  -0.37059
 Alpha  occ. eigenvalues --   -0.35293
 Alpha virt. eigenvalues --   -0.14757   0.22785   0.28081   0.94529   0.94529
 Alpha virt. eigenvalues --    0.98790   1.07082   1.22270   1.22270   1.24098
 Alpha virt. eigenvalues --    1.32907   1.32907   1.74613   2.13338   2.23090

  Beta  occ. eigenvalues --  -24.63895  -1.07668  -0.40536  -0.35850  -0.35850
  Beta virt. eigenvalues --   -0.18050  -0.08968   0.23754   0.35519   0.94231
  Beta virt. eigenvalues --    0.94231   0.99939   1.07996   1.26617   1.26617
  Beta virt. eigenvalues --    1.42411   1.42411   1.42934   1.71979   2.14083

 Mulliken charges and spin densities:
               1          2
     1  H    0.296486  -0.376000
     2  H    0.015461   0.980578
     3  F   -0.311946   0.395422
 Sum of Mulliken charges =   0.00000   1.00000

 Dipole moment (field-independent basis, Debye):
    X=             -2.7046    Y=             -0.0000    Z=             -0.0000  Tot=              2.7046
 Quadrupole moment (field-independent basis, Debye-Ang):
   XX=             -9.6602   YY=             -7.4026   ZZ=             -7.4026
   XY=             -0.0000   XZ=             -0.0000   YZ=             -0.0000

  Exact polarizability:      27.711       0.000       2.140       0.000       0.000       2.140
 Approx polarizability:      40.198       0.000       2.048       0.000       0.000       2.048

 ******    2 imaginary frequencies (negative Signs) ******

                      1                      2                      3
                      A                      A                      A
 Frequencies --  -1842.1003              -286.1813               826.2996
 Red. masses --      1.0534                 1.0581                 1.0246
 Frc consts  --      2.1061                 0.0511                 0.4122
 IR Inten    --     59.3492                 6.3270                76.0619

                      4
                      A
 Frequencies --    826.2996
 Red. masses --      1.0246
 Frc consts  --      0.4122
 IR Inten    --     76.0619

 - Thermochemistry -
 -------------------
 Temperature   298.150 Kelvin.  Pressure   1.00000 Atm.
 Atom     1 has atomic number  1 and mass   1.00783

 Molecular mass:    21.01405 amu.
 Principal axes and moments of inertia in atomic units:
                           1         2         3
     Eigenvalues --     0.00000  70.23325  70.23325
           X            1.00000  -0.00000   0.00000
           Y            0.00000   1.00000   0.00000
           Z            0.00000   0.00000   1.00000
 This molecule is a prolate symmetric top.
 Rotational symmetry number  1.
 Rotational temperature (Kelvin)      1.23323
 Rotational constant (GHZ):          25.696392
    2 imaginary frequencies ignored.
 Zero-point vibrational energy       9884.7 (Joules/Mol)
                                    2.36251 (Kcal/Mol)
 Vibrational temperatures:   1188.86  1188.86
          (Kelvin)

 Zero-point correction=                           0.003765 (Hartree/Particle)
 Thermal correction to Energy=                    0.006268
 Thermal correction to Enthalpy=                  0.007212
 Thermal correction to Gibbs Free Energy=        -0.016408
 Sum of electronic and zero-point Energies=           -100.823117
 Sum of electronic and thermal Energies=              -100.820615
 Sum of electronic and thermal Enthalpies=            -100.819670
 Sum of electronic and thermal Free Energies=         -100.843290

                     E (Thermal)             CV                S
                      KCal/Mol        Cal/Mol-Kelvin    Cal/Mol-Kelvin
 Total                    3.933              6.185             49.712
 Electronic               0.000              0.000              1.377
 Translational            0.889              2.981             35.068
 Rotational               0.592              1.987             12.893
 Vibrational              2.452              1.217              0.374

 Normal termination of Gaussian 16 at Fri Aug 22 16:34:57 2025.
