 Gaussian 16, Revision C.01,
 Gaussian 16:  ES64L-G16RevC.01  3-Jul-2019

 -----------------------------------------
 # sp b3lyp/6-311g** Force nosymm scf=(qc)
 -----------------------------------------

 -------------------
 Title Card Required
 -------------------
 Symbolic Z-matrix:
 Charge =  0 Multiplicity = 2

                          Input orientation:
 ---------------------------------------------------------------------
 Center     Atomic      Atomic             Coordinates (Angstroms)
 Number     Number       Type             X           Y           Z
 ---------------------------------------------------------------------
      1          1           0        0.000000    0.000000    0.000000
      2          1           0       -1.700000    0.000000    0.000000
      3          9           0        3.050000    0.000000    0.000000
 ---------------------------------------------------------------------

 SCF Done:  E(UB3LYP) =  -100.795958239     a.u. after   32 cycles

 Alpha  occ. eigenvalues --  -24.74921  -1.20920  -0.54047  -0.45384  -0.45384
 Alpha  occ. eigenvalues --   -0.34046
 Alpha virt. eigenvalues --   -0.11421   0.25123   0.30354   0.89379   0.91737
 Alpha virt. eigenvalues --    0.91737   1.03579   1.06908   1.22824   1.22824
 Alpha virt. eigenvalues --    1.37222   1.37222   1.66913   2.15981   2.41781

  Beta  occ. eigenvalues --  -24.71851  -1.12108  -0.42309  -0.42309  -0.33925
  Beta virt. eigenvalues --   -0.25394  -0.11139   0.25554   0.30616   0.93210
  Beta virt. eigenvalues --    0.93210   0.98129   1.06516   1.08196   1.22964
  Beta virt. eigenvalues --    1.22964   1.37506   1.37506   1.67283   2.16865

 Mulliken charges and spin densities:
               1          2
     1  H    0.005122  -0.602273
     2  H    0.017623   0.629180
     3  F   -0.022745   0.973093
 Sum of Mulliken charges =   0.00000   1.00000

 Dipole moment (field-independent basis, Debye):
    X=             -0.4968    Y=              0.0000    Z=             -0.0000  Tot=              0.4968
 Quadrupole moment (field-independent basis, Debye-Ang):
   XX=             -6.6043   YY=             -7.7471   ZZ=             -7.7471
   XY=              0.0000   XZ=             -0.0000   YZ=              0.0000

  Exact polarizability:      57.646       0.000       2.019      -0.000       0.000       2.019
 Approx polarizability:      64.109       0.000       1.974      -0.000       0.000       1.974

 ******    2 imaginary frequencies (negative Signs) ******

                      1                      2                      3
                      A                      A                      A
 Frequencies --  -1915.2876              -206.6531               892.8170
 Red. masses --      1.0079                 1.1084                 1.0124
 Frc consts  --      2.1783                 0.0279                 0.4755
 IR Inten    --     97.3292                21.9699                 0.0024

                      4
                      A
 Frequencies --    892.8170
 Red. masses --      1.0124
 Frc consts  --      0.4755
 IR Inten    --      0.0024

 - Thermochemistry -
 -------------------
 Temperature   298.150 Kelvin.  Pressure   1.00000 Atm.
 Atom     1 has atomic number  1 and mass   1.00783

 Molecular mass:    21.01405 amu.
 Principal axes and moments of inertia in atomic units:
                           1         2         3
     Eigenvalues --     0.00000 104.18100 104.18100
           X            1.00000  -0.00000   0.00000
           Y            0.00000   1.00000   0.00000
           Z            0.00000   0.00000   1.00000
 This molecule is a prolate symmetric top.
 Rotational symmetry number  1.
 Rotational temperature (Kelvin)      0.83138
 Rotational constant (GHZ):          17.323131
    2 imaginary frequencies ignored.
 Zero-point vibrational energy      10680.5 (Joules/Mol)
                                    2.55269 (Kcal/Mol)
 Vibrational temperatures:   1284.56  1284.56
          (Kelvin)

 Zero-point correction=                           0.004068 (Hartree/Particle)
 Thermal correction to Energy=                    0.006539
 Thermal correction to Enthalpy=                  0.007484
 Thermal correction to Gibbs Free Energy=        -0.016467
 Sum of electronic and zero-point Energies=           -100.791890
 Sum of electronic and thermal Energies=              -100.789419
 Sum of electronic and thermal Enthalpies=            -100.788475
 Sum of electronic and thermal Free Energies=         -100.812426

                     E (Thermal)             CV                S
                      KCal/Mol        Cal/Mol-Kelvin    Cal/Mol-Kelvin
 Total                    4.104              5.988             50.409
 Electronic               0.000              0.000              1.377
 Translational            0.889              2.981             35.068
 Rotational               0.592              1.987             13.676
 Vibrational              2.622              1.020              0.287

 Normal termination of Gaussian 16 at Fri Aug 22 19:43:06 2025.
