 Gaussian 16, Revision C.01,
 Gaussian 16:  ES64L-G16RevC.01  3-Jul-2019

 -----------------------------------------
 # sp b3lyp/6-311g** Force nosymm scf=(qc)
 -----------------------------------------

 -------------------
 Title Card Required
 -------------------
 Symbolic Z-matrix:
 Charge =  0 Multiplicity = 2

                          Input orientation:
 ---------------------------------------------------------------------
 Center     Atomic      Atomic             Coordinates (Angstroms)
 Number     Number       Type             X           Y           Z
 ---------------------------------------------------------------------
      1          1           0        0.000000    0.000000    0.000000
      2          1           0       -3.400000    0.000000    0.000000
      3          9           0        2.300000    0.000000    0.000000
 ---------------------------------------------------------------------

 SCF Done:  E(UB3LYP) =  -100.772982735     a.u. after   14 cycles

 Alpha  occ. eigenvalues --  -24.70471  -1.16752  -0.49549  -0.41650  -0.41650
 Alpha  occ. eigenvalues --   -0.33153
 Alpha virt. eigenvalues --   -0.11569   0.23195   0.34252   0.88828   0.94224
 Alpha virt. eigenvalues --    0.94224   1.06244   1.24363   1.24363   1.24585
 Alpha virt. eigenvalues --    1.38574   1.38574   1.48531   2.14414   2.33919

  Beta  occ. eigenvalues --  -24.67759  -1.09074  -0.38955  -0.38955  -0.36258
  Beta virt. eigenvalues --   -0.22475  -0.07037   0.23695   0.37753   0.92990
  Beta virt. eigenvalues --    0.95442   0.95442   1.08337   1.21615   1.21615
  Beta virt. eigenvalues --    1.37071   1.45499   1.45703   1.45703   2.12208

 Mulliken charges and spin densities:
               1          2
     1  H    0.122379  -0.852445
     2  H    0.001475   0.997233
     3  F   -0.123854   0.855212
 Sum of Mulliken charges =  -0.00000   1.00000

 Dipole moment (field-independent basis, Debye):
    X=             -1.4597    Y=              0.0000    Z=              0.0000  Tot=              1.4597
 Quadrupole moment (field-independent basis, Debye-Ang):
   XX=             -9.6179   YY=             -7.5461   ZZ=             -7.5461
   XY=              0.0000   XZ=              0.0000   YZ=             -0.0000

  Exact polarizability:      29.645       0.000       2.033       0.000      -0.000       2.033
 Approx polarizability:      39.276       0.000       1.924       0.000       0.000       1.924

 ******    2 imaginary frequencies (negative Signs) ******

                      1                      2                      3
                      A                      A                      A
 Frequencies --   -772.1451              -136.0881               315.6191
 Red. masses --      1.0550                 1.0566                 1.0233
 Frc consts  --      0.3706                 0.0115                 0.0601
 IR Inten    --     96.8118                 0.4008                14.1501

                      4
                      A
 Frequencies --    315.6191
 Red. masses --      1.0233
 Frc consts  --      0.0601
 IR Inten    --     14.1501

 - Thermochemistry -
 -------------------
 Temperature   298.150 Kelvin.  Pressure   1.00000 Atm.
 Atom     1 has atomic number  1 and mass   1.00783

 Molecular mass:    21.01405 amu.
 Principal axes and moments of inertia in atomic units:
                           1         2         3
     Eigenvalues --     0.00000 124.92370 124.92370
           X            1.00000  -0.00000   0.00000
           Y            0.00000   1.00000   0.00000
           Z            0.00000   0.00000   1.00000
 This molecule is a prolate symmetric top.
 Rotational symmetry number  1.
 Rotational temperature (Kelvin)      0.69333
 Rotational constant (GHZ):          14.446748
    2 imaginary frequencies ignored.
 Zero-point vibrational energy       3775.6 (Joules/Mol)
                                    0.90240 (Kcal/Mol)
 Warning -- explicit consideration of   2 degrees of freedom as
           vibrations may cause significant error
 Vibrational temperatures:    454.11   454.11
          (Kelvin)

 Zero-point correction=                           0.001438 (Hartree/Particle)
 Thermal correction to Energy=                    0.004601
 Thermal correction to Enthalpy=                  0.005545
 Thermal correction to Gibbs Free Energy=        -0.019708
 Sum of electronic and zero-point Energies=           -100.771545
 Sum of electronic and thermal Energies=              -100.768382
 Sum of electronic and thermal Enthalpies=            -100.767438
 Sum of electronic and thermal Free Energies=         -100.792690

                     E (Thermal)             CV                S
                      KCal/Mol        Cal/Mol-Kelvin    Cal/Mol-Kelvin
 Total                    2.887              8.256             53.148
 Electronic               0.000              0.000              1.377
 Translational            0.889              2.981             35.068
 Rotational               0.592              1.987             14.037
 Vibrational              1.406              3.288              2.665
 Vibration     1          0.703              1.644              1.333
 Vibration     2          0.703              1.644              1.333

 Normal termination of Gaussian 16 at Fri Aug 22 17:23:08 2025.
