 Gaussian 16, Revision C.01,
 Gaussian 16:  ES64L-G16RevC.01  3-Jul-2019

 -----------------------------------------
 # sp b3lyp/6-311g** Force nosymm scf=(qc)
 -----------------------------------------

 -------------------
 Title Card Required
 -------------------
 Symbolic Z-matrix:
 Charge =  0 Multiplicity = 2

                          Input orientation:
 ---------------------------------------------------------------------
 Center     Atomic      Atomic             Coordinates (Angstroms)
 Number     Number       Type             X           Y           Z
 ---------------------------------------------------------------------
      1          1           0        0.000000    0.000000    0.000000
      2          1           0       -2.400000    0.000000    0.000000
      3          9           0        1.000000    0.000000    0.000000
 ---------------------------------------------------------------------

 SCF Done:  E(UB3LYP) =  -100.966651701     a.u. after    6 cycles

 Alpha  occ. eigenvalues --  -24.64018  -1.15926  -0.51608  -0.38661  -0.38661
 Alpha  occ. eigenvalues --   -0.35202
 Alpha virt. eigenvalues --    0.02043   0.25027   0.34301   0.94171   0.94171
 Alpha virt. eigenvalues --    0.98498   1.18730   1.22344   1.22344   1.36077
 Alpha virt. eigenvalues --    1.36077   1.39918   1.90711   2.13318   2.34538

  Beta  occ. eigenvalues --  -24.63989  -1.15853  -0.51475  -0.38636  -0.38636
  Beta virt. eigenvalues --   -0.10465   0.03945   0.34031   0.36994   0.94174
  Beta virt. eigenvalues --    0.94174   0.98635   1.28051   1.36015   1.36015
  Beta virt. eigenvalues --    1.43526   1.43526   1.51321   1.90691   2.33538

 Mulliken charges and spin densities:
               1          2
     1  H    0.313571   0.003329
     2  H    0.008530   0.987972
     3  F   -0.322101   0.008698
 Sum of Mulliken charges =   0.00000   1.00000

 Dipole moment (field-independent basis, Debye):
    X=             -2.1336    Y=              0.0000    Z=             -0.0000  Tot=              2.1336
 Quadrupole moment (field-independent basis, Debye-Ang):
   XX=             -7.9405   YY=             -6.9513   ZZ=             -6.9513
   XY=              0.0000   XZ=             -0.0000   YZ=             -0.0000

  Exact polarizability:       9.195      -0.000       2.431      -0.000      -0.000       2.431
 Approx polarizability:      10.390      -0.000       2.408      -0.000      -0.000       2.408

 ******    1 imaginary frequencies (negative Signs) ******

                      1                      2                      3
                      A                      A                      A
 Frequencies --    -84.1589               960.7780               960.7780
 Red. masses --      1.0527                 1.0310                 1.0310
 Frc consts  --      0.0044                 0.5607                 0.5607
 IR Inten    --      1.3749               151.3235               151.3235

                      4
                      A
 Frequencies --   3009.0022
 Red. masses --      1.0588
 Frc consts  --      5.6483
 IR Inten    --    134.5912

 - Thermochemistry -
 -------------------
 Temperature   298.150 Kelvin.  Pressure   1.00000 Atm.
 Atom     1 has atomic number  1 and mass   1.00783

 Molecular mass:    21.01405 amu.
 Principal axes and moments of inertia in atomic units:
                           1         2         3
     Eigenvalues --     0.00000  41.86188  41.86188
           X            1.00000  -0.00000   0.00000
           Y            0.00000   1.00000   0.00000
           Z            0.00000   0.00000   1.00000
 This molecule is a prolate symmetric top.
 Rotational symmetry number  1.
 Rotational temperature (Kelvin)      2.06904
 Rotational constant (GHZ):          43.111808
    1 imaginary frequencies ignored.
 Zero-point vibrational energy      29491.3 (Joules/Mol)
                                    7.04859 (Kcal/Mol)
 Vibrational temperatures:   1382.35  1382.35  4329.28
          (Kelvin)

 Zero-point correction=                           0.011233 (Hartree/Particle)
 Thermal correction to Energy=                    0.013679
 Thermal correction to Enthalpy=                  0.014623
 Thermal correction to Gibbs Free Energy=        -0.008435
 Sum of electronic and zero-point Energies=           -100.955419
 Sum of electronic and thermal Energies=              -100.952973
 Sum of electronic and thermal Enthalpies=            -100.952029
 Sum of electronic and thermal Free Energies=         -100.975086

                     E (Thermal)             CV                S
                      KCal/Mol        Cal/Mol-Kelvin    Cal/Mol-Kelvin
 Total                    8.584              5.813             48.529
 Electronic               0.000              0.000              1.377
 Translational            0.889              2.981             35.068
 Rotational               0.592              1.987             11.865
 Vibrational              7.102              0.845              0.219

 Normal termination of Gaussian 16 at Fri Aug 22 16:00:49 2025.
