 Gaussian 16, Revision C.01,
 Gaussian 16:  ES64L-G16RevC.01  3-Jul-2019

 -----------------------------------------
 # sp b3lyp/6-311g** Force nosymm scf=(qc)
 -----------------------------------------

 -------------------
 Title Card Required
 -------------------
 Symbolic Z-matrix:
 Charge =  0 Multiplicity = 2

                          Input orientation:
 ---------------------------------------------------------------------
 Center     Atomic      Atomic             Coordinates (Angstroms)
 Number     Number       Type             X           Y           Z
 ---------------------------------------------------------------------
      1          1           0        0.000000    0.000000    0.000000
      2          1           0       -1.950000    0.000000    0.000000
      3          9           0        2.550000    0.000000    0.000000
 ---------------------------------------------------------------------

 SCF Done:  E(UB3LYP) =  -100.783333274     a.u. after   20 cycles

 Alpha  occ. eigenvalues --  -24.72251  -1.18425  -0.51364  -0.43126  -0.43126
 Alpha  occ. eigenvalues --   -0.34801
 Alpha virt. eigenvalues --   -0.12643   0.24846   0.31799   0.90022   0.93351
 Alpha virt. eigenvalues --    0.93351   1.05516   1.18459   1.23122   1.23122
 Alpha virt. eigenvalues --    1.35203   1.35203   1.51338   2.11464   2.35821

  Beta  occ. eigenvalues --  -24.69369  -1.10209  -0.40250  -0.40250  -0.34994
  Beta virt. eigenvalues --   -0.23845  -0.11674   0.26520   0.31701   0.94741
  Beta virt. eigenvalues --    0.94741   0.97175   1.08465   1.20949   1.23020
  Beta virt. eigenvalues --    1.23020   1.36715   1.36715   1.52080   2.12320

 Mulliken charges and spin densities:
               1          2
     1  H    0.047537  -0.756103
     2  H    0.029251   0.845010
     3  F   -0.076788   0.911093
 Sum of Mulliken charges =  -0.00000   1.00000

 Dipole moment (field-independent basis, Debye):
    X=             -1.2715    Y=             -0.0000    Z=              0.0000  Tot=              1.2715
 Quadrupole moment (field-independent basis, Debye-Ang):
   XX=             -7.9896   YY=             -7.6733   ZZ=             -7.6733
   XY=             -0.0000   XZ=              0.0000   YZ=              0.0000

  Exact polarizability:      60.814      -0.000       2.008       0.000      -0.000       2.008
 Approx polarizability:      65.474       0.000       1.933      -0.000      -0.000       1.933

 ******    2 imaginary frequencies (negative Signs) ******

                      1                      2                      3
                      A                      A                      A
 Frequencies --  -1478.4082              -372.8271               604.2381
 Red. masses --      1.0088                 1.1074                 1.0150
 Frc consts  --      1.2991                 0.0907                 0.2183
 IR Inten    --     86.0777                49.6047                 1.0718

                      4
                      A
 Frequencies --    604.2381
 Red. masses --      1.0150
 Frc consts  --      0.2183
 IR Inten    --      1.0718

 - Thermochemistry -
 -------------------
 Temperature   298.150 Kelvin.  Pressure   1.00000 Atm.
 Atom     1 has atomic number  1 and mass   1.00783

 Molecular mass:    21.01405 amu.
 Principal axes and moments of inertia in atomic units:
                           1         2         3
     Eigenvalues --     0.00000  87.70348  87.70348
           X            1.00000  -0.00000   0.00000
           Y            0.00000   1.00000   0.00000
           Z            0.00000   0.00000   1.00000
 This molecule is a prolate symmetric top.
 Rotational symmetry number  1.
 Rotational temperature (Kelvin)      0.98758
 Rotational constant (GHZ):          20.577760
    2 imaginary frequencies ignored.
 Zero-point vibrational energy       7228.3 (Joules/Mol)
                                    1.72760 (Kcal/Mol)
 Warning -- explicit consideration of   2 degrees of freedom as
           vibrations may cause significant error
 Vibrational temperatures:    869.36   869.36
          (Kelvin)

 Zero-point correction=                           0.002753 (Hartree/Particle)
 Thermal correction to Energy=                    0.005429
 Thermal correction to Enthalpy=                  0.006373
 Thermal correction to Gibbs Free Energy=        -0.017699
 Sum of electronic and zero-point Energies=           -100.780580
 Sum of electronic and thermal Energies=              -100.777904
 Sum of electronic and thermal Enthalpies=            -100.776960
 Sum of electronic and thermal Free Energies=         -100.801033

                     E (Thermal)             CV                S
                      KCal/Mol        Cal/Mol-Kelvin    Cal/Mol-Kelvin
 Total                    3.407              7.014             50.665
 Electronic               0.000              0.000              1.377
 Translational            0.889              2.981             35.068
 Rotational               0.592              1.987             13.334
 Vibrational              1.925              2.046              0.885
 Vibration     1          0.963              1.023              0.442
 Vibration     2          0.963              1.023              0.442

 Normal termination of Gaussian 16 at Fri Aug 22 17:53:46 2025.
