 Gaussian 16, Revision C.01,
 Gaussian 16:  ES64L-G16RevC.01  3-Jul-2019

 -----------------------------------------
 # sp b3lyp/6-311g** Force nosymm scf=(qc)
 -----------------------------------------

 -------------------
 Title Card Required
 -------------------
 Symbolic Z-matrix:
 Charge =  0 Multiplicity = 2

                          Input orientation:
 ---------------------------------------------------------------------
 Center     Atomic      Atomic             Coordinates (Angstroms)
 Number     Number       Type             X           Y           Z
 ---------------------------------------------------------------------
      1          1           0        0.000000    0.000000    0.000000
      2          1           0       -0.850000    0.000000    0.000000
      3          9           0        1.900000    0.000000    0.000000
 ---------------------------------------------------------------------

 SCF Done:  E(UB3LYP) =  -100.930522177     a.u. after    7 cycles

 Alpha  occ. eigenvalues --  -24.73827  -1.20051  -0.54107  -0.44574  -0.44574
 Alpha  occ. eigenvalues --   -0.43032
 Alpha virt. eigenvalues --    0.04995   0.20604   0.41050   0.90656   0.90656
 Alpha virt. eigenvalues --    0.92688   1.06826   1.06826   1.13541   1.61178
 Alpha virt. eigenvalues --    1.73898   1.73898   2.10241   2.37417   2.88978

  Beta  occ. eigenvalues --  -24.70891  -1.11728  -0.43493  -0.41657  -0.41657
  Beta virt. eigenvalues --   -0.25224   0.06092   0.21293   0.41739   0.91944
  Beta virt. eigenvalues --    0.91944   1.00321   1.07853   1.07853   1.16697
  Beta virt. eigenvalues --    1.63173   1.74495   1.74495   2.11180   2.38489

 Mulliken charges and spin densities:
               1          2
     1  H    0.026916  -0.041001
     2  H    0.035224   0.123460
     3  F   -0.062140   0.917541
 Sum of Mulliken charges =   0.00000   1.00000

 Dipole moment (field-independent basis, Debye):
    X=             -0.7036    Y=              0.0000    Z=              0.0000  Tot=              0.7036
 Quadrupole moment (field-independent basis, Debye-Ang):
   XX=             -6.3706   YY=             -7.0164   ZZ=             -7.0164
   XY=              0.0000   XZ=             -0.0000   YZ=             -0.0000

  Exact polarizability:      23.356       0.000       2.160       0.000       0.000       2.160
 Approx polarizability:      28.206      -0.000       2.203       0.000       0.000       2.203

 ******    1 imaginary frequencies (negative Signs) ******

                      1                      2                      3
                      A                      A                      A
 Frequencies --   -323.2506              1180.2821              1180.2821
 Red. masses --      1.1083                 1.0111                 1.0111
 Frc consts  --      0.0682                 0.8299                 0.8299
 IR Inten    --     64.7842                 0.0396                 0.0396

                      4
                      A
 Frequencies --   2969.6221
 Red. masses --      1.0080
 Frc consts  --      5.2375
 IR Inten    --    471.5382

 - Thermochemistry -
 -------------------
 Temperature   298.150 Kelvin.  Pressure   1.00000 Atm.
 Atom     1 has atomic number  1 and mass   1.00783

 Molecular mass:    21.01405 amu.
 Principal axes and moments of inertia in atomic units:
                           1         2         3
     Eigenvalues --     0.00000  36.47773  36.47773
           X            1.00000  -0.00000   0.00000
           Y            0.00000   1.00000   0.00000
           Z            0.00000   0.00000   1.00000
 This molecule is a prolate symmetric top.
 Rotational symmetry number  1.
 Rotational temperature (Kelvin)      2.37443
 Rotational constant (GHZ):          49.475151
    1 imaginary frequencies ignored.
 Zero-point vibrational energy      31881.6 (Joules/Mol)
                                    7.61988 (Kcal/Mol)
 Vibrational temperatures:   1698.16  1698.16  4272.62
          (Kelvin)

 Zero-point correction=                           0.012143 (Hartree/Particle)
 Thermal correction to Energy=                    0.014540
 Thermal correction to Enthalpy=                  0.015484
 Thermal correction to Gibbs Free Energy=        -0.007382
 Sum of electronic and zero-point Energies=           -100.918379
 Sum of electronic and thermal Energies=              -100.915982
 Sum of electronic and thermal Enthalpies=            -100.915038
 Sum of electronic and thermal Free Energies=         -100.937905

                     E (Thermal)             CV                S
                      KCal/Mol        Cal/Mol-Kelvin    Cal/Mol-Kelvin
 Total                    9.124              5.404             48.126
 Electronic               0.000              0.000              1.377
 Translational            0.889              2.981             35.068
 Rotational               0.592              1.987             11.591
 Vibrational              7.643              0.436              0.090

 Normal termination of Gaussian 16 at Fri Aug 22 16:48:58 2025.
