 Gaussian 16, Revision C.01,
 Gaussian 16:  ES64L-G16RevC.01  3-Jul-2019

 -----------------------------------------
 # sp b3lyp/6-311g** Force nosymm scf=(qc)
 -----------------------------------------

 -------------------
 Title Card Required
 -------------------
 Symbolic Z-matrix:
 Charge =  0 Multiplicity = 2

                          Input orientation:
 ---------------------------------------------------------------------
 Center     Atomic      Atomic             Coordinates (Angstroms)
 Number     Number       Type             X           Y           Z
 ---------------------------------------------------------------------
      1          1           0        0.000000    0.000000    0.000000
      2          1           0       -3.800000    0.000000    0.000000
      3          9           0        3.550000    0.000000    0.000000
 ---------------------------------------------------------------------

 SCF Done:  E(UB3LYP) =  -100.758852223     a.u. after   32 cycles

 Alpha  occ. eigenvalues --  -24.75459  -1.21417  -0.54582  -0.45828  -0.45828
 Alpha  occ. eigenvalues --   -0.32295
 Alpha virt. eigenvalues --   -0.06458   0.24145   0.37296   0.87441   0.91436
 Alpha virt. eigenvalues --    0.91436   1.01693   1.25202   1.25202   1.25250
 Alpha virt. eigenvalues --    1.45943   1.45943   1.46300   2.14683   2.42075

  Beta  occ. eigenvalues --  -24.72340  -1.12454  -0.42702  -0.42702  -0.32756
  Beta virt. eigenvalues --   -0.25519  -0.06038   0.23893   0.38162   0.92927
  Beta virt. eigenvalues --    0.92927   0.96609   1.05717   1.24678   1.24678
  Beta virt. eigenvalues --    1.24709   1.46435   1.46593   1.46593   2.14821

 Mulliken charges and spin densities:
               1          2
     1  H    0.010058  -0.987854
     2  H    0.000074   0.998986
     3  F   -0.010132   0.988868
 Sum of Mulliken charges =  -0.00000   1.00000

 Dipole moment (field-independent basis, Debye):
    X=             -0.1864    Y=              0.0000    Z=             -0.0000  Tot=              0.1864
 Quadrupole moment (field-independent basis, Debye-Ang):
   XX=             -7.3497   YY=             -7.6187   ZZ=             -7.6187
   XY=              0.0000   XZ=             -0.0000   YZ=              0.0000

  Exact polarizability:      21.688       0.000       2.037      -0.000       0.000       2.037
 Approx polarizability:      16.899       0.000       1.934      -0.000      -0.000       1.934

 ******    2 imaginary frequencies (negative Signs) ******

                      1                      2                      3
                      A                      A                      A
 Frequencies --   -213.3256               -80.0448                58.0967
 Red. masses --      1.0387                 1.0734                 1.0188
 Frc consts  --      0.0279                 0.0041                 0.0020
 IR Inten    --      9.3863                 0.3930                 0.0890

                      4
                      A
 Frequencies --     58.0968
 Red. masses --      1.0188
 Frc consts  --      0.0020
 IR Inten    --      0.0890

 - Thermochemistry -
 -------------------
 Temperature   298.150 Kelvin.  Pressure   1.00000 Atm.
 Atom     1 has atomic number  1 and mass   1.00783

 Molecular mass:    21.01405 amu.
 Principal axes and moments of inertia in atomic units:
                           1         2         3
     Eigenvalues --     0.00000 219.27652 219.27652
           X            1.00000  -0.00000   0.00000
           Y            0.00000   1.00000   0.00000
           Z            0.00000   0.00000   1.00000
 This molecule is a prolate symmetric top.
 Rotational symmetry number  1.
 Rotational temperature (Kelvin)      0.39500
 Rotational constant (GHZ):           8.230435
    2 imaginary frequencies ignored.
 Zero-point vibrational energy        695.0 (Joules/Mol)
                                    0.16611 (Kcal/Mol)
 Warning -- explicit consideration of   2 degrees of freedom as
           vibrations may cause significant error
 Vibrational temperatures:     83.59    83.59
          (Kelvin)

 Zero-point correction=                           0.000265 (Hartree/Particle)
 Thermal correction to Energy=                    0.004261
 Thermal correction to Enthalpy=                  0.005205
 Thermal correction to Gibbs Free Energy=        -0.023608
 Sum of electronic and zero-point Energies=           -100.758588
 Sum of electronic and thermal Energies=              -100.754591
 Sum of electronic and thermal Enthalpies=            -100.753647
 Sum of electronic and thermal Free Energies=         -100.782460

                     E (Thermal)             CV                S
                      KCal/Mol        Cal/Mol-Kelvin    Cal/Mol-Kelvin
 Total                    2.674              8.916             60.642
 Electronic               0.000              0.000              1.377
 Translational            0.889              2.981             35.068
 Rotational               0.592              1.987             15.155
 Vibrational              1.193              3.948              9.042
 Vibration     1          0.596              1.974              4.521
 Vibration     2          0.596              1.974              4.521

 Normal termination of Gaussian 16 at Fri Aug 22 22:41:53 2025.
