 Gaussian 16, Revision C.01,
 Gaussian 16:  ES64L-G16RevC.01  3-Jul-2019

 -----------------------------------------
 # sp b3lyp/6-311g** Force nosymm scf=(qc)
 -----------------------------------------

 -------------------
 Title Card Required
 -------------------
 Symbolic Z-matrix:
 Charge =  0 Multiplicity = 2

                          Input orientation:
 ---------------------------------------------------------------------
 Center     Atomic      Atomic             Coordinates (Angstroms)
 Number     Number       Type             X           Y           Z
 ---------------------------------------------------------------------
      1          1           0        0.000000    0.000000    0.000000
      2          1           0       -1.100000    0.000000    0.000000
      3          9           0        2.850000    0.000000    0.000000
 ---------------------------------------------------------------------

 SCF Done:  E(UB3LYP) =  -100.890384788     a.u. after   91 cycles

 Alpha  occ. eigenvalues --  -24.76793  -1.22596  -0.55780  -0.47066  -0.46928
 Alpha  occ. eigenvalues --   -0.37289
 Alpha virt. eigenvalues --   -0.01507   0.22413   0.36910   0.85697   0.90568
 Alpha virt. eigenvalues --    0.93522   1.05756   1.10971   1.10980   1.29878
 Alpha virt. eigenvalues --    1.60086   1.60095   2.17857   2.35086   2.56219

  Beta  occ. eigenvalues --  -24.73631  -1.13507  -0.43919  -0.43758  -0.37262
  Beta virt. eigenvalues --   -0.26399  -0.01478   0.22441   0.37003   0.92066
  Beta virt. eigenvalues --    0.95152   0.95318   1.09491   1.10971   1.10978
  Beta virt. eigenvalues --    1.29880   1.60085   1.60094   2.17866   2.35091

 Mulliken charges and spin densities:
               1          2
     1  H   -0.002505  -0.000577
     2  H   -0.007605  -0.000812
     3  F    0.010111   1.001390
 Sum of Mulliken charges =   0.00000   1.00000

 Dipole moment (field-independent basis, Debye):
    X=              0.1262    Y=             -0.0000    Z=             -0.0000  Tot=              0.1262
 Quadrupole moment (field-independent basis, Debye-Ang):
   XX=             -6.1174   YY=             -6.7157   ZZ=             -7.2159
   XY=              0.0000   XZ=              0.0000   YZ=              0.3519

  Exact polarizability:      14.649       0.000       2.443      -0.000       0.186       2.177
 Approx polarizability:      20.180       0.000       2.578       0.000       0.235       2.244

                      1                      2                      3
                      A                      A                      A
 Frequencies --     65.4429              1026.8839              1524.6146
 Red. masses --      1.1085                 1.0078                 1.0104
 Frc consts  --      0.0028                 0.6261                 1.3838
 IR Inten    --      0.6869                 1.5675                 0.0016

                      4
                      A
 Frequencies --   1527.3314
 Red. masses --      1.0104
 Frc consts  --      1.3887
 IR Inten    --      0.0014

 - Thermochemistry -
 -------------------
 Temperature   298.150 Kelvin.  Pressure   1.00000 Atm.
 Atom     1 has atomic number  1 and mass   1.00783

 Molecular mass:    21.01405 amu.
 Principal axes and moments of inertia in atomic units:
                           1         2         3
     Eigenvalues --     0.00000  77.40513  77.40513
           X            1.00000  -0.00000   0.00000
           Y            0.00000   1.00000   0.00000
           Z            0.00000   0.00000   1.00000
 This molecule is a prolate symmetric top.
 Rotational symmetry number  1.
 Rotational temperature (Kelvin)      1.11897
 Rotational constant (GHZ):          23.315523
 Zero-point vibrational energy      24788.3 (Joules/Mol)
                                    5.92454 (Kcal/Mol)
 Warning -- explicit consideration of   1 degrees of freedom as
           vibrations may cause significant error
 Vibrational temperatures:     94.16  1477.46  2193.58  2197.49
          (Kelvin)

 Zero-point correction=                           0.009441 (Hartree/Particle)
 Thermal correction to Energy=                    0.012647
 Thermal correction to Enthalpy=                  0.013591
 Thermal correction to Gibbs Free Energy=        -0.012029
 Sum of electronic and zero-point Energies=           -100.880943
 Sum of electronic and thermal Energies=              -100.877738
 Sum of electronic and thermal Enthalpies=            -100.876794
 Sum of electronic and thermal Free Energies=         -100.902414

                     E (Thermal)             CV                S
                      KCal/Mol        Cal/Mol-Kelvin    Cal/Mol-Kelvin
 Total                    7.936              7.424             53.922
 Electronic               0.000              0.000              1.377
 Translational            0.889              2.981             35.068
 Rotational               0.592              1.987             13.086
 Vibrational              6.455              2.456              4.391
 Vibration     1          0.597              1.971              4.286

 Normal termination of Gaussian 16 at Fri Aug 22 18:48:36 2025.
