 Gaussian 16, Revision C.01,
 Gaussian 16:  ES64L-G16RevC.01  3-Jul-2019

 -----------------------------------------
 # sp b3lyp/6-311g** Force nosymm scf=(qc)
 -----------------------------------------

 -------------------
 Title Card Required
 -------------------
 Symbolic Z-matrix:
 Charge =  0 Multiplicity = 2

                          Input orientation:
 ---------------------------------------------------------------------
 Center     Atomic      Atomic             Coordinates (Angstroms)
 Number     Number       Type             X           Y           Z
 ---------------------------------------------------------------------
      1          1           0        0.000000    0.000000    0.000000
      2          1           0       -1.900000    0.000000    0.000000
      3          9           0        1.150000    0.000000    0.000000
 ---------------------------------------------------------------------

 SCF Done:  E(UB3LYP) =  -100.939669364     a.u. after    6 cycles

 Alpha  occ. eigenvalues --  -24.63671  -1.12580  -0.48856  -0.37276  -0.37276
 Alpha  occ. eigenvalues --   -0.36765
 Alpha virt. eigenvalues --   -0.00680   0.23370   0.29625   0.93837   0.93837
 Alpha virt. eigenvalues --    1.00360   1.11212   1.20182   1.20182   1.36003
 Alpha virt. eigenvalues --    1.36003   1.49033   1.74714   2.16213   2.33770

  Beta  occ. eigenvalues --  -24.63501  -1.12154  -0.47905  -0.37123  -0.37123
  Beta virt. eigenvalues --   -0.14719   0.02385   0.29017   0.33504   0.93847
  Beta virt. eigenvalues --    0.93847   1.00904   1.19979   1.33857   1.33857
  Beta virt. eigenvalues --    1.40517   1.40517   1.56245   1.77661   2.29700

 Mulliken charges and spin densities:
               1          2
     1  H    0.325761  -0.006290
     2  H    0.028492   0.956785
     3  F   -0.354253   0.049505
 Sum of Mulliken charges =   0.00000   1.00000

 Dipole moment (field-independent basis, Debye):
    X=             -2.5263    Y=             -0.0000    Z=              0.0000  Tot=              2.5263
 Quadrupole moment (field-independent basis, Debye-Ang):
   XX=             -8.0729   YY=             -7.0345   ZZ=             -7.0345
   XY=             -0.0000   XZ=              0.0000   YZ=              0.0000

  Exact polarizability:      14.852       0.000       2.411       0.000      -0.000       2.411
 Approx polarizability:      17.678       0.000       2.381      -0.000      -0.000       2.381

 ******    1 imaginary frequencies (negative Signs) ******

                      1                      2                      3
                      A                      A                      A
 Frequencies --   -358.1354              1152.6245              1152.6245
 Red. masses --      1.0361                 1.0250                 1.0250
 Frc consts  --      0.0783                 0.8023                 0.8023
 IR Inten    --     25.3074               108.7638               108.7638

                      4
                      A
 Frequencies --   1254.2946
 Red. masses --      1.0762
 Frc consts  --      0.9975
 IR Inten    --    200.8200

 - Thermochemistry -
 -------------------
 Temperature   298.150 Kelvin.  Pressure   1.00000 Atm.
 Atom     1 has atomic number  1 and mass   1.00783

 Molecular mass:    21.01405 amu.
 Principal axes and moments of inertia in atomic units:
                           1         2         3
     Eigenvalues --     0.00000  35.19468  35.19468
           X            1.00000  -0.00000   0.00000
           Y            0.00000   1.00000   0.00000
           Z            0.00000   0.00000   1.00000
 This molecule is a prolate symmetric top.
 Rotational symmetry number  1.
 Rotational temperature (Kelvin)      2.46099
 Rotational constant (GHZ):          51.278807
    1 imaginary frequencies ignored.
 Zero-point vibrational energy      21290.8 (Joules/Mol)
                                    5.08862 (Kcal/Mol)
 Vibrational temperatures:   1658.37  1658.37  1804.65
          (Kelvin)

 Zero-point correction=                           0.008109 (Hartree/Particle)
 Thermal correction to Energy=                    0.010524
 Thermal correction to Enthalpy=                  0.011468
 Thermal correction to Gibbs Free Energy=        -0.011385
 Sum of electronic and zero-point Energies=           -100.931560
 Sum of electronic and thermal Energies=              -100.929146
 Sum of electronic and thermal Enthalpies=            -100.928202
 Sum of electronic and thermal Free Energies=         -100.951055

                     E (Thermal)             CV                S
                      KCal/Mol        Cal/Mol-Kelvin    Cal/Mol-Kelvin
 Total                    6.604              5.616             48.099
 Electronic               0.000              0.000              1.377
 Translational            0.889              2.981             35.068
 Rotational               0.592              1.987             11.520
 Vibrational              5.122              0.648              0.134

 Normal termination of Gaussian 16 at Fri Aug 22 16:07:40 2025.
