 Gaussian 16, Revision C.01,
 Gaussian 16:  ES64L-G16RevC.01  3-Jul-2019

 -----------------------------------------
 # sp b3lyp/6-311g** Force nosymm scf=(qc)
 -----------------------------------------

 -------------------
 Title Card Required
 -------------------
 Symbolic Z-matrix:
 Charge =  0 Multiplicity = 2

                          Input orientation:
 ---------------------------------------------------------------------
 Center     Atomic      Atomic             Coordinates (Angstroms)
 Number     Number       Type             X           Y           Z
 ---------------------------------------------------------------------
      1          1           0        0.000000    0.000000    0.000000
      2          1           0       -2.800000    0.000000    0.000000
      3          9           0        1.700000    0.000000    0.000000
 ---------------------------------------------------------------------

 SCF Done:  E(UB3LYP) =  -100.815370498     a.u. after   11 cycles

 Alpha  occ. eigenvalues --  -24.63880  -1.08475  -0.40776  -0.35698  -0.35698
 Alpha  occ. eigenvalues --   -0.35130
 Alpha virt. eigenvalues --   -0.18512   0.21136   0.26901   0.95070   0.95070
 Alpha virt. eigenvalues --    0.97184   1.07839   1.22302   1.22302   1.23388
 Alpha virt. eigenvalues --    1.27548   1.27548   1.70725   2.13154   2.16244

  Beta  occ. eigenvalues --  -24.63966  -1.08708  -0.40791  -0.35782  -0.35782
  Beta virt. eigenvalues --   -0.18857  -0.08376   0.24316   0.36325   0.95123
  Beta virt. eigenvalues --    0.95123   0.97370   1.07910   1.28258   1.28258
  Beta virt. eigenvalues --    1.43538   1.43538   1.43576   1.71299   2.17174

 Mulliken charges and spin densities:
               1          2
     1  H    0.316739   0.042280
     2  H    0.014272   0.984997
     3  F   -0.331011  -0.027277
 Sum of Mulliken charges =  -0.00000   1.00000

 Dipole moment (field-independent basis, Debye):
    X=             -2.9625    Y=              0.0000    Z=             -0.0000  Tot=              2.9625
 Quadrupole moment (field-independent basis, Debye-Ang):
   XX=            -10.2133   YY=             -7.4228   ZZ=             -7.4228
   XY=              0.0000   XZ=             -0.0000   YZ=             -0.0000

  Exact polarizability:      26.658       0.000       2.107      -0.000      -0.000       2.107
 Approx polarizability:      53.411      -0.000       2.021       0.000      -0.000       2.021

 ******    2 imaginary frequencies (negative Signs) ******

                      1                      2                      3
                      A                      A                      A
 Frequencies --  -1222.0146              -195.1407               854.6242
 Red. masses --      1.0530                 1.0586                 1.0250
 Frc consts  --      0.9265                 0.0238                 0.4411
 IR Inten    --    112.4856                 4.9467                89.9512

                      4
                      A
 Frequencies --    854.6242
 Red. masses --      1.0250
 Frc consts  --      0.4411
 IR Inten    --     89.9512

 - Thermochemistry -
 -------------------
 Temperature   298.150 Kelvin.  Pressure   1.00000 Atm.
 Atom     1 has atomic number  1 and mass   1.00783

 Molecular mass:    21.01405 amu.
 Principal axes and moments of inertia in atomic units:
                           1         2         3
     Eigenvalues --     0.00000  76.64605  76.64605
           X            1.00000  -0.00000   0.00000
           Y            0.00000   1.00000   0.00000
           Z            0.00000   0.00000   1.00000
 This molecule is a prolate symmetric top.
 Rotational symmetry number  1.
 Rotational temperature (Kelvin)      1.13005
 Rotational constant (GHZ):          23.546435
    2 imaginary frequencies ignored.
 Zero-point vibrational energy      10223.6 (Joules/Mol)
                                    2.44349 (Kcal/Mol)
 Vibrational temperatures:   1229.61  1229.61
          (Kelvin)

 Zero-point correction=                           0.003894 (Hartree/Particle)
 Thermal correction to Energy=                    0.006382
 Thermal correction to Enthalpy=                  0.007327
 Thermal correction to Gibbs Free Energy=        -0.016357
 Sum of electronic and zero-point Energies=           -100.811477
 Sum of electronic and thermal Energies=              -100.808988
 Sum of electronic and thermal Enthalpies=            -100.808044
 Sum of electronic and thermal Free Energies=         -100.831727

                     E (Thermal)             CV                S
                      KCal/Mol        Cal/Mol-Kelvin    Cal/Mol-Kelvin
 Total                    4.005              6.098             49.846
 Electronic               0.000              0.000              1.377
 Translational            0.889              2.981             35.068
 Rotational               0.592              1.987             13.067
 Vibrational              2.524              1.130              0.334

 Normal termination of Gaussian 16 at Fri Aug 22 16:38:09 2025.
