 Gaussian 16, Revision C.01,
 Gaussian 16:  ES64L-G16RevC.01  3-Jul-2019

 -----------------------------------------
 # sp b3lyp/6-311g** Force nosymm scf=(qc)
 -----------------------------------------

 -------------------
 Title Card Required
 -------------------
 Symbolic Z-matrix:
 Charge =  0 Multiplicity = 2

                          Input orientation:
 ---------------------------------------------------------------------
 Center     Atomic      Atomic             Coordinates (Angstroms)
 Number     Number       Type             X           Y           Z
 ---------------------------------------------------------------------
      1          1           0        0.000000    0.000000    0.000000
      2          1           0       -3.600000    0.000000    0.000000
      3          9           0        0.700000    0.000000    0.000000
 ---------------------------------------------------------------------

 SCF Done:  E(UB3LYP) =  -100.874766572     a.u. after    6 cycles

 Alpha  occ. eigenvalues --  -24.63198  -1.28231  -0.58589  -0.41764  -0.41764
 Alpha  occ. eigenvalues --   -0.33359
 Alpha virt. eigenvalues --    0.06446   0.24765   0.52448   0.93481   0.93481
 Alpha virt. eigenvalues --    0.95785   1.23947   1.24150   1.24150   1.31175
 Alpha virt. eigenvalues --    1.44060   1.44060   1.97838   2.14505   2.86573

  Beta  occ. eigenvalues --  -24.63198  -1.28230  -0.58588  -0.41763  -0.41763
  Beta virt. eigenvalues --   -0.05225   0.06837   0.39394   0.52430   0.93481
  Beta virt. eigenvalues --    0.93481   0.95778   1.30771   1.44060   1.44060
  Beta virt. eigenvalues --    1.50707   1.50707   1.50871   1.97851   2.44760

 Mulliken charges and spin densities:
               1          2
     1  H    0.262211   0.000498
     2  H    0.000628   0.999245
     3  F   -0.262839   0.000257
 Sum of Mulliken charges =   0.00000   1.00000

 Dipole moment (field-independent basis, Debye):
    X=             -1.5885    Y=             -0.0000    Z=             -0.0000  Tot=              1.5885
 Quadrupole moment (field-independent basis, Debye-Ang):
   XX=             -7.2948   YY=             -6.6630   ZZ=             -6.6630
   XY=             -0.0000   XZ=             -0.0000   YZ=             -0.0000

  Exact polarizability:       3.911      -0.000       2.446       0.000       0.000       2.446
 Approx polarizability:       4.272       0.000       2.427       0.000       0.000       2.427

 ******    3 imaginary frequencies (negative Signs) ******

                      1                      2                      3
                      A                      A                      A
 Frequencies --  -3563.4936             -3563.4936               -37.6957
 Red. masses --      1.0423                 1.0423                 1.0532
 Frc consts  --      7.7984                 7.7984                 0.0009
 IR Inten    --    215.0206               215.0206                 0.0208

                      4
                      A
 Frequencies --   9073.2229
 Red. masses --      1.0583
 Frc consts  --     51.3319
 IR Inten    --    105.2075

 - Thermochemistry -
 -------------------
 Temperature   298.150 Kelvin.  Pressure   1.00000 Atm.
 Atom     1 has atomic number  1 and mass   1.00783

 Molecular mass:    21.01405 amu.
 Principal axes and moments of inertia in atomic units:
                           1         2         3
     Eigenvalues --     0.00000  63.99401  63.99401
           X            1.00000  -0.00000   0.00000
           Y            0.00000   1.00000   0.00000
           Z            0.00000   0.00000   1.00000
 This molecule is a prolate symmetric top.
 Rotational symmetry number  1.
 Rotational temperature (Kelvin)      1.35347
 Rotational constant (GHZ):          28.201721
    3 imaginary frequencies ignored.
 Zero-point vibrational energy      54269.9 (Joules/Mol)
                                   12.97082 (Kcal/Mol)
 Vibrational temperatures:  13054.34
          (Kelvin)

 Zero-point correction=                           0.020670 (Hartree/Particle)
 Thermal correction to Energy=                    0.023031
 Thermal correction to Enthalpy=                  0.023975
 Thermal correction to Gibbs Free Energy=         0.000621
 Sum of electronic and zero-point Energies=           -100.854096
 Sum of electronic and thermal Energies=              -100.851736
 Sum of electronic and thermal Enthalpies=            -100.850792
 Sum of electronic and thermal Free Energies=         -100.874146

                     E (Thermal)             CV                S
                      KCal/Mol        Cal/Mol-Kelvin    Cal/Mol-Kelvin
 Total                   14.452              4.968             49.153
 Electronic               0.000              0.000              1.377
 Translational            0.889              2.981             35.068
 Rotational               0.592              1.987             12.708
 Vibrational             12.971              0.000              0.000

 Normal termination of Gaussian 16 at Fri Aug 22 15:47:26 2025.
