 Gaussian 16, Revision C.01,
 Gaussian 16:  ES64L-G16RevC.01  3-Jul-2019

 -----------------------------------------
 # sp b3lyp/6-311g** Force nosymm scf=(qc)
 -----------------------------------------

 -------------------
 Title Card Required
 -------------------
 Symbolic Z-matrix:
 Charge =  0 Multiplicity = 2

                          Input orientation:
 ---------------------------------------------------------------------
 Center     Atomic      Atomic             Coordinates (Angstroms)
 Number     Number       Type             X           Y           Z
 ---------------------------------------------------------------------
      1          1           0        0.000000    0.000000    0.000000
      2          1           0       -1.000000    0.000000    0.000000
      3          9           0        0.700000    0.000000    0.000000
 ---------------------------------------------------------------------

 SCF Done:  E(UB3LYP) =  -100.835575626     a.u. after    6 cycles

 Alpha  occ. eigenvalues --  -24.64769  -1.30922  -0.63472  -0.43320  -0.43320
 Alpha  occ. eigenvalues --   -0.34332
 Alpha virt. eigenvalues --    0.16174   0.19382   0.68321   0.89213   0.89213
 Alpha virt. eigenvalues --    0.93215   1.09184   1.09184   1.47008   1.67878
 Alpha virt. eigenvalues --    1.67878   1.77695   2.06079   2.38237   3.77539

  Beta  occ. eigenvalues --  -24.64315  -1.29585  -0.60812  -0.42945  -0.42945
  Beta virt. eigenvalues --   -0.13479   0.16994   0.25299   0.73835   0.90630
  Beta virt. eigenvalues --    0.90630   0.94273   1.16597   1.16597   1.48067
  Beta virt. eigenvalues --    1.73720   1.73720   1.85373   2.12632   2.52985

 Mulliken charges and spin densities:
               1          2
     1  H    0.256884  -0.004523
     2  H   -0.020114   0.930703
     3  F   -0.236770   0.073820
 Sum of Mulliken charges =   0.00000   1.00000

 Dipole moment (field-independent basis, Debye):
    X=             -1.2826    Y=             -0.0000    Z=             -0.0000  Tot=              1.2826
 Quadrupole moment (field-independent basis, Debye-Ang):
   XX=             -7.3713   YY=             -6.4909   ZZ=             -6.4909
   XY=              0.0000   XZ=             -0.0000   YZ=             -0.0000

  Exact polarizability:       8.199       0.000       2.556      -0.000       0.000       2.556
 Approx polarizability:       8.136       0.000       2.610       0.000       0.000       2.610

 ******    2 imaginary frequencies (negative Signs) ******

                      1                      2                      3
                      A                      A                      A
 Frequencies --  -3608.2470             -3608.2470              2022.1995
 Red. masses --      1.0228                 1.0228                 1.0554
 Frc consts  --      7.8457                 7.8457                 2.5428
 IR Inten    --    122.7124               122.7124                76.6622

                      4
                      A
 Frequencies --   9004.9192
 Red. masses --      1.0562
 Frc consts  --     50.4594
 IR Inten    --     76.2804

 - Thermochemistry -
 -------------------
 Temperature   298.150 Kelvin.  Pressure   1.00000 Atm.
 Atom     1 has atomic number  1 and mass   1.00783

 Molecular mass:    21.01405 amu.
 Principal axes and moments of inertia in atomic units:
                           1         2         3
     Eigenvalues --     0.00000  11.17043  11.17043
           X            1.00000  -0.00000   0.00000
           Y            0.00000   1.00000   0.00000
           Z            0.00000   0.00000   1.00000
 This molecule is a prolate symmetric top.
 Rotational symmetry number  1.
 Rotational temperature (Kelvin)      7.75386
 Rotational constant (GHZ):         161.564122
    2 imaginary frequencies ignored.
 Zero-point vibrational energy      65956.8 (Joules/Mol)
                                   15.76406 (Kcal/Mol)
 Vibrational temperatures:   2909.49 12956.07
          (Kelvin)

 Zero-point correction=                           0.025122 (Hartree/Particle)
 Thermal correction to Energy=                    0.027483
 Thermal correction to Enthalpy=                  0.028427
 Thermal correction to Gibbs Free Energy=         0.006720
 Sum of electronic and zero-point Energies=           -100.810454
 Sum of electronic and thermal Energies=              -100.808093
 Sum of electronic and thermal Enthalpies=            -100.807149
 Sum of electronic and thermal Free Energies=         -100.828856

                     E (Thermal)             CV                S
                      KCal/Mol        Cal/Mol-Kelvin    Cal/Mol-Kelvin
 Total                   17.246              4.979             45.686
 Electronic               0.000              0.000              1.377
 Translational            0.889              2.981             35.068
 Rotational               0.592              1.987              9.239
 Vibrational             15.764              0.011              0.001

 Normal termination of Gaussian 16 at Fri Aug 22 15:45:43 2025.
