 Gaussian 16, Revision C.01,
 Gaussian 16:  ES64L-G16RevC.01  3-Jul-2019

 -----------------------------------------
 # sp b3lyp/6-311g** Force nosymm scf=(qc)
 -----------------------------------------

 -------------------
 Title Card Required
 -------------------
 Symbolic Z-matrix:
 Charge =  0 Multiplicity = 2

                          Input orientation:
 ---------------------------------------------------------------------
 Center     Atomic      Atomic             Coordinates (Angstroms)
 Number     Number       Type             X           Y           Z
 ---------------------------------------------------------------------
      1          1           0        0.000000    0.000000    0.000000
      2          1           0       -1.750000    0.000000    0.000000
      3          9           0        2.500000    0.000000    0.000000
 ---------------------------------------------------------------------

 SCF Done:  E(UB3LYP) =  -100.796627308     a.u. after   23 cycles

 Alpha  occ. eigenvalues --  -24.72328  -1.18501  -0.51462  -0.43198  -0.43198
 Alpha  occ. eigenvalues --   -0.35363
 Alpha virt. eigenvalues --   -0.12381   0.24382   0.31177   0.89266   0.93270
 Alpha virt. eigenvalues --    0.93270   1.03706   1.14896   1.21877   1.21877
 Alpha virt. eigenvalues --    1.35399   1.35399   1.62106   2.13497   2.39406

  Beta  occ. eigenvalues --  -24.69449  -1.10294  -0.40326  -0.40326  -0.35161
  Beta virt. eigenvalues --   -0.24059  -0.11673   0.26224   0.30703   0.94652
  Beta virt. eigenvalues --    0.94652   0.95609   1.06565   1.18359   1.22322
  Beta virt. eigenvalues --    1.22322   1.36203   1.36203   1.62747   2.14441

 Mulliken charges and spin densities:
               1          2
     1  H    0.039406  -0.621613
     2  H    0.037247   0.711655
     3  F   -0.076652   0.909958
 Sum of Mulliken charges =   0.00000   1.00000

 Dipole moment (field-independent basis, Debye):
    X=             -1.2869    Y=             -0.0000    Z=             -0.0000  Tot=              1.2869
 Quadrupole moment (field-independent basis, Debye-Ang):
   XX=             -7.6318   YY=             -7.6830   ZZ=             -7.6830
   XY=             -0.0000   XZ=             -0.0000   YZ=             -0.0000

  Exact polarizability:      62.756      -0.000       2.018      -0.000       0.000       2.018
 Approx polarizability:      76.362       0.000       1.962       0.000       0.000       1.962

 ******    2 imaginary frequencies (negative Signs) ******

                      1                      2                      3
                      A                      A                      A
 Frequencies --  -1838.5397              -372.5584               812.4612
 Red. masses --      1.0085                 1.1077                 1.0142
 Frc consts  --      2.0084                 0.0906                 0.3944
 IR Inten    --    201.8579                49.0126                 0.4390

                      4
                      A
 Frequencies --    812.4612
 Red. masses --      1.0142
 Frc consts  --      0.3944
 IR Inten    --      0.4390

 - Thermochemistry -
 -------------------
 Temperature   298.150 Kelvin.  Pressure   1.00000 Atm.
 Atom     1 has atomic number  1 and mass   1.00783

 Molecular mass:    21.01405 amu.
 Principal axes and moments of inertia in atomic units:
                           1         2         3
     Eigenvalues --     0.00000  79.63649  79.63649
           X            1.00000  -0.00000   0.00000
           Y            0.00000   1.00000   0.00000
           Z            0.00000   0.00000   1.00000
 This molecule is a prolate symmetric top.
 Rotational symmetry number  1.
 Rotational temperature (Kelvin)      1.08762
 Rotational constant (GHZ):          22.662239
    2 imaginary frequencies ignored.
 Zero-point vibrational energy       9719.2 (Joules/Mol)
                                    2.32294 (Kcal/Mol)
 Vibrational temperatures:   1168.95  1168.95
          (Kelvin)

 Zero-point correction=                           0.003702 (Hartree/Particle)
 Thermal correction to Energy=                    0.006212
 Thermal correction to Enthalpy=                  0.007156
 Thermal correction to Gibbs Free Energy=        -0.016592
 Sum of electronic and zero-point Energies=           -100.792925
 Sum of electronic and thermal Energies=              -100.790415
 Sum of electronic and thermal Enthalpies=            -100.789471
 Sum of electronic and thermal Free Energies=         -100.813220

                     E (Thermal)             CV                S
                      KCal/Mol        Cal/Mol-Kelvin    Cal/Mol-Kelvin
 Total                    3.898              6.229             49.983
 Electronic               0.000              0.000              1.377
 Translational            0.889              2.981             35.068
 Rotational               0.592              1.987             13.143
 Vibrational              2.417              1.261              0.395

 Normal termination of Gaussian 16 at Fri Aug 22 17:44:31 2025.
