 Gaussian 16, Revision C.01,
 Gaussian 16:  ES64L-G16RevC.01  3-Jul-2019

 -----------------------------------------
 # sp b3lyp/6-311g** Force nosymm scf=(qc)
 -----------------------------------------

 -------------------
 Title Card Required
 -------------------
 Symbolic Z-matrix:
 Charge =  0 Multiplicity = 2

                          Input orientation:
 ---------------------------------------------------------------------
 Center     Atomic      Atomic             Coordinates (Angstroms)
 Number     Number       Type             X           Y           Z
 ---------------------------------------------------------------------
      1          1           0        0.000000    0.000000    0.000000
      2          1           0       -3.400000    0.000000    0.000000
      3          9           0        3.500000    0.000000    0.000000
 ---------------------------------------------------------------------

 SCF Done:  E(UB3LYP) =  -100.759237608     a.u. after   32 cycles

 Alpha  occ. eigenvalues --  -24.75387  -1.21350  -0.54509  -0.45767  -0.45767
 Alpha  occ. eigenvalues --   -0.32356
 Alpha virt. eigenvalues --   -0.07188   0.24386   0.36861   0.87603   0.91481
 Alpha virt. eigenvalues --    0.91481   1.01816   1.25152   1.25152   1.25368
 Alpha virt. eigenvalues --    1.44931   1.45046   1.45046   2.15159   2.40893

  Beta  occ. eigenvalues --  -24.72273  -1.12402  -0.42646  -0.42646  -0.32834
  Beta virt. eigenvalues --   -0.25484  -0.06648   0.24157   0.37775   0.92970
  Beta virt. eigenvalues --    0.92970   0.96740   1.05826   1.24603   1.24603
  Beta virt. eigenvalues --    1.24797   1.45676   1.45916   1.45916   2.15378

 Mulliken charges and spin densities:
               1          2
     1  H    0.011289  -0.984606
     2  H    0.000236   0.997289
     3  F   -0.011525   0.987317
 Sum of Mulliken charges =  -0.00000   1.00000

 Dipole moment (field-independent basis, Debye):
    X=             -0.2113    Y=              0.0000    Z=              0.0000  Tot=              0.2113
 Quadrupole moment (field-independent basis, Debye-Ang):
   XX=             -7.3856   YY=             -7.6234   ZZ=             -7.6234
   XY=             -0.0000   XZ=             -0.0000   YZ=             -0.0000

  Exact polarizability:      23.986      -0.000       2.034       0.000      -0.000       2.034
 Approx polarizability:      18.942      -0.000       1.933      -0.000       0.000       1.933

 ******    2 imaginary frequencies (negative Signs) ******

                      1                      2                      3
                      A                      A                      A
 Frequencies --   -259.3041              -110.4199                82.3225
 Red. masses --      1.0228                 1.0909                 1.0176
 Frc consts  --      0.0405                 0.0078                 0.0041
 IR Inten    --      9.8476                 1.7630                 0.1111

                      4
                      A
 Frequencies --     82.3225
 Red. masses --      1.0176
 Frc consts  --      0.0041
 IR Inten    --      0.1111

 - Thermochemistry -
 -------------------
 Temperature   298.150 Kelvin.  Pressure   1.00000 Atm.
 Atom     1 has atomic number  1 and mass   1.00783

 Molecular mass:    21.01405 amu.
 Principal axes and moments of inertia in atomic units:
                           1         2         3
     Eigenvalues --     0.00000 196.76749 196.76749
           X            1.00000  -0.00000   0.00000
           Y            0.00000   1.00000   0.00000
           Z            0.00000   0.00000   1.00000
 This molecule is a prolate symmetric top.
 Rotational symmetry number  1.
 Rotational temperature (Kelvin)      0.44018
 Rotational constant (GHZ):           9.171948
    2 imaginary frequencies ignored.
 Zero-point vibrational energy        984.8 (Joules/Mol)
                                    0.23537 (Kcal/Mol)
 Warning -- explicit consideration of   2 degrees of freedom as
           vibrations may cause significant error
 Vibrational temperatures:    118.44   118.44
          (Kelvin)

 Zero-point correction=                           0.000375 (Hartree/Particle)
 Thermal correction to Energy=                    0.004274
 Thermal correction to Enthalpy=                  0.005218
 Thermal correction to Gibbs Free Energy=        -0.022841
 Sum of electronic and zero-point Energies=           -100.758863
 Sum of electronic and thermal Energies=              -100.754964
 Sum of electronic and thermal Enthalpies=            -100.754020
 Sum of electronic and thermal Free Energies=         -100.782079

                     E (Thermal)             CV                S
                      KCal/Mol        Cal/Mol-Kelvin    Cal/Mol-Kelvin
 Total                    2.682              8.891             59.055
 Electronic               0.000              0.000              1.377
 Translational            0.889              2.981             35.068
 Rotational               0.592              1.987             14.940
 Vibrational              1.201              3.923              7.669
 Vibration     1          0.600              1.961              3.835
 Vibration     2          0.600              1.961              3.835

 Normal termination of Gaussian 16 at Fri Aug 22 22:11:10 2025.
