 Gaussian 16, Revision C.01,
 Gaussian 16:  ES64L-G16RevC.01  3-Jul-2019

 -----------------------------------------
 # sp b3lyp/6-311g** Force nosymm scf=(qc)
 -----------------------------------------

 -------------------
 Title Card Required
 -------------------
 Symbolic Z-matrix:
 Charge =  0 Multiplicity = 2

                          Input orientation:
 ---------------------------------------------------------------------
 Center     Atomic      Atomic             Coordinates (Angstroms)
 Number     Number       Type             X           Y           Z
 ---------------------------------------------------------------------
      1          1           0        0.000000    0.000000    0.000000
      2          1           0       -1.950000    0.000000    0.000000
      3          9           0        3.400000    0.000000    0.000000
 ---------------------------------------------------------------------

 SCF Done:  E(UB3LYP) =  -100.777114827     a.u. after   26 cycles

 Alpha  occ. eigenvalues --  -24.75456  -1.21414  -0.54579  -0.45830  -0.45830
 Alpha  occ. eigenvalues --   -0.33244
 Alpha virt. eigenvalues --   -0.11195   0.25789   0.31832   0.87951   0.91422
 Alpha virt. eigenvalues --    0.91422   1.02004   1.15072   1.24723   1.24723
 Alpha virt. eigenvalues --    1.37440   1.37440   1.53178   2.13135   2.37163

  Beta  occ. eigenvalues --  -24.72344  -1.12471  -0.42711  -0.42711  -0.33302
  Beta virt. eigenvalues --   -0.25580  -0.10929   0.25748   0.32296   0.92910
  Beta virt. eigenvalues --    0.92910   0.97063   1.06032   1.15076   1.24640
  Beta virt. eigenvalues --    1.24640   1.37804   1.37804   1.53455   2.13809

 Mulliken charges and spin densities:
               1          2
     1  H    0.003679  -0.819740
     2  H    0.007725   0.833007
     3  F   -0.011404   0.986733
 Sum of Mulliken charges =   0.00000   1.00000

 Dipole moment (field-independent basis, Debye):
    X=             -0.2700    Y=              0.0000    Z=              0.0000  Tot=              0.2700
 Quadrupole moment (field-independent basis, Debye-Ang):
   XX=             -6.6375   YY=             -7.7319   ZZ=             -7.7319
   XY=             -0.0000   XZ=             -0.0000   YZ=              0.0000

  Exact polarizability:      47.563      -0.000       2.047      -0.000      -0.000       2.047
 Approx polarizability:      42.835      -0.000       1.940      -0.000      -0.000       1.940

 ******    2 imaginary frequencies (negative Signs) ******

                      1                      2                      3
                      A                      A                      A
 Frequencies --  -1449.4935              -149.1483               599.2788
 Red. masses --      1.0078                 1.1085                 1.0126
 Frc consts  --      1.2476                 0.0145                 0.2143
 IR Inten    --     16.0749                 9.5858                 0.0001

                      4
                      A
 Frequencies --    599.2788
 Red. masses --      1.0126
 Frc consts  --      0.2143
 IR Inten    --      0.0001

 - Thermochemistry -
 -------------------
 Temperature   298.150 Kelvin.  Pressure   1.00000 Atm.
 Atom     1 has atomic number  1 and mass   1.00783

 Molecular mass:    21.01405 amu.
 Principal axes and moments of inertia in atomic units:
                           1         2         3
     Eigenvalues --     0.00000 131.40194 131.40194
           X            1.00000  -0.00000   0.00000
           Y            0.00000   1.00000   0.00000
           Z            0.00000   0.00000   1.00000
 This molecule is a prolate symmetric top.
 Rotational symmetry number  1.
 Rotational temperature (Kelvin)      0.65915
 Rotational constant (GHZ):          13.734509
    2 imaginary frequencies ignored.
 Zero-point vibrational energy       7169.0 (Joules/Mol)
                                    1.71342 (Kcal/Mol)
 Warning -- explicit consideration of   2 degrees of freedom as
           vibrations may cause significant error
 Vibrational temperatures:    862.23   862.23
          (Kelvin)

 Zero-point correction=                           0.002731 (Hartree/Particle)
 Thermal correction to Energy=                    0.005412
 Thermal correction to Enthalpy=                  0.006356
 Thermal correction to Gibbs Free Energy=        -0.018106
 Sum of electronic and zero-point Energies=           -100.774384
 Sum of electronic and thermal Energies=              -100.771703
 Sum of electronic and thermal Enthalpies=            -100.770759
 Sum of electronic and thermal Free Energies=         -100.795221

                     E (Thermal)             CV                S
                      KCal/Mol        Cal/Mol-Kelvin    Cal/Mol-Kelvin
 Total                    3.396              7.035             51.485
 Electronic               0.000              0.000              1.377
 Translational            0.889              2.981             35.068
 Rotational               0.592              1.987             14.138
 Vibrational              1.915              2.067              0.902
 Vibration     1          0.957              1.033              0.451
 Vibration     2          0.957              1.033              0.451

 Normal termination of Gaussian 16 at Fri Aug 22 21:16:33 2025.
