 Gaussian 16, Revision C.01,
 Gaussian 16:  ES64L-G16RevC.01  3-Jul-2019

 -----------------------------------------
 # sp b3lyp/6-311g** Force nosymm scf=(qc)
 -----------------------------------------

 -------------------
 Title Card Required
 -------------------
 Symbolic Z-matrix:
 Charge =  0 Multiplicity = 2

                          Input orientation:
 ---------------------------------------------------------------------
 Center     Atomic      Atomic             Coordinates (Angstroms)
 Number     Number       Type             X           Y           Z
 ---------------------------------------------------------------------
      1          1           0        0.000000    0.000000    0.000000
      2          1           0       -2.600000    0.000000    0.000000
      3          9           0        1.800000    0.000000    0.000000
 ---------------------------------------------------------------------

 SCF Done:  E(UB3LYP) =  -100.807028803     a.u. after   20 cycles

 Alpha  occ. eigenvalues --  -24.66436  -1.12637  -0.45285  -0.38200  -0.38200
 Alpha  occ. eigenvalues --   -0.35109
 Alpha virt. eigenvalues --   -0.14577   0.23311   0.29323   0.93496   0.94902
 Alpha virt. eigenvalues --    0.94902   1.06343   1.22494   1.22494   1.24703
 Alpha virt. eigenvalues --    1.33745   1.33745   1.70050   2.13544   2.26234

  Beta  occ. eigenvalues --  -24.64526  -1.07376  -0.39134  -0.36336  -0.36336
  Beta virt. eigenvalues --   -0.19391  -0.09461   0.23966   0.35149   0.94647
  Beta virt. eigenvalues --    0.94941   0.94941   1.08415   1.24090   1.24090
  Beta virt. eigenvalues --    1.41893   1.41893   1.42682   1.65689   2.13373

 Mulliken charges and spin densities:
               1          2
     1  H    0.240087  -0.577563
     2  H    0.016553   0.976684
     3  F   -0.256640   0.600879
 Sum of Mulliken charges =   0.00000   1.00000

 Dipole moment (field-independent basis, Debye):
    X=             -2.4626    Y=              0.0000    Z=              0.0000  Tot=              2.4626
 Quadrupole moment (field-independent basis, Debye-Ang):
   XX=             -9.6092   YY=             -7.4606   ZZ=             -7.4606
   XY=              0.0000   XZ=             -0.0000   YZ=             -0.0000

  Exact polarizability:      32.116      -0.000       2.099       0.000      -0.000       2.099
 Approx polarizability:      42.590      -0.000       1.994       0.000       0.000       1.994

 ******    2 imaginary frequencies (negative Signs) ******

                      1                      2                      3
                      A                      A                      A
 Frequencies --  -1548.9220              -337.9910               658.5826
 Red. masses --      1.0513                 1.0603                 1.0230
 Frc consts  --      1.4861                 0.0714                 0.2614
 IR Inten    --    100.2646                 9.0079                48.6146

                      4
                      A
 Frequencies --    658.5826
 Red. masses --      1.0230
 Frc consts  --      0.2614
 IR Inten    --     48.6146

 - Thermochemistry -
 -------------------
 Temperature   298.150 Kelvin.  Pressure   1.00000 Atm.
 Atom     1 has atomic number  1 and mass   1.00783

 Molecular mass:    21.01405 amu.
 Principal axes and moments of inertia in atomic units:
                           1         2         3
     Eigenvalues --     0.00000  74.70258  74.70258
           X            1.00000  -0.00000   0.00000
           Y            0.00000   1.00000   0.00000
           Z            0.00000   0.00000   1.00000
 This molecule is a prolate symmetric top.
 Rotational symmetry number  1.
 Rotational temperature (Kelvin)      1.15945
 Rotational constant (GHZ):          24.159020
    2 imaginary frequencies ignored.
 Zero-point vibrational energy       7878.4 (Joules/Mol)
                                    1.88298 (Kcal/Mol)
 Vibrational temperatures:    947.55   947.55
          (Kelvin)

 Zero-point correction=                           0.003001 (Hartree/Particle)
 Thermal correction to Energy=                    0.005622
 Thermal correction to Enthalpy=                  0.006566
 Thermal correction to Gibbs Free Energy=        -0.017275
 Sum of electronic and zero-point Energies=           -100.804028
 Sum of electronic and thermal Energies=              -100.801407
 Sum of electronic and thermal Enthalpies=            -100.800463
 Sum of electronic and thermal Free Energies=         -100.824304

                     E (Thermal)             CV                S
                      KCal/Mol        Cal/Mol-Kelvin    Cal/Mol-Kelvin
 Total                    3.528              6.789             50.179
 Electronic               0.000              0.000              1.377
 Translational            0.889              2.981             35.068
 Rotational               0.592              1.987             13.015
 Vibrational              2.047              1.821              0.718

 Normal termination of Gaussian 16 at Fri Aug 22 16:44:06 2025.
