 Gaussian 16, Revision C.01,
 Gaussian 16:  ES64L-G16RevC.01  3-Jul-2019

 -----------------------------------------
 # sp b3lyp/6-311g** Force nosymm scf=(qc)
 -----------------------------------------

 -------------------
 Title Card Required
 -------------------
 Symbolic Z-matrix:
 Charge =  0 Multiplicity = 2

                          Input orientation:
 ---------------------------------------------------------------------
 Center     Atomic      Atomic             Coordinates (Angstroms)
 Number     Number       Type             X           Y           Z
 ---------------------------------------------------------------------
      1          1           0        0.000000    0.000000    0.000000
      2          1           0       -2.200000    0.000000    0.000000
      3          9           0        0.750000    0.000000    0.000000
 ---------------------------------------------------------------------

 SCF Done:  E(UB3LYP) =  -100.922087802     a.u. after    6 cycles

 Alpha  occ. eigenvalues --  -24.63341  -1.25377  -0.57384  -0.41088  -0.41088
 Alpha  occ. eigenvalues --   -0.35074
 Alpha virt. eigenvalues --    0.08442   0.24987   0.48172   0.94018   0.94018
 Alpha virt. eigenvalues --    0.96430   1.15543   1.22455   1.22455   1.41821
 Alpha virt. eigenvalues --    1.41821   1.49424   1.98651   2.16459   2.67786

  Beta  occ. eigenvalues --  -24.63319  -1.25314  -0.57281  -0.41071  -0.41071
  Beta virt. eigenvalues --   -0.09873   0.10045   0.36712   0.48007   0.94018
  Beta virt. eigenvalues --    0.94018   0.96708   1.25897   1.41487   1.41487
  Beta virt. eigenvalues --    1.43536   1.43536   1.60287   2.00361   2.42434

 Mulliken charges and spin densities:
               1          2
     1  H    0.258441   0.006356
     2  H    0.007957   0.987791
     3  F   -0.266398   0.005853
 Sum of Mulliken charges =   0.00000   1.00000

 Dipole moment (field-independent basis, Debye):
    X=             -1.7458    Y=             -0.0000    Z=             -0.0000  Tot=              1.7458
 Quadrupole moment (field-independent basis, Debye-Ang):
   XX=             -7.1933   YY=             -6.6973   ZZ=             -6.6973
   XY=             -0.0000   XZ=             -0.0000   YZ=              0.0000

  Exact polarizability:       6.555       0.000       2.489      -0.000      -0.000       2.489
 Approx polarizability:       6.654      -0.000       2.478       0.000      -0.000       2.478

 ******    2 imaginary frequencies (negative Signs) ******

                      1                      2                      3
                      A                      A                      A
 Frequencies --  -2668.3361             -2668.3361               208.0966
 Red. masses --      1.0342                 1.0342                 1.0532
 Frc consts  --      4.3386                 4.3386                 0.0269
 IR Inten    --    179.9453               179.9453                 0.3736

                      4
                      A
 Frequencies --   7582.4471
 Red. masses --      1.0583
 Frc consts  --     35.8496
 IR Inten    --    138.5692

 - Thermochemistry -
 -------------------
 Temperature   298.150 Kelvin.  Pressure   1.00000 Atm.
 Atom     1 has atomic number  1 and mass   1.00783

 Molecular mass:    21.01405 amu.
 Principal axes and moments of inertia in atomic units:
                           1         2         3
     Eigenvalues --     0.00000  30.98183  30.98183
           X            1.00000  -0.00000   0.00000
           Y            0.00000   1.00000   0.00000
           Z            0.00000   0.00000   1.00000
 This molecule is a prolate symmetric top.
 Rotational symmetry number  1.
 Rotational temperature (Kelvin)      2.79564
 Rotational constant (GHZ):          58.251610
    2 imaginary frequencies ignored.
 Zero-point vibrational energy      46597.8 (Joules/Mol)
                                   11.13714 (Kcal/Mol)
 Warning -- explicit consideration of   1 degrees of freedom as
           vibrations may cause significant error
 Vibrational temperatures:    299.40 10909.45
          (Kelvin)

 Zero-point correction=                           0.017748 (Hartree/Particle)
 Thermal correction to Energy=                    0.020657
 Thermal correction to Enthalpy=                  0.021601
 Thermal correction to Gibbs Free Energy=        -0.002047
 Sum of electronic and zero-point Energies=           -100.904340
 Sum of electronic and thermal Energies=              -100.901431
 Sum of electronic and thermal Enthalpies=            -100.900487
 Sum of electronic and thermal Free Energies=         -100.924135

                     E (Thermal)             CV                S
                      KCal/Mol        Cal/Mol-Kelvin    Cal/Mol-Kelvin
 Total                   12.962              6.796             49.772
 Electronic               0.000              0.000              1.377
 Translational            0.889              2.981             35.068
 Rotational               0.592              1.987             11.267
 Vibrational             11.481              1.828              2.060
 Vibration     1          0.641              1.828              2.060

 Normal termination of Gaussian 16 at Fri Aug 22 15:48:53 2025.
