 Gaussian 16, Revision C.01,
 Gaussian 16:  ES64L-G16RevC.01  3-Jul-2019

 -----------------------------------------
 # sp b3lyp/6-311g** Force nosymm scf=(qc)
 -----------------------------------------

 -------------------
 Title Card Required
 -------------------
 Symbolic Z-matrix:
 Charge =  0 Multiplicity = 2

                          Input orientation:
 ---------------------------------------------------------------------
 Center     Atomic      Atomic             Coordinates (Angstroms)
 Number     Number       Type             X           Y           Z
 ---------------------------------------------------------------------
      1          1           0        0.000000    0.000000    0.000000
      2          1           0       -1.900000    0.000000    0.000000
      3          9           0        2.100000    0.000000    0.000000
 ---------------------------------------------------------------------

 SCF Done:  E(UB3LYP) =  -100.799040033     a.u. after   15 cycles

 Alpha  occ. eigenvalues --  -24.69104  -1.15427  -0.48225  -0.40480  -0.40480
 Alpha  occ. eigenvalues --   -0.36386
 Alpha virt. eigenvalues --   -0.13219   0.23906   0.31182   0.87138   0.94710
 Alpha virt. eigenvalues --    0.94710   1.04274   1.21444   1.21444   1.26414
 Alpha virt. eigenvalues --    1.34011   1.34011   1.58996   2.11423   2.33817

  Beta  occ. eigenvalues --  -24.66562  -1.08275  -0.37964  -0.37964  -0.36806
  Beta virt. eigenvalues --   -0.22151  -0.11745   0.26316   0.31162   0.90579
  Beta virt. eigenvalues --    0.95693   0.95693   1.07939   1.22667   1.22667
  Beta virt. eigenvalues --    1.33802   1.35636   1.35636   1.57891   2.12216

 Mulliken charges and spin densities:
               1          2
     1  H    0.110780  -0.640185
     2  H    0.046993   0.840269
     3  F   -0.157773   0.799916
 Sum of Mulliken charges =  -0.00000   1.00000

 Dipole moment (field-independent basis, Debye):
    X=             -2.0852    Y=             -0.0000    Z=             -0.0000  Tot=              2.0852
 Quadrupole moment (field-independent basis, Debye-Ang):
   XX=             -8.4638   YY=             -7.5835   ZZ=             -7.5835
   XY=             -0.0000   XZ=             -0.0000   YZ=             -0.0000

  Exact polarizability:      54.005      -0.000       2.048      -0.000       0.000       2.048
 Approx polarizability:      65.903       0.000       1.964       0.000       0.000       1.964

 ******    2 imaginary frequencies (negative Signs) ******

                      1                      2                      3
                      A                      A                      A
 Frequencies --  -1651.0050              -544.9233               686.0433
 Red. masses --      1.0134                 1.1018                 1.0168
 Frc consts  --      1.6276                 0.1928                 0.2820
 IR Inten    --    152.4754                42.5368                 6.6750

                      4
                      A
 Frequencies --    686.0433
 Red. masses --      1.0168
 Frc consts  --      0.2820
 IR Inten    --      6.6750

 - Thermochemistry -
 -------------------
 Temperature   298.150 Kelvin.  Pressure   1.00000 Atm.
 Atom     1 has atomic number  1 and mass   1.00783

 Molecular mass:    21.01405 amu.
 Principal axes and moments of inertia in atomic units:
                           1         2         3
     Eigenvalues --     0.00000  67.03306  67.03306
           X            1.00000  -0.00000   0.00000
           Y            0.00000   1.00000   0.00000
           Z            0.00000   0.00000   1.00000
 This molecule is a prolate symmetric top.
 Rotational symmetry number  1.
 Rotational temperature (Kelvin)      1.29211
 Rotational constant (GHZ):          26.923151
    2 imaginary frequencies ignored.
 Zero-point vibrational energy       8206.9 (Joules/Mol)
                                    1.96150 (Kcal/Mol)
 Vibrational temperatures:    987.06   987.06
          (Kelvin)

 Zero-point correction=                           0.003126 (Hartree/Particle)
 Thermal correction to Energy=                    0.005723
 Thermal correction to Enthalpy=                  0.006667
 Thermal correction to Gibbs Free Energy=        -0.017038
 Sum of electronic and zero-point Energies=           -100.795914
 Sum of electronic and thermal Energies=              -100.793317
 Sum of electronic and thermal Enthalpies=            -100.792373
 Sum of electronic and thermal Free Energies=         -100.816078

                     E (Thermal)             CV                S
                      KCal/Mol        Cal/Mol-Kelvin    Cal/Mol-Kelvin
 Total                    3.591              6.680             49.892
 Electronic               0.000              0.000              1.377
 Translational            0.889              2.981             35.068
 Rotational               0.592              1.987             12.800
 Vibrational              2.110              1.712              0.646

 Normal termination of Gaussian 16 at Fri Aug 22 17:03:44 2025.
