 Gaussian 16, Revision C.01,
 Gaussian 16:  ES64L-G16RevC.01  3-Jul-2019

 -----------------------------------------
 # sp b3lyp/6-311g** Force nosymm scf=(qc)
 -----------------------------------------

 -------------------
 Title Card Required
 -------------------
 Symbolic Z-matrix:
 Charge =  0 Multiplicity = 2

                          Input orientation:
 ---------------------------------------------------------------------
 Center     Atomic      Atomic             Coordinates (Angstroms)
 Number     Number       Type             X           Y           Z
 ---------------------------------------------------------------------
      1          1           0        0.000000    0.000000    0.000000
      2          1           0       -0.700000    0.000000    0.000000
      3          9           0        1.850000    0.000000    0.000000
 ---------------------------------------------------------------------

 SCF Done:  E(UB3LYP) =  -100.933430682     a.u. after    6 cycles

 Alpha  occ. eigenvalues --  -24.74278  -1.20508  -0.55095  -0.45289  -0.44967
 Alpha  occ. eigenvalues --   -0.44967
 Alpha virt. eigenvalues --    0.08628   0.20196   0.45379   0.90165   0.90165
 Alpha virt. eigenvalues --    0.94103   1.07973   1.07973   1.17511   1.67406
 Alpha virt. eigenvalues --    1.84631   1.84631   1.88938   2.42326   3.53858

  Beta  occ. eigenvalues --  -24.71293  -1.12050  -0.46377  -0.42002  -0.42002
  Beta virt. eigenvalues --   -0.25196   0.09463   0.20849   0.46239   0.91470
  Beta virt. eigenvalues --    0.91470   1.01640   1.08903   1.08903   1.20968
  Beta virt. eigenvalues --    1.69071   1.85089   1.85089   1.89600   2.43345

 Mulliken charges and spin densities:
               1          2
     1  H    0.025182  -0.029966
     2  H    0.026851   0.099188
     3  F   -0.052033   0.930778
 Sum of Mulliken charges =   0.00000   1.00000

 Dipole moment (field-independent basis, Debye):
    X=             -0.5404    Y=             -0.0000    Z=             -0.0000  Tot=              0.5404
 Quadrupole moment (field-independent basis, Debye-Ang):
   XX=             -6.1853   YY=             -6.8239   ZZ=             -6.8239
   XY=             -0.0000   XZ=             -0.0000   YZ=              0.0000

  Exact polarizability:      17.282       0.000       2.119       0.000      -0.000       2.119
 Approx polarizability:      19.537      -0.000       2.179      -0.000      -0.000       2.179

 ******    3 imaginary frequencies (negative Signs) ******

                      1                      2                      3
                      A                      A                      A
 Frequencies --  -1333.2348             -1333.2348               -78.8580
 Red. masses --      1.0103                 1.0103                 1.1085
 Frc consts  --      1.0581                 1.0581                 0.0041
 IR Inten    --      0.1486                 0.1486                38.6901

                      4
                      A
 Frequencies --   4993.4715
 Red. masses --      1.0078
 Frc consts  --     14.8063
 IR Inten    --    335.2362

 - Thermochemistry -
 -------------------
 Temperature   298.150 Kelvin.  Pressure   1.00000 Atm.
 Atom     1 has atomic number  1 and mass   1.00783

 Molecular mass:    21.01405 amu.
 Principal axes and moments of inertia in atomic units:
                           1         2         3
     Eigenvalues --     0.00000  32.37849  32.37849
           X            1.00000  -0.00000   0.00000
           Y            0.00000   1.00000   0.00000
           Z            0.00000   0.00000   1.00000
 This molecule is a prolate symmetric top.
 Rotational symmetry number  1.
 Rotational temperature (Kelvin)      2.67505
 Rotational constant (GHZ):          55.738894
    3 imaginary frequencies ignored.
 Zero-point vibrational energy      29867.6 (Joules/Mol)
                                    7.13853 (Kcal/Mol)
 Vibrational temperatures:   7184.49
          (Kelvin)

 Zero-point correction=                           0.011376 (Hartree/Particle)
 Thermal correction to Energy=                    0.013736
 Thermal correction to Enthalpy=                  0.014681
 Thermal correction to Gibbs Free Energy=        -0.008031
 Sum of electronic and zero-point Energies=           -100.922055
 Sum of electronic and thermal Energies=              -100.919694
 Sum of electronic and thermal Enthalpies=            -100.918750
 Sum of electronic and thermal Free Energies=         -100.941461

                     E (Thermal)             CV                S
                      KCal/Mol        Cal/Mol-Kelvin    Cal/Mol-Kelvin
 Total                    8.620              4.968             47.800
 Electronic               0.000              0.000              1.377
 Translational            0.889              2.981             35.068
 Rotational               0.592              1.987             11.354
 Vibrational              7.139              0.000              0.000

 Normal termination of Gaussian 16 at Fri Aug 22 16:45:32 2025.
