 Gaussian 16, Revision C.01,
 Gaussian 16:  ES64L-G16RevC.01  3-Jul-2019

 -----------------------------------------
 # sp b3lyp/6-311g** Force nosymm scf=(qc)
 -----------------------------------------

 -------------------
 Title Card Required
 -------------------
 Symbolic Z-matrix:
 Charge =  0 Multiplicity = 2

                          Input orientation:
 ---------------------------------------------------------------------
 Center     Atomic      Atomic             Coordinates (Angstroms)
 Number     Number       Type             X           Y           Z
 ---------------------------------------------------------------------
      1          1           0        0.000000    0.000000    0.000000
      2          1           0       -1.350000    0.000000    0.000000
      3          9           0        2.050000    0.000000    0.000000
 ---------------------------------------------------------------------

 SCF Done:  E(UB3LYP) =  -100.853726008     a.u. after   15 cycles

 Alpha  occ. eigenvalues --  -24.71386  -1.17683  -0.50936  -0.42480  -0.42480
 Alpha  occ. eigenvalues --   -0.38234
 Alpha virt. eigenvalues --   -0.08050   0.22235   0.32222   0.86853   0.92981
 Alpha virt. eigenvalues --    0.92981   1.04163   1.13475   1.13475   1.30813
 Alpha virt. eigenvalues --    1.44444   1.44444   1.93802   2.24199   2.49774

  Beta  occ. eigenvalues --  -24.68652  -1.09952  -0.39766  -0.39766  -0.37737
  Beta virt. eigenvalues --   -0.24388  -0.06417   0.23579   0.32490   0.92302
  Beta virt. eigenvalues --    0.94169   0.94169   1.07682   1.14943   1.14943
  Beta virt. eigenvalues --    1.34561   1.45357   1.45357   1.95387   2.25413

 Mulliken charges and spin densities:
               1          2
     1  H    0.054914  -0.210583
     2  H    0.056185   0.351791
     3  F   -0.111099   0.858792
 Sum of Mulliken charges =  -0.00000   1.00000

 Dipole moment (field-independent basis, Debye):
    X=             -1.4874    Y=             -0.0000    Z=             -0.0000  Tot=              1.4874
 Quadrupole moment (field-independent basis, Debye-Ang):
   XX=             -7.2003   YY=             -7.4879   ZZ=             -7.4879
   XY=             -0.0000   XZ=             -0.0000   YZ=             -0.0000

  Exact polarizability:      48.768      -0.000       2.139      -0.000       0.000       2.139
 Approx polarizability:      74.084       0.000       2.114       0.000      -0.000       2.114

 ******    2 imaginary frequencies (negative Signs) ******

                      1                      2                      3
                      A                      A                      A
 Frequencies --  -1921.5907              -357.1881              1252.8876
 Red. masses --      1.0124                 1.1031                 1.0137
 Frc consts  --      2.2025                 0.0829                 0.9375
 IR Inten    --   1087.3759                 7.5686                 0.3627

                      4
                      A
 Frequencies --   1252.8876
 Red. masses --      1.0137
 Frc consts  --      0.9375
 IR Inten    --      0.3627

 - Thermochemistry -
 -------------------
 Temperature   298.150 Kelvin.  Pressure   1.00000 Atm.
 Atom     1 has atomic number  1 and mass   1.00783

 Molecular mass:    21.01405 amu.
 Principal axes and moments of inertia in atomic units:
                           1         2         3
     Eigenvalues --     0.00000  51.60252  51.60252
           X            1.00000  -0.00000   0.00000
           Y            0.00000   1.00000   0.00000
           Z            0.00000   0.00000   1.00000
 This molecule is a prolate symmetric top.
 Rotational symmetry number  1.
 Rotational temperature (Kelvin)      1.67848
 Rotational constant (GHZ):          34.973900
    2 imaginary frequencies ignored.
 Zero-point vibrational energy      14987.9 (Joules/Mol)
                                    3.58219 (Kcal/Mol)
 Vibrational temperatures:   1802.63  1802.63
          (Kelvin)

 Zero-point correction=                           0.005709 (Hartree/Particle)
 Thermal correction to Energy=                    0.008096
 Thermal correction to Enthalpy=                  0.009040
 Thermal correction to Gibbs Free Energy=        -0.014142
 Sum of electronic and zero-point Energies=           -100.848017
 Sum of electronic and thermal Energies=              -100.845630
 Sum of electronic and thermal Enthalpies=            -100.844686
 Sum of electronic and thermal Free Energies=         -100.867868

                     E (Thermal)             CV                S
                      KCal/Mol        Cal/Mol-Kelvin    Cal/Mol-Kelvin
 Total                    5.080              5.314             48.792
 Electronic               0.000              0.000              1.377
 Translational            0.889              2.981             35.068
 Rotational               0.592              1.987             12.280
 Vibrational              3.599              0.346              0.066

 Normal termination of Gaussian 16 at Fri Aug 22 16:59:32 2025.
