 Gaussian 16, Revision C.01,
 Gaussian 16:  ES64L-G16RevC.01  3-Jul-2019

 -----------------------------------------
 # sp b3lyp/6-311g** Force nosymm scf=(qc)
 -----------------------------------------

 -------------------
 Title Card Required
 -------------------
 Symbolic Z-matrix:
 Charge =  0 Multiplicity = 2

                          Input orientation:
 ---------------------------------------------------------------------
 Center     Atomic      Atomic             Coordinates (Angstroms)
 Number     Number       Type             X           Y           Z
 ---------------------------------------------------------------------
      1          1           0        0.000000    0.000000    0.000000
      2          1           0       -3.300000    0.000000    0.000000
      3          9           0        1.100000    0.000000    0.000000
 ---------------------------------------------------------------------

 SCF Done:  E(UB3LYP) =  -100.948477127     a.u. after    6 cycles

 Alpha  occ. eigenvalues --  -24.64280  -1.13854  -0.49602  -0.38088  -0.38088
 Alpha  occ. eigenvalues --   -0.33966
 Alpha virt. eigenvalues --   -0.02406   0.23500   0.31205   0.93583   0.93583
 Alpha virt. eigenvalues --    0.99611   1.23455   1.23554   1.23554   1.29181
 Alpha virt. eigenvalues --    1.35231   1.35231   1.79767   2.14139   2.31906

  Beta  occ. eigenvalues --  -24.64276  -1.13843  -0.49589  -0.38084  -0.38084
  Beta virt. eigenvalues --   -0.07166  -0.01322   0.29780   0.38730   0.93583
  Beta virt. eigenvalues --    0.93583   0.99620   1.28938   1.35225   1.35225
  Beta virt. eigenvalues --    1.48278   1.48278   1.48729   1.79816   2.31792

 Mulliken charges and spin densities:
               1          2
     1  H    0.339657   0.000552
     2  H    0.001709   0.997997
     3  F   -0.341366   0.001452
 Sum of Mulliken charges =   0.00000   1.00000

 Dipole moment (field-independent basis, Debye):
    X=             -2.1816    Y=              0.0000    Z=             -0.0000  Tot=              2.1816
 Quadrupole moment (field-independent basis, Debye-Ang):
   XX=             -8.5034   YY=             -7.0485   ZZ=             -7.0485
   XY=              0.0000   XZ=              0.0000   YZ=              0.0000

  Exact polarizability:       8.340      -0.000       2.367       0.000      -0.000       2.367
 Approx polarizability:      10.777       0.000       2.332      -0.000       0.000       2.332

 ******    1 imaginary frequencies (negative Signs) ******

                      1                      2                      3
                      A                      A                      A
 Frequencies --    -66.4109              1181.3709              1181.3709
 Red. masses --      1.0531                 1.0346                 1.0346
 Frc consts  --      0.0027                 0.8507                 0.8507
 IR Inten    --      0.1481               155.4800               155.4800

                      4
                      A
 Frequencies --   1938.2984
 Red. masses --      1.0585
 Frc consts  --      2.3431
 IR Inten    --     82.1366

 - Thermochemistry -
 -------------------
 Temperature   298.150 Kelvin.  Pressure   1.00000 Atm.
 Atom     1 has atomic number  1 and mass   1.00783

 Molecular mass:    21.01405 amu.
 Principal axes and moments of inertia in atomic units:
                           1         2         3
     Eigenvalues --     0.00000  68.81025  68.81025
           X            1.00000  -0.00000   0.00000
           Y            0.00000   1.00000   0.00000
           Z            0.00000   0.00000   1.00000
 This molecule is a prolate symmetric top.
 Rotational symmetry number  1.
 Rotational temperature (Kelvin)      1.25874
 Rotational constant (GHZ):          26.227797
    1 imaginary frequencies ignored.
 Zero-point vibrational energy      25725.9 (Joules/Mol)
                                    6.14865 (Kcal/Mol)
 Vibrational temperatures:   1699.73  1699.73  2788.78
          (Kelvin)

 Zero-point correction=                           0.009798 (Hartree/Particle)
 Thermal correction to Energy=                    0.012196
 Thermal correction to Enthalpy=                  0.013140
 Thermal correction to Gibbs Free Energy=        -0.010326
 Sum of electronic and zero-point Energies=           -100.938679
 Sum of electronic and thermal Energies=              -100.936281
 Sum of electronic and thermal Enthalpies=            -100.935337
 Sum of electronic and thermal Free Energies=         -100.958803

                     E (Thermal)             CV                S
                      KCal/Mol        Cal/Mol-Kelvin    Cal/Mol-Kelvin
 Total                    7.653              5.418             49.389
 Electronic               0.000              0.000              1.377
 Translational            0.889              2.981             35.068
 Rotational               0.592              1.987             12.852
 Vibrational              6.172              0.450              0.091

 Normal termination of Gaussian 16 at Fri Aug 22 16:06:11 2025.
