 Gaussian 16, Revision C.01,
 Gaussian 16:  ES64L-G16RevC.01  3-Jul-2019

 -----------------------------------------
 # sp b3lyp/6-311g** Force nosymm scf=(qc)
 -----------------------------------------

 -------------------
 Title Card Required
 -------------------
 Symbolic Z-matrix:
 Charge =  0 Multiplicity = 2

                          Input orientation:
 ---------------------------------------------------------------------
 Center     Atomic      Atomic             Coordinates (Angstroms)
 Number     Number       Type             X           Y           Z
 ---------------------------------------------------------------------
      1          1           0        0.000000    0.000000    0.000000
      2          1           0       -2.700000    0.000000    0.000000
      3          9           0        2.150000    0.000000    0.000000
 ---------------------------------------------------------------------

 SCF Done:  E(UB3LYP) =  -100.751779894     a.u. after   15 cycles

 Alpha  occ. eigenvalues --  -24.63861  -1.08073  -0.38792  -0.36068  -0.35497
 Alpha  occ. eigenvalues --   -0.34012
 Alpha virt. eigenvalues --   -0.23723   0.21430   0.26726   0.91150   0.97982
 Alpha virt. eigenvalues --    0.98019   1.09901   1.21700   1.21700   1.22712
 Alpha virt. eigenvalues --    1.22719   1.23305   1.45560   2.12692   2.14203

  Beta  occ. eigenvalues --  -24.63874  -1.08113  -0.38590  -0.35511  -0.34361
  Beta virt. eigenvalues --   -0.23780  -0.10085   0.24988   0.34610   0.91488
  Beta virt. eigenvalues --    0.97996   0.98031   1.10144   1.23422   1.23429
  Beta virt. eigenvalues --    1.41336   1.41439   1.41439   1.46792   2.15230

 Mulliken charges and spin densities:
               1          2
     1  H    0.236246   0.039792
     2  H    0.032379   0.964848
     3  F   -0.268625  -0.004640
 Sum of Mulliken charges =   0.00000   1.00000

 Dipole moment (field-independent basis, Debye):
    X=             -3.3646    Y=             -0.0004    Z=              0.0005  Tot=              3.3646
 Quadrupole moment (field-independent basis, Debye-Ang):
   XX=            -11.3529   YY=             -7.5627   ZZ=             -7.5465
   XY=              0.0002   XZ=             -0.0003   YZ=             -0.0341

  Exact polarizability:      58.991       0.002       2.117      -0.002       0.076       2.081
 Approx polarizability:     161.660       0.026       1.907      -0.033      -0.022       1.917

 ******    2 imaginary frequencies (negative Signs) ******

                      1                      2                      3
                      A                      A                      A
 Frequencies --  -1168.0823              -280.4222               549.1837
 Red. masses --      1.0496                 1.0620                 1.0209
 Frc consts  --      0.8437                 0.0492                 0.1814
 IR Inten    --     37.5783                26.4697                54.8649

                      4
                      A
 Frequencies --    576.2828
 Red. masses --      1.0209
 Frc consts  --      0.1998
 IR Inten    --     48.1037

 - Thermochemistry -
 -------------------
 Temperature   298.150 Kelvin.  Pressure   1.00000 Atm.
 Atom     1 has atomic number  1 and mass   1.00783

 Molecular mass:    21.01405 amu.
 Principal axes and moments of inertia in atomic units:
                           1         2         3
     Eigenvalues --     0.00000  92.83636  92.83636
           X            1.00000  -0.00000   0.00000
           Y            0.00000   1.00000   0.00000
           Z            0.00000   0.00000   1.00000
 This molecule is a prolate symmetric top.
 Rotational symmetry number  1.
 Rotational temperature (Kelvin)      0.93297
 Rotational constant (GHZ):          19.440026
    2 imaginary frequencies ignored.
 Zero-point vibrational energy       6731.8 (Joules/Mol)
                                    1.60894 (Kcal/Mol)
 Warning -- explicit consideration of   2 degrees of freedom as
           vibrations may cause significant error
 Vibrational temperatures:    790.15   829.14
          (Kelvin)

 Zero-point correction=                           0.002564 (Hartree/Particle)
 Thermal correction to Energy=                    0.005288
 Thermal correction to Enthalpy=                  0.006232
 Thermal correction to Gibbs Free Energy=        -0.017967
 Sum of electronic and zero-point Energies=           -100.749216
 Sum of electronic and thermal Energies=              -100.746492
 Sum of electronic and thermal Enthalpies=            -100.745548
 Sum of electronic and thermal Free Energies=         -100.769747

                     E (Thermal)             CV                S
                      KCal/Mol        Cal/Mol-Kelvin    Cal/Mol-Kelvin
 Total                    3.318              7.192             50.931
 Electronic               0.000              0.000              1.377
 Translational            0.889              2.981             35.068
 Rotational               0.592              1.987             13.447
 Vibrational              1.837              2.224              1.038
 Vibration     1          0.904              1.141              0.546
 Vibration     2          0.933              1.083              0.492

 Normal termination of Gaussian 16 at Fri Aug 22 17:08:20 2025.
