 Gaussian 16, Revision C.01,
 Gaussian 16:  ES64L-G16RevC.01  3-Jul-2019

 -----------------------------------------
 # sp b3lyp/6-311g** Force nosymm scf=(qc)
 -----------------------------------------

 -------------------
 Title Card Required
 -------------------
 Symbolic Z-matrix:
 Charge =  0 Multiplicity = 2

                          Input orientation:
 ---------------------------------------------------------------------
 Center     Atomic      Atomic             Coordinates (Angstroms)
 Number     Number       Type             X           Y           Z
 ---------------------------------------------------------------------
      1          1           0        0.000000    0.000000    0.000000
      2          1           0       -2.750000    0.000000    0.000000
      3          9           0        2.200000    0.000000    0.000000
 ---------------------------------------------------------------------

 SCF Done:  E(UB3LYP) =  -100.778360018     a.u. after   20 cycles

 Alpha  occ. eigenvalues --  -24.69741  -1.16044  -0.48796  -0.41030  -0.41030
 Alpha  occ. eigenvalues --   -0.33939
 Alpha virt. eigenvalues --   -0.12719   0.23959   0.32629   0.88860   0.94528
 Alpha virt. eigenvalues --    0.94528   1.06393   1.23643   1.23643   1.25355
 Alpha virt. eigenvalues --    1.37030   1.37030   1.51425   2.14642   2.31474

  Beta  occ. eigenvalues --  -24.67117  -1.08640  -0.38428  -0.38428  -0.36704
  Beta virt. eigenvalues --   -0.21984  -0.08855   0.24771   0.35757   0.92449
  Beta virt. eigenvalues --    0.95615   0.95615   1.08662   1.21672   1.21672
  Beta virt. eigenvalues --    1.40856   1.43097   1.43097   1.45041   2.13169

 Mulliken charges and spin densities:
               1          2
     1  H    0.135122  -0.811301
     2  H    0.008334   0.984820
     3  F   -0.143455   0.826481
 Sum of Mulliken charges =   0.00000   1.00000

 Dipole moment (field-independent basis, Debye):
    X=             -1.6914    Y=             -0.0000    Z=             -0.0000  Tot=              1.6914
 Quadrupole moment (field-independent basis, Debye-Ang):
   XX=             -9.4585   YY=             -7.5504   ZZ=             -7.5504
   XY=             -0.0000   XZ=             -0.0000   YZ=              0.0000

  Exact polarizability:      35.139      -0.000       2.035      -0.000       0.000       2.035
 Approx polarizability:      43.184      -0.000       1.928      -0.000      -0.000       1.928

 ******    2 imaginary frequencies (negative Signs) ******

                      1                      2                      3
                      A                      A                      A
 Frequencies --   -920.3033              -294.5785               380.8995
 Red. masses --      1.0451                 1.0667                 1.0209
 Frc consts  --      0.5215                 0.0545                 0.0873
 IR Inten    --     92.8316                 7.3033                16.0074

                      4
                      A
 Frequencies --    380.8995
 Red. masses --      1.0209
 Frc consts  --      0.0873
 IR Inten    --     16.0074

 - Thermochemistry -
 -------------------
 Temperature   298.150 Kelvin.  Pressure   1.00000 Atm.
 Atom     1 has atomic number  1 and mass   1.00783

 Molecular mass:    21.01405 amu.
 Principal axes and moments of inertia in atomic units:
                           1         2         3
     Eigenvalues --     0.00000  96.77981  96.77981
           X            1.00000  -0.00000   0.00000
           Y            0.00000   1.00000   0.00000
           Z            0.00000   0.00000   1.00000
 This molecule is a prolate symmetric top.
 Rotational symmetry number  1.
 Rotational temperature (Kelvin)      0.89496
 Rotational constant (GHZ):          18.647910
    2 imaginary frequencies ignored.
 Zero-point vibrational energy       4556.6 (Joules/Mol)
                                    1.08905 (Kcal/Mol)
 Warning -- explicit consideration of   2 degrees of freedom as
           vibrations may cause significant error
 Vibrational temperatures:    548.03   548.03
          (Kelvin)

 Zero-point correction=                           0.001736 (Hartree/Particle)
 Thermal correction to Energy=                    0.004753
 Thermal correction to Enthalpy=                  0.005697
 Thermal correction to Gibbs Free Energy=        -0.019032
 Sum of electronic and zero-point Energies=           -100.776625
 Sum of electronic and thermal Energies=              -100.773607
 Sum of electronic and thermal Enthalpies=            -100.772663
 Sum of electronic and thermal Free Energies=         -100.797392

                     E (Thermal)             CV                S
                      KCal/Mol        Cal/Mol-Kelvin    Cal/Mol-Kelvin
 Total                    2.982              7.990             52.047
 Electronic               0.000              0.000              1.377
 Translational            0.889              2.981             35.068
 Rotational               0.592              1.987             13.530
 Vibrational              1.501              3.022              2.071
 Vibration     1          0.751              1.511              1.036
 Vibration     2          0.751              1.511              1.036

 Normal termination of Gaussian 16 at Fri Aug 22 17:12:21 2025.
