 Gaussian 16, Revision C.01,
 Gaussian 16:  ES64L-G16RevC.01  3-Jul-2019

 -----------------------------------------
 # sp b3lyp/6-311g** Force nosymm scf=(qc)
 -----------------------------------------

 -------------------
 Title Card Required
 -------------------
 Symbolic Z-matrix:
 Charge =  0 Multiplicity = 2

                          Input orientation:
 ---------------------------------------------------------------------
 Center     Atomic      Atomic             Coordinates (Angstroms)
 Number     Number       Type             X           Y           Z
 ---------------------------------------------------------------------
      1          1           0        0.000000    0.000000    0.000000
      2          1           0       -3.800000    0.000000    0.000000
      3          9           0        1.850000    0.000000    0.000000
 ---------------------------------------------------------------------

 SCF Done:  E(UB3LYP) =  -100.799099330     a.u. after   17 cycles

 Alpha  occ. eigenvalues --  -24.64947  -1.07569  -0.38980  -0.36692  -0.36692
 Alpha  occ. eigenvalues --   -0.33386
 Alpha virt. eigenvalues --   -0.19642   0.19719   0.26896   0.92051   0.95006
 Alpha virt. eigenvalues --    0.95006   1.07954   1.23120   1.23120   1.24091
 Alpha virt. eigenvalues --    1.24105   1.24105   1.61999   2.10579   2.15333

  Beta  occ. eigenvalues --  -24.66994  -1.13229  -0.45835  -0.38695  -0.38695
  Beta virt. eigenvalues --   -0.14917  -0.05001   0.27069   0.39400   0.91415
  Beta virt. eigenvalues --    0.94844   0.94844   1.05681   1.34075   1.34075
  Beta virt. eigenvalues --    1.47079   1.47079   1.47276   1.67580   2.26327

 Mulliken charges and spin densities:
               1          2
     1  H    0.240110   0.644105
     2  H    0.000712   0.999310
     3  F   -0.240822  -0.643415
 Sum of Mulliken charges =   0.00000   1.00000

 Dipole moment (field-independent basis, Debye):
    X=             -2.1936    Y=              0.0000    Z=             -0.0000  Tot=              2.1936
 Quadrupole moment (field-independent basis, Debye-Ang):
   XX=            -10.2370   YY=             -7.4455   ZZ=             -7.4455
   XY=              0.0000   XZ=             -0.0000   YZ=              0.0000

  Exact polarizability:      23.220       0.000       2.087      -0.000       0.000       2.087
 Approx polarizability:      36.167       0.000       1.975      -0.000      -0.000       1.975

 ******    1 imaginary frequencies (negative Signs) ******

                      1                      2                      3
                      A                      A                      A
 Frequencies --  -1403.6130                24.2678               607.4900
 Red. masses --      1.0585                 1.0531                 1.0285
 Frc consts  --      1.2287                 0.0004                 0.2236
 IR Inten    --    131.3754                 0.0846                54.4165

                      4
                      A
 Frequencies --    607.4900
 Red. masses --      1.0285
 Frc consts  --      0.2236
 IR Inten    --     54.4165

 - Thermochemistry -
 -------------------
 Temperature   298.150 Kelvin.  Pressure   1.00000 Atm.
 Atom     1 has atomic number  1 and mass   1.00783

 Molecular mass:    21.01405 amu.
 Principal axes and moments of inertia in atomic units:
                           1         2         3
     Eigenvalues --     0.00000 117.49782 117.49782
           X            1.00000  -0.00000   0.00000
           Y            0.00000   1.00000   0.00000
           Z            0.00000   0.00000   1.00000
 This molecule is a prolate symmetric top.
 Rotational symmetry number  1.
 Rotational temperature (Kelvin)      0.73715
 Rotational constant (GHZ):          15.359785
    1 imaginary frequencies ignored.
 Zero-point vibrational energy       7412.3 (Joules/Mol)
                                    1.77159 (Kcal/Mol)
 Warning -- explicit consideration of   3 degrees of freedom as
           vibrations may cause significant error
 Vibrational temperatures:     34.92   874.04   874.04
          (Kelvin)

 Zero-point correction=                           0.002823 (Hartree/Particle)
 Thermal correction to Energy=                    0.006385
 Thermal correction to Enthalpy=                  0.007330
 Thermal correction to Gibbs Free Energy=        -0.019983
 Sum of electronic and zero-point Energies=           -100.796276
 Sum of electronic and thermal Energies=              -100.792714
 Sum of electronic and thermal Enthalpies=            -100.791770
 Sum of electronic and thermal Free Energies=         -100.819083

                     E (Thermal)             CV                S
                      KCal/Mol        Cal/Mol-Kelvin    Cal/Mol-Kelvin
 Total                    4.007              8.985             57.485
 Electronic               0.000              0.000              1.377
 Translational            0.889              2.981             35.068
 Rotational               0.592              1.987             13.916
 Vibrational              2.526              4.017              7.124
 Vibration     1          0.593              1.985              6.250
 Vibration     2          0.966              1.016              0.437
 Vibration     3          0.966              1.016              0.437

 Normal termination of Gaussian 16 at Fri Aug 22 16:48:30 2025.
