 Gaussian 16, Revision C.01,
 Gaussian 16:  ES64L-G16RevC.01  3-Jul-2019

 -----------------------------------------
 # sp b3lyp/6-311g** Force nosymm scf=(qc)
 -----------------------------------------

 -------------------
 Title Card Required
 -------------------
 Symbolic Z-matrix:
 Charge =  0 Multiplicity = 2

                          Input orientation:
 ---------------------------------------------------------------------
 Center     Atomic      Atomic             Coordinates (Angstroms)
 Number     Number       Type             X           Y           Z
 ---------------------------------------------------------------------
      1          1           0        0.000000    0.000000    0.000000
      2          1           0       -1.750000    0.000000    0.000000
      3          9           0        3.900000    0.000000    0.000000
 ---------------------------------------------------------------------

 SCF Done:  E(UB3LYP) =  -100.790106155     a.u. after   48 cycles

 Alpha  occ. eigenvalues --  -24.76181  -1.22085  -0.55290  -0.46461  -0.46446
 Alpha  occ. eigenvalues --   -0.32990
 Alpha virt. eigenvalues --   -0.10637   0.25858   0.31275   0.86073   0.90950
 Alpha virt. eigenvalues --    0.91335   1.00909   1.08729   1.24348   1.24349
 Alpha virt. eigenvalues --    1.37970   1.37973   1.64464   2.15887   2.40351

  Beta  occ. eigenvalues --  -24.73027  -1.13013  -0.43301  -0.43284  -0.32978
  Beta virt. eigenvalues --   -0.25941  -0.10671   0.25847   0.31295   0.92452
  Beta virt. eigenvalues --    0.92805   0.95541   1.05048   1.08722   1.24347
  Beta virt. eigenvalues --    1.24350   1.37957   1.37958   1.64472   2.16011

 Mulliken charges and spin densities:
               1          2
     1  H    0.000766  -0.671357
     2  H   -0.001556   0.671359
     3  F    0.000791   0.999998
 Sum of Mulliken charges =   0.00000   1.00000

 Dipole moment (field-independent basis, Debye):
    X=              0.0222    Y=             -0.0000    Z=             -0.0000  Tot=              0.0222
 Quadrupole moment (field-independent basis, Debye-Ang):
   XX=             -6.6825   YY=             -7.3322   ZZ=             -7.3318
   XY=             -0.0000   XZ=             -0.0000   YZ=              0.4323

  Exact polarizability:      23.691      -0.000       2.249      -0.000       0.233       2.249
 Approx polarizability:      35.686      -0.000       2.261      -0.000       0.291       2.261

 ******    2 imaginary frequencies (negative Signs) ******

                      1                      2                      3
                      A                      A                      A
 Frequencies --  -1819.0418               -52.7484               839.8343
 Red. masses --      1.0078                 1.1085                 1.0111
 Frc consts  --      1.9648                 0.0018                 0.4202
 IR Inten    --      0.0059                 0.0389                 0.0013

                      4
                      A
 Frequencies --    839.8808
 Red. masses --      1.0111
 Frc consts  --      0.4202
 IR Inten    --      0.0012

 - Thermochemistry -
 -------------------
 Temperature   298.150 Kelvin.  Pressure   1.00000 Atm.
 Atom     1 has atomic number  1 and mass   1.00783

 Molecular mass:    21.01405 amu.
 Principal axes and moments of inertia in atomic units:
                           1         2         3
     Eigenvalues --     0.00000 153.88809 153.88809
           X            1.00000  -0.00000   0.00000
           Y            0.00000   1.00000   0.00000
           Z            0.00000   0.00000   1.00000
 This molecule is a prolate symmetric top.
 Rotational symmetry number  1.
 Rotational temperature (Kelvin)      0.56284
 Rotational constant (GHZ):          11.727621
    2 imaginary frequencies ignored.
 Zero-point vibrational energy      10046.9 (Joules/Mol)
                                    2.40127 (Kcal/Mol)
 Vibrational temperatures:   1208.33  1208.40
          (Kelvin)

 Zero-point correction=                           0.003827 (Hartree/Particle)
 Thermal correction to Energy=                    0.006322
 Thermal correction to Enthalpy=                  0.007267
 Thermal correction to Gibbs Free Energy=        -0.017085
 Sum of electronic and zero-point Energies=           -100.786279
 Sum of electronic and thermal Energies=              -100.783784
 Sum of electronic and thermal Enthalpies=            -100.782840
 Sum of electronic and thermal Free Energies=         -100.807191

                     E (Thermal)             CV                S
                      KCal/Mol        Cal/Mol-Kelvin    Cal/Mol-Kelvin
 Total                    3.967              6.143             51.252
 Electronic               0.000              0.000              1.377
 Translational            0.889              2.981             35.068
 Rotational               0.592              1.987             14.452
 Vibrational              2.486              1.175              0.354

 Normal termination of Gaussian 16 at Sat Aug 23 01:20:07 2025.
