 Gaussian 16, Revision C.01,
 Gaussian 16:  ES64L-G16RevC.01  3-Jul-2019

 -----------------------------------------
 # sp b3lyp/6-311g** Force nosymm scf=(qc)
 -----------------------------------------

 -------------------
 Title Card Required
 -------------------
 Symbolic Z-matrix:
 Charge =  0 Multiplicity = 2

                          Input orientation:
 ---------------------------------------------------------------------
 Center     Atomic      Atomic             Coordinates (Angstroms)
 Number     Number       Type             X           Y           Z
 ---------------------------------------------------------------------
      1          1           0        0.000000    0.000000    0.000000
      2          1           0       -1.500000    0.000000    0.000000
      3          9           0        1.750000    0.000000    0.000000
 ---------------------------------------------------------------------

 SCF Done:  E(UB3LYP) =  -100.849886581     a.u. after   11 cycles

 Alpha  occ. eigenvalues --  -24.67423  -1.13903  -0.47615  -0.39173  -0.39173
 Alpha  occ. eigenvalues --   -0.38765
 Alpha virt. eigenvalues --   -0.09395   0.21628   0.30111   0.88687   0.93817
 Alpha virt. eigenvalues --    0.93817   1.03260   1.15749   1.15749   1.38229
 Alpha virt. eigenvalues --    1.39378   1.39378   1.86806   2.19626   2.43215

  Beta  occ. eigenvalues --  -24.65259  -1.07920  -0.39170  -0.37056  -0.37056
  Beta virt. eigenvalues --   -0.22744  -0.06967   0.24198   0.30323   0.92523
  Beta virt. eigenvalues --    0.94293   0.94293   1.07231   1.19601   1.19601
  Beta virt. eigenvalues --    1.40292   1.40292   1.43277   1.89487   2.20729

 Mulliken charges and spin densities:
               1          2
     1  H    0.153430  -0.326101
     2  H    0.070909   0.649873
     3  F   -0.224339   0.676228
 Sum of Mulliken charges =  -0.00000   1.00000

 Dipole moment (field-independent basis, Debye):
    X=             -2.4309    Y=              0.0000    Z=              0.0000  Tot=              2.4309
 Quadrupole moment (field-independent basis, Debye-Ang):
   XX=             -8.0042   YY=             -7.4027   ZZ=             -7.4027
   XY=              0.0000   XZ=              0.0000   YZ=             -0.0000

  Exact polarizability:      45.276       0.000       2.193       0.000       0.000       2.193
 Approx polarizability:      68.747       0.000       2.131       0.000      -0.000       2.131

 ******    2 imaginary frequencies (negative Signs) ******

                      1                      2                      3
                      A                      A                      A
 Frequencies --  -2373.5552              -531.4639              1055.1575
 Red. masses --      1.0174                 1.0972                 1.0162
 Frc consts  --      3.3770                 0.1826                 0.6666
 IR Inten    --    694.8161                 1.2750                 8.6655

                      4
                      A
 Frequencies --   1055.1575
 Red. masses --      1.0162
 Frc consts  --      0.6666
 IR Inten    --      8.6655

 - Thermochemistry -
 -------------------
 Temperature   298.150 Kelvin.  Pressure   1.00000 Atm.
 Atom     1 has atomic number  1 and mass   1.00783

 Molecular mass:    21.01405 amu.
 Principal axes and moments of inertia in atomic units:
                           1         2         3
     Eigenvalues --     0.00000  44.72132  44.72132
           X            1.00000  -0.00000   0.00000
           Y            0.00000   1.00000   0.00000
           Z            0.00000   0.00000   1.00000
 This molecule is a prolate symmetric top.
 Rotational symmetry number  1.
 Rotational temperature (Kelvin)      1.93675
 Rotational constant (GHZ):          40.355277
    2 imaginary frequencies ignored.
 Zero-point vibrational energy      12622.5 (Joules/Mol)
                                    3.01685 (Kcal/Mol)
 Vibrational temperatures:   1518.14  1518.14
          (Kelvin)

 Zero-point correction=                           0.004808 (Hartree/Particle)
 Thermal correction to Energy=                    0.007228
 Thermal correction to Enthalpy=                  0.008172
 Thermal correction to Gibbs Free Energy=        -0.014915
 Sum of electronic and zero-point Energies=           -100.845079
 Sum of electronic and thermal Energies=              -100.842659
 Sum of electronic and thermal Enthalpies=            -100.841715
 Sum of electronic and thermal Free Energies=         -100.864802

                     E (Thermal)             CV                S
                      KCal/Mol        Cal/Mol-Kelvin    Cal/Mol-Kelvin
 Total                    4.535              5.609             48.591
 Electronic               0.000              0.000              1.377
 Translational            0.889              2.981             35.068
 Rotational               0.592              1.987             11.996
 Vibrational              3.054              0.641              0.150

 Normal termination of Gaussian 16 at Fri Aug 22 16:40:01 2025.
