 Gaussian 16, Revision C.01,
 Gaussian 16:  ES64L-G16RevC.01  3-Jul-2019

 -----------------------------------------
 # sp b3lyp/6-311g** Force nosymm scf=(qc)
 -----------------------------------------

 -------------------
 Title Card Required
 -------------------
 Symbolic Z-matrix:
 Charge =  0 Multiplicity = 2

                          Input orientation:
 ---------------------------------------------------------------------
 Center     Atomic      Atomic             Coordinates (Angstroms)
 Number     Number       Type             X           Y           Z
 ---------------------------------------------------------------------
      1          1           0        0.000000    0.000000    0.000000
      2          1           0       -2.250000    0.000000    0.000000
      3          9           0        2.100000    0.000000    0.000000
 ---------------------------------------------------------------------

 SCF Done:  E(UB3LYP) =  -100.788188308     a.u. after   17 cycles

 Alpha  occ. eigenvalues --  -24.68897  -1.15215  -0.47940  -0.40303  -0.40303
 Alpha  occ. eigenvalues --   -0.35294
 Alpha virt. eigenvalues --   -0.13590   0.24311   0.31430   0.88920   0.94836
 Alpha virt. eigenvalues --    0.94836   1.06072   1.22487   1.22487   1.27316
 Alpha virt. eigenvalues --    1.34845   1.34845   1.54679   2.12179   2.29766

  Beta  occ. eigenvalues --  -24.66382  -1.08149  -0.37817  -0.37817  -0.37008
  Beta virt. eigenvalues --   -0.21554  -0.10897   0.25834   0.33350   0.92140
  Beta virt. eigenvalues --    0.95761   0.95761   1.08839   1.22294   1.22294
  Beta virt. eigenvalues --    1.38945   1.38945   1.41998   1.48092   2.12325

 Mulliken charges and spin densities:
               1          2
     1  H    0.137349  -0.732172
     2  H    0.027622   0.940932
     3  F   -0.164971   0.791239
 Sum of Mulliken charges =  -0.00000   1.00000

 Dipole moment (field-independent basis, Debye):
    X=             -2.0255    Y=             -0.0000    Z=             -0.0000  Tot=              2.0255
 Quadrupole moment (field-independent basis, Debye-Ang):
   XX=             -9.0235   YY=             -7.5618   ZZ=             -7.5618
   XY=              0.0000   XZ=              0.0000   YZ=             -0.0000

  Exact polarizability:      45.517       0.000       2.042       0.000      -0.000       2.042
 Approx polarizability:      52.136      -0.000       1.942      -0.000       0.000       1.942

 ******    2 imaginary frequencies (negative Signs) ******

                      1                      2                      3
                      A                      A                      A
 Frequencies --  -1228.5294              -484.6453               510.0590
 Red. masses --      1.0261                 1.0872                 1.0188
 Frc consts  --      0.9124                 0.1505                 0.1562
 IR Inten    --     77.4591                33.0424                13.9797

                      4
                      A
 Frequencies --    510.0590
 Red. masses --      1.0188
 Frc consts  --      0.1562
 IR Inten    --     13.9797

 - Thermochemistry -
 -------------------
 Temperature   298.150 Kelvin.  Pressure   1.00000 Atm.
 Atom     1 has atomic number  1 and mass   1.00783

 Molecular mass:    21.01405 amu.
 Principal axes and moments of inertia in atomic units:
                           1         2         3
     Eigenvalues --     0.00000  76.79299  76.79299
           X            1.00000  -0.00000   0.00000
           Y            0.00000   1.00000   0.00000
           Z            0.00000   0.00000   1.00000
 This molecule is a prolate symmetric top.
 Rotational symmetry number  1.
 Rotational temperature (Kelvin)      1.12789
 Rotational constant (GHZ):          23.501380
    2 imaginary frequencies ignored.
 Zero-point vibrational energy       6101.7 (Joules/Mol)
                                    1.45833 (Kcal/Mol)
 Warning -- explicit consideration of   2 degrees of freedom as
           vibrations may cause significant error
 Vibrational temperatures:    733.86   733.86
          (Kelvin)

 Zero-point correction=                           0.002324 (Hartree/Particle)
 Thermal correction to Energy=                    0.005118
 Thermal correction to Enthalpy=                  0.006062
 Thermal correction to Gibbs Free Energy=        -0.018066
 Sum of electronic and zero-point Energies=           -100.785864
 Sum of electronic and thermal Energies=              -100.783070
 Sum of electronic and thermal Enthalpies=            -100.782126
 Sum of electronic and thermal Free Energies=         -100.806255

                     E (Thermal)             CV                S
                      KCal/Mol        Cal/Mol-Kelvin    Cal/Mol-Kelvin
 Total                    3.212              7.423             50.783
 Electronic               0.000              0.000              1.377
 Translational            0.889              2.981             35.068
 Rotational               0.592              1.987             13.070
 Vibrational              1.730              2.455              1.267
 Vibration     1          0.865              1.228              0.633
 Vibration     2          0.865              1.228              0.633

 Normal termination of Gaussian 16 at Fri Aug 22 17:04:03 2025.
