 Gaussian 16, Revision C.01,
 Gaussian 16:  ES64L-G16RevC.01  3-Jul-2019

 -----------------------------------------
 # sp b3lyp/6-311g** Force nosymm scf=(qc)
 -----------------------------------------

 -------------------
 Title Card Required
 -------------------
 Symbolic Z-matrix:
 Charge =  0 Multiplicity = 2

                          Input orientation:
 ---------------------------------------------------------------------
 Center     Atomic      Atomic             Coordinates (Angstroms)
 Number     Number       Type             X           Y           Z
 ---------------------------------------------------------------------
      1          1           0        0.000000    0.000000    0.000000
      2          1           0       -3.800000    0.000000    0.000000
      3          9           0        1.900000    0.000000    0.000000
 ---------------------------------------------------------------------

 SCF Done:  E(UB3LYP) =  -100.781388028     a.u. after   12 cycles

 Alpha  occ. eigenvalues --  -24.64125  -1.08436  -0.39246  -0.35757  -0.35757
 Alpha  occ. eigenvalues --   -0.33807
 Alpha virt. eigenvalues --   -0.21930   0.19813   0.26972   0.90513   0.96436
 Alpha virt. eigenvalues --    0.96436   1.08344   1.23665   1.23693   1.23693
 Alpha virt. eigenvalues --    1.24523   1.24523   1.59900   2.11589   2.16073

  Beta  occ. eigenvalues --  -24.64128  -1.08445  -0.39243  -0.35760  -0.35760
  Beta virt. eigenvalues --   -0.21950  -0.06661   0.22434   0.37956   0.90538
  Beta virt. eigenvalues --    0.96438   0.96438   1.08350   1.24569   1.24569
  Beta virt. eigenvalues --    1.45780   1.46159   1.46159   1.59943   2.14023

 Mulliken charges and spin densities:
               1          2
     1  H    0.302322   0.002551
     2  H    0.001595   0.998339
     3  F   -0.303917  -0.000890
 Sum of Mulliken charges =   0.00000   1.00000

 Dipole moment (field-independent basis, Debye):
    X=             -2.9223    Y=             -0.0000    Z=             -0.0000  Tot=              2.9223
 Quadrupole moment (field-independent basis, Debye-Ang):
   XX=            -11.4725   YY=             -7.4948   ZZ=             -7.4948
   XY=             -0.0000   XZ=             -0.0000   YZ=             -0.0000

  Exact polarizability:      24.840      -0.000       2.036      -0.000      -0.000       2.036
 Approx polarizability:      73.197      -0.000       1.942      -0.000      -0.000       1.942

 ******    2 imaginary frequencies (negative Signs) ******

                      1                      2                      3
                      A                      A                      A
 Frequencies --  -1122.8493               -73.5175               736.7906
 Red. masses --      1.0577                 1.0539                 1.0281
 Frc consts  --      0.7857                 0.0034                 0.3288
 IR Inten    --     30.8586                 0.2784                89.9916

                      4
                      A
 Frequencies --    736.7906
 Red. masses --      1.0281
 Frc consts  --      0.3288
 IR Inten    --     89.9916

 - Thermochemistry -
 -------------------
 Temperature   298.150 Kelvin.  Pressure   1.00000 Atm.
 Atom     1 has atomic number  1 and mass   1.00783

 Molecular mass:    21.01405 amu.
 Principal axes and moments of inertia in atomic units:
                           1         2         3
     Eigenvalues --     0.00000 119.95443 119.95443
           X            1.00000  -0.00000   0.00000
           Y            0.00000   1.00000   0.00000
           Z            0.00000   0.00000   1.00000
 This molecule is a prolate symmetric top.
 Rotational symmetry number  1.
 Rotational temperature (Kelvin)      0.72206
 Rotational constant (GHZ):          15.045223
    2 imaginary frequencies ignored.
 Zero-point vibrational energy       8814.0 (Joules/Mol)
                                    2.10659 (Kcal/Mol)
 Vibrational temperatures:   1060.08  1060.08
          (Kelvin)

 Zero-point correction=                           0.003357 (Hartree/Particle)
 Thermal correction to Energy=                    0.005915
 Thermal correction to Enthalpy=                  0.006859
 Thermal correction to Gibbs Free Energy=        -0.017341
 Sum of electronic and zero-point Energies=           -100.778031
 Sum of electronic and thermal Energies=              -100.775473
 Sum of electronic and thermal Enthalpies=            -100.774529
 Sum of electronic and thermal Free Energies=         -100.798729

                     E (Thermal)             CV                S
                      KCal/Mol        Cal/Mol-Kelvin    Cal/Mol-Kelvin
 Total                    3.712              6.489             50.933
 Electronic               0.000              0.000              1.377
 Translational            0.889              2.981             35.068
 Rotational               0.592              1.987             13.957
 Vibrational              2.230              1.521              0.531

 Normal termination of Gaussian 16 at Fri Aug 22 16:51:32 2025.
