 Gaussian 16, Revision C.01,
 Gaussian 16:  ES64L-G16RevC.01  3-Jul-2019

 -----------------------------------------
 # sp b3lyp/6-311g** Force nosymm scf=(qc)
 -----------------------------------------

 -------------------
 Title Card Required
 -------------------
 Symbolic Z-matrix:
 Charge =  0 Multiplicity = 2

                          Input orientation:
 ---------------------------------------------------------------------
 Center     Atomic      Atomic             Coordinates (Angstroms)
 Number     Number       Type             X           Y           Z
 ---------------------------------------------------------------------
      1          1           0        0.000000    0.000000    0.000000
      2          1           0       -1.300000    0.000000    0.000000
      3          9           0        2.350000    0.000000    0.000000
 ---------------------------------------------------------------------

 SCF Done:  E(UB3LYP) =  -100.856609561     a.u. after   15 cycles

 Alpha  occ. eigenvalues --  -24.73897  -1.19993  -0.53179  -0.44553  -0.44553
 Alpha  occ. eigenvalues --   -0.37269
 Alpha virt. eigenvalues --   -0.07064   0.22806   0.33207   0.88474   0.92130
 Alpha virt. eigenvalues --    0.92130   1.06513   1.13358   1.13358   1.21714
 Alpha virt. eigenvalues --    1.47544   1.47544   1.96797   2.26744   2.52384

  Beta  occ. eigenvalues --  -24.70929  -1.11517  -0.41590  -0.41590  -0.36865
  Beta virt. eigenvalues --   -0.25348  -0.06141   0.23421   0.33665   0.93531
  Beta virt. eigenvalues --    0.93531   0.95811   1.09267   1.13988   1.13988
  Beta virt. eigenvalues --    1.24539   1.48056   1.48056   1.97529   2.27574

 Mulliken charges and spin densities:
               1          2
     1  H    0.012580  -0.103587
     2  H    0.037250   0.166882
     3  F   -0.049830   0.936705
 Sum of Mulliken charges =   0.00000   1.00000

 Dipole moment (field-independent basis, Debye):
    X=             -0.8161    Y=              0.0000    Z=              0.0000  Tot=              0.8161
 Quadrupole moment (field-independent basis, Debye-Ang):
   XX=             -6.5209   YY=             -7.5309   ZZ=             -7.5309
   XY=              0.0000   XZ=              0.0000   YZ=             -0.0000

  Exact polarizability:      46.313      -0.000       2.110       0.000       0.000       2.110
 Approx polarizability:      63.564      -0.000       2.103      -0.000       0.000       2.103

 ******    2 imaginary frequencies (negative Signs) ******

                      1                      2                      3
                      A                      A                      A
 Frequencies --  -1384.8495              -253.1256              1342.0300
 Red. masses --      1.0105                 1.1053                 1.0124
 Frc consts  --      1.1418                 0.0417                 1.0743
 IR Inten    --    658.7060                10.5591                 0.0080

                      4
                      A
 Frequencies --   1342.0300
 Red. masses --      1.0124
 Frc consts  --      1.0743
 IR Inten    --      0.0080

 - Thermochemistry -
 -------------------
 Temperature   298.150 Kelvin.  Pressure   1.00000 Atm.
 Atom     1 has atomic number  1 and mass   1.00783

 Molecular mass:    21.01405 amu.
 Principal axes and moments of inertia in atomic units:
                           1         2         3
     Eigenvalues --     0.00000  61.60947  61.60947
           X            1.00000  -0.00000   0.00000
           Y            0.00000   1.00000   0.00000
           Z            0.00000   0.00000   1.00000
 This molecule is a prolate symmetric top.
 Rotational symmetry number  1.
 Rotational temperature (Kelvin)      1.40585
 Rotational constant (GHZ):          29.293245
    2 imaginary frequencies ignored.
 Zero-point vibrational energy      16054.2 (Joules/Mol)
                                    3.83706 (Kcal/Mol)
 Vibrational temperatures:   1930.88  1930.88
          (Kelvin)

 Zero-point correction=                           0.006115 (Hartree/Particle)
 Thermal correction to Energy=                    0.008494
 Thermal correction to Enthalpy=                  0.009438
 Thermal correction to Gibbs Free Energy=        -0.013902
 Sum of electronic and zero-point Energies=           -100.850495
 Sum of electronic and thermal Energies=              -100.848116
 Sum of electronic and thermal Enthalpies=            -100.847171
 Sum of electronic and thermal Free Energies=         -100.870512

                     E (Thermal)             CV                S
                      KCal/Mol        Cal/Mol-Kelvin    Cal/Mol-Kelvin
 Total                    5.330              5.225             49.124
 Electronic               0.000              0.000              1.377
 Translational            0.889              2.981             35.068
 Rotational               0.592              1.987             12.633
 Vibrational              3.849              0.257              0.046

 Normal termination of Gaussian 16 at Fri Aug 22 17:25:37 2025.
