 Gaussian 16, Revision C.01,
 Gaussian 16:  ES64L-G16RevC.01  3-Jul-2019

 -----------------------------------------
 # sp b3lyp/6-311g** Force nosymm scf=(qc)
 -----------------------------------------

 -------------------
 Title Card Required
 -------------------
 Symbolic Z-matrix:
 Charge =  0 Multiplicity = 2

                          Input orientation:
 ---------------------------------------------------------------------
 Center     Atomic      Atomic             Coordinates (Angstroms)
 Number     Number       Type             X           Y           Z
 ---------------------------------------------------------------------
      1          1           0        0.000000    0.000000    0.000000
      2          1           0       -3.500000    0.000000    0.000000
      3          9           0        2.550000    0.000000    0.000000
 ---------------------------------------------------------------------

 SCF Done:  E(UB3LYP) =  -100.766482978     a.u. after   20 cycles

 Alpha  occ. eigenvalues --  -24.72023  -1.18223  -0.51129  -0.42949  -0.42949
 Alpha  occ. eigenvalues --   -0.32858
 Alpha virt. eigenvalues --   -0.10019   0.23558   0.35387   0.89800   0.93463
 Alpha virt. eigenvalues --    0.93463   1.06165   1.24651   1.24651   1.24819
 Alpha virt. eigenvalues --    1.41025   1.41025   1.44332   2.14520   2.37018

  Beta  occ. eigenvalues --  -24.69156  -1.10054  -0.40089  -0.40089  -0.35159
  Beta virt. eigenvalues --   -0.23524  -0.06729   0.23950   0.37878   0.94845
  Beta virt. eigenvalues --    0.94845   0.96593   1.08668   1.22250   1.22250
  Beta virt. eigenvalues --    1.28362   1.45719   1.45990   1.45990   2.13119

 Mulliken charges and spin densities:
               1          2
     1  H    0.082561  -0.904272
     2  H    0.000839   0.997928
     3  F   -0.083400   0.906344
 Sum of Mulliken charges =  -0.00000   1.00000

 Dipole moment (field-independent basis, Debye):
    X=             -1.0978    Y=             -0.0000    Z=              0.0000  Tot=              1.0978
 Quadrupole moment (field-independent basis, Debye-Ang):
   XX=             -9.2075   YY=             -7.5767   ZZ=             -7.5767
   XY=             -0.0000   XZ=              0.0000   YZ=              0.0000

  Exact polarizability:      31.298      -0.000       2.025       0.000       0.000       2.025
 Approx polarizability:      38.734      -0.000       1.920       0.000      -0.000       1.920

 ******    2 imaginary frequencies (negative Signs) ******

                      1                      2                      3
                      A                      A                      A
 Frequencies --   -588.5404              -120.6996               227.3991
 Red. masses --      1.0537                 1.0579                 1.0222
 Frc consts  --      0.2150                 0.0091                 0.0311
 IR Inten    --     75.8310                 0.3150                 6.5028

                      4
                      A
 Frequencies --    227.3991
 Red. masses --      1.0222
 Frc consts  --      0.0311
 IR Inten    --      6.5028

 - Thermochemistry -
 -------------------
 Temperature   298.150 Kelvin.  Pressure   1.00000 Atm.
 Atom     1 has atomic number  1 and mass   1.00783

 Molecular mass:    21.01405 amu.
 Principal axes and moments of inertia in atomic units:
                           1         2         3
     Eigenvalues --     0.00000 142.36926 142.36926
           X            1.00000  -0.00000   0.00000
           Y            0.00000   1.00000   0.00000
           Z            0.00000   0.00000   1.00000
 This molecule is a prolate symmetric top.
 Rotational symmetry number  1.
 Rotational temperature (Kelvin)      0.60838
 Rotational constant (GHZ):          12.676481
    2 imaginary frequencies ignored.
 Zero-point vibrational energy       2720.3 (Joules/Mol)
                                    0.65017 (Kcal/Mol)
 Warning -- explicit consideration of   2 degrees of freedom as
           vibrations may cause significant error
 Vibrational temperatures:    327.18   327.18
          (Kelvin)

 Zero-point correction=                           0.001036 (Hartree/Particle)
 Thermal correction to Energy=                    0.004435
 Thermal correction to Enthalpy=                  0.005379
 Thermal correction to Gibbs Free Energy=        -0.020535
 Sum of electronic and zero-point Energies=           -100.765447
 Sum of electronic and thermal Energies=              -100.762048
 Sum of electronic and thermal Enthalpies=            -100.761104
 Sum of electronic and thermal Free Energies=         -100.787018

                     E (Thermal)             CV                S
                      KCal/Mol        Cal/Mol-Kelvin    Cal/Mol-Kelvin
 Total                    2.783              8.567             54.541
 Electronic               0.000              0.000              1.377
 Translational            0.889              2.981             35.068
 Rotational               0.592              1.987             14.297
 Vibrational              1.302              3.598              3.799
 Vibration     1          0.651              1.799              1.899
 Vibration     2          0.651              1.799              1.899

 Normal termination of Gaussian 16 at Fri Aug 22 17:55:18 2025.
