 Gaussian 16, Revision C.01,
 Gaussian 16:  ES64L-G16RevC.01  3-Jul-2019

 -----------------------------------------
 # sp b3lyp/6-311g** Force nosymm scf=(qc)
 -----------------------------------------

 -------------------
 Title Card Required
 -------------------
 Symbolic Z-matrix:
 Charge =  0 Multiplicity = 2

                          Input orientation:
 ---------------------------------------------------------------------
 Center     Atomic      Atomic             Coordinates (Angstroms)
 Number     Number       Type             X           Y           Z
 ---------------------------------------------------------------------
      1          1           0        0.000000    0.000000    0.000000
      2          1           0       -2.750000    0.000000    0.000000
      3          9           0        2.400000    0.000000    0.000000
 ---------------------------------------------------------------------

 SCF Done:  E(UB3LYP) =  -100.771660211     a.u. after   17 cycles

 Alpha  occ. eigenvalues --  -24.71127  -1.17372  -0.50217  -0.42193  -0.42193
 Alpha  occ. eigenvalues --   -0.33597
 Alpha virt. eigenvalues --   -0.11775   0.24333   0.33510   0.89603   0.93935
 Alpha virt. eigenvalues --    0.93935   1.06625   1.23983   1.23983   1.25773
 Alpha virt. eigenvalues --    1.38587   1.38587   1.45345   2.14985   2.33373

  Beta  occ. eigenvalues --  -24.68345  -1.09471  -0.39423  -0.39423  -0.35757
  Beta virt. eigenvalues --   -0.22956  -0.08717   0.25165   0.35740   0.95242
  Beta virt. eigenvalues --    0.95242   0.95378   1.08981   1.21939   1.21939
  Beta virt. eigenvalues --    1.33110   1.43218   1.43218   1.43973   2.13819

 Mulliken charges and spin densities:
               1          2
     1  H    0.098549  -0.863671
     2  H    0.006708   0.985258
     3  F   -0.105257   0.878413
 Sum of Mulliken charges =  -0.00000   1.00000

 Dipole moment (field-independent basis, Debye):
    X=             -1.3681    Y=             -0.0000    Z=             -0.0000  Tot=              1.3681
 Quadrupole moment (field-independent basis, Debye-Ang):
   XX=             -9.1854   YY=             -7.5819   ZZ=             -7.5819
   XY=             -0.0000   XZ=             -0.0000   YZ=              0.0000

  Exact polarizability:      37.127      -0.000       2.023      -0.000      -0.000       2.023
 Approx polarizability:      43.581      -0.000       1.920      -0.000       0.000       1.920

 ******    2 imaginary frequencies (negative Signs) ******

                      1                      2                      3
                      A                      A                      A
 Frequencies --   -761.4234              -285.2338               306.1008
 Red. masses --      1.0378                 1.0744                 1.0197
 Frc consts  --      0.3545                 0.0515                 0.0563
 IR Inten    --     76.6737                 8.9824                 8.5346

                      4
                      A
 Frequencies --    306.1008
 Red. masses --      1.0197
 Frc consts  --      0.0563
 IR Inten    --      8.5346

 - Thermochemistry -
 -------------------
 Temperature   298.150 Kelvin.  Pressure   1.00000 Atm.
 Atom     1 has atomic number  1 and mass   1.00783

 Molecular mass:    21.01405 amu.
 Principal axes and moments of inertia in atomic units:
                           1         2         3
     Eigenvalues --     0.00000 106.34597 106.34597
           X            1.00000  -0.00000   0.00000
           Y            0.00000   1.00000   0.00000
           Z            0.00000   0.00000   1.00000
 This molecule is a prolate symmetric top.
 Rotational symmetry number  1.
 Rotational temperature (Kelvin)      0.81445
 Rotational constant (GHZ):          16.970471
    2 imaginary frequencies ignored.
 Zero-point vibrational energy       3661.8 (Joules/Mol)
                                    0.87519 (Kcal/Mol)
 Warning -- explicit consideration of   2 degrees of freedom as
           vibrations may cause significant error
 Vibrational temperatures:    440.41   440.41
          (Kelvin)

 Zero-point correction=                           0.001395 (Hartree/Particle)
 Thermal correction to Energy=                    0.004580
 Thermal correction to Enthalpy=                  0.005525
 Thermal correction to Gibbs Free Energy=        -0.019624
 Sum of electronic and zero-point Energies=           -100.770266
 Sum of electronic and thermal Energies=              -100.767080
 Sum of electronic and thermal Enthalpies=            -100.766136
 Sum of electronic and thermal Free Energies=         -100.791284

                     E (Thermal)             CV                S
                      KCal/Mol        Cal/Mol-Kelvin    Cal/Mol-Kelvin
 Total                    2.874              8.292             52.929
 Electronic               0.000              0.000              1.377
 Translational            0.889              2.981             35.068
 Rotational               0.592              1.987             13.717
 Vibrational              1.393              3.324              2.767
 Vibration     1          0.696              1.662              1.383
 Vibration     2          0.696              1.662              1.383

 Normal termination of Gaussian 16 at Fri Aug 22 17:32:52 2025.
