 Gaussian 16, Revision C.01,
 Gaussian 16:  ES64L-G16RevC.01  3-Jul-2019

 -----------------------------------------
 # sp b3lyp/6-311g** Force nosymm scf=(qc)
 -----------------------------------------

 -------------------
 Title Card Required
 -------------------
 Symbolic Z-matrix:
 Charge =  0 Multiplicity = 2

                          Input orientation:
 ---------------------------------------------------------------------
 Center     Atomic      Atomic             Coordinates (Angstroms)
 Number     Number       Type             X           Y           Z
 ---------------------------------------------------------------------
      1          1           0        0.000000    0.000000    0.000000
      2          1           0       -3.000000    0.000000    0.000000
      3          9           0        1.050000    0.000000    0.000000
 ---------------------------------------------------------------------

 SCF Done:  E(UB3LYP) =  -100.958407896     a.u. after    6 cycles

 Alpha  occ. eigenvalues --  -24.64209  -1.14844  -0.50590  -0.38401  -0.38401
 Alpha  occ. eigenvalues --   -0.34267
 Alpha virt. eigenvalues --   -0.00637   0.24510   0.32344   0.93842   0.93842
 Alpha virt. eigenvalues --    0.99088   1.22857   1.23263   1.23263   1.31170
 Alpha virt. eigenvalues --    1.35567   1.35567   1.84962   2.14330   2.33348

  Beta  occ. eigenvalues --  -24.64202  -1.14825  -0.50564  -0.38394  -0.38394
  Beta virt. eigenvalues --   -0.07912   0.00678   0.31961   0.38208   0.93843
  Beta virt. eigenvalues --    0.93843   0.99096   1.29940   1.35557   1.35557
  Beta virt. eigenvalues --    1.47354   1.47354   1.48587   1.85110   2.33318

 Mulliken charges and spin densities:
               1          2
     1  H    0.329282   0.001151
     2  H    0.002947   0.996315
     3  F   -0.332229   0.002534
 Sum of Mulliken charges =   0.00000   1.00000

 Dipole moment (field-independent basis, Debye):
    X=             -2.1344    Y=             -0.0000    Z=              0.0000  Tot=              2.1344
 Quadrupole moment (field-independent basis, Debye-Ang):
   XX=             -8.2782   YY=             -7.0054   ZZ=             -7.0054
   XY=             -0.0000   XZ=              0.0000   YZ=              0.0000

  Exact polarizability:       8.213       0.000       2.391      -0.000      -0.000       2.391
 Approx polarizability:      10.040       0.000       2.361      -0.000      -0.000       2.361

 ******    1 imaginary frequencies (negative Signs) ******

                      1                      2                      3
                      A                      A                      A
 Frequencies --    -80.7002              1113.0245              1113.0245
 Red. masses --      1.0530                 1.0338                 1.0338
 Frc consts  --      0.0040                 0.7546                 0.7546
 IR Inten    --      0.3162               157.9004               157.9004

                      4
                      A
 Frequencies --   2447.9951
 Red. masses --      1.0585
 Frc consts  --      3.7375
 IR Inten    --     95.2893

 - Thermochemistry -
 -------------------
 Temperature   298.150 Kelvin.  Pressure   1.00000 Atm.
 Atom     1 has atomic number  1 and mass   1.00783

 Molecular mass:    21.01405 amu.
 Principal axes and moments of inertia in atomic units:
                           1         2         3
     Eigenvalues --     0.00000  58.51114  58.51114
           X            1.00000  -0.00000   0.00000
           Y            0.00000   1.00000   0.00000
           Z            0.00000   0.00000   1.00000
 This molecule is a prolate symmetric top.
 Rotational symmetry number  1.
 Rotational temperature (Kelvin)      1.48030
 Rotational constant (GHZ):          30.844404
    1 imaginary frequencies ignored.
 Zero-point vibrational energy      27957.0 (Joules/Mol)
                                    6.68188 (Kcal/Mol)
 Vibrational temperatures:   1601.39  1601.39  3522.12
          (Kelvin)

 Zero-point correction=                           0.010648 (Hartree/Particle)
 Thermal correction to Energy=                    0.013056
 Thermal correction to Enthalpy=                  0.014000
 Thermal correction to Gibbs Free Energy=        -0.009326
 Sum of electronic and zero-point Energies=           -100.947760
 Sum of electronic and thermal Energies=              -100.945352
 Sum of electronic and thermal Enthalpies=            -100.944408
 Sum of electronic and thermal Free Energies=         -100.967734

                     E (Thermal)             CV                S
                      KCal/Mol        Cal/Mol-Kelvin    Cal/Mol-Kelvin
 Total                    8.193              5.508             49.094
 Electronic               0.000              0.000              1.377
 Translational            0.889              2.981             35.068
 Rotational               0.592              1.987             12.530
 Vibrational              6.712              0.540              0.118

 Normal termination of Gaussian 16 at Fri Aug 22 16:03:36 2025.
