 Gaussian 16, Revision C.01,
 Gaussian 16:  ES64L-G16RevC.01  3-Jul-2019

 -----------------------------------------
 # sp b3lyp/6-311g** Force nosymm scf=(qc)
 -----------------------------------------

 -------------------
 Title Card Required
 -------------------
 Symbolic Z-matrix:
 Charge =  0 Multiplicity = 2

                          Input orientation:
 ---------------------------------------------------------------------
 Center     Atomic      Atomic             Coordinates (Angstroms)
 Number     Number       Type             X           Y           Z
 ---------------------------------------------------------------------
      1          1           0        0.000000    0.000000    0.000000
      2          1           0       -0.600000    0.000000    0.000000
      3          9           0        2.600000    0.000000    0.000000
 ---------------------------------------------------------------------

 SCF Done:  E(UB3LYP) =  -100.915265863     a.u. after  247 cycles

 Alpha  occ. eigenvalues --  -24.76790  -1.22567  -0.55748  -0.47632  -0.46895
 Alpha  occ. eigenvalues --   -0.45643
 Alpha virt. eigenvalues --    0.09488   0.19559   0.53213   0.85731   0.90597
 Alpha virt. eigenvalues --    0.93661   1.10510   1.10528   1.11915   1.61061
 Alpha virt. eigenvalues --    1.82964   1.93058   1.93078   2.39046   3.64516

  Beta  occ. eigenvalues --  -24.73626  -1.13474  -0.46618  -0.43723  -0.43481
  Beta virt. eigenvalues --   -0.26361   0.09582   0.19624   0.53323   0.92092
  Beta virt. eigenvalues --    0.95174   0.95582   1.10517   1.10528   1.15446
  Beta virt. eigenvalues --    1.61069   1.82977   1.93058   1.93076   2.39060

 Mulliken charges and spin densities:
               1          2
     1  H   -0.010398  -0.002371
     2  H   -0.004249   0.000156
     3  F    0.014647   1.002216
 Sum of Mulliken charges =   0.00000   1.00000

 Dipole moment (field-independent basis, Debye):
    X=              0.1313    Y=              0.0000    Z=              0.0000  Tot=              0.1313
 Quadrupole moment (field-independent basis, Debye-Ang):
   XX=             -5.9807   YY=             -5.8859   ZZ=             -6.7488
   XY=             -0.0000   XZ=             -0.0000   YZ=              0.0100

  Exact polarizability:       6.999      -0.000       2.342       0.000       0.005       1.896
 Approx polarizability:       7.488      -0.000       2.543       0.000       0.007       1.979

 ******    2 imaginary frequencies (negative Signs) ******

                      1                      2                      3
                      A                      A                      A
 Frequencies --  -2752.1410             -2748.6587               172.6521
 Red. masses --      1.0089                 1.0089                 1.1085
 Frc consts  --      4.5023                 4.4910                 0.0195
 IR Inten    --      0.0721                 0.0793                 0.3339

                      4
                      A
 Frequencies --   7042.5206
 Red. masses --      1.0078
 Frc consts  --     29.4504
 IR Inten    --      1.5984

 - Thermochemistry -
 -------------------
 Temperature   298.150 Kelvin.  Pressure   1.00000 Atm.
 Atom     1 has atomic number  1 and mass   1.00783

 Molecular mass:    21.01405 amu.
 Principal axes and moments of inertia in atomic units:
                           1         2         3
     Eigenvalues --     0.00000  55.37665  55.37665
           X            1.00000  -0.00000   0.00000
           Y            0.00000   1.00000   0.00000
           Z            0.00000   0.00000   1.00000
 This molecule is a prolate symmetric top.
 Rotational symmetry number  1.
 Rotational temperature (Kelvin)      1.56409
 Rotational constant (GHZ):          32.590293
    2 imaginary frequencies ignored.
 Zero-point vibrational energy      43156.3 (Joules/Mol)
                                   10.31461 (Kcal/Mol)
 Warning -- explicit consideration of   1 degrees of freedom as
           vibrations may cause significant error
 Vibrational temperatures:    248.41 10132.62
          (Kelvin)

 Zero-point correction=                           0.016437 (Hartree/Particle)
 Thermal correction to Energy=                    0.019403
 Thermal correction to Enthalpy=                  0.020347
 Thermal correction to Gibbs Free Energy=        -0.004014
 Sum of electronic and zero-point Energies=           -100.898828
 Sum of electronic and thermal Energies=              -100.895863
 Sum of electronic and thermal Enthalpies=            -100.894919
 Sum of electronic and thermal Free Energies=         -100.919280

                     E (Thermal)             CV                S
                      KCal/Mol        Cal/Mol-Kelvin    Cal/Mol-Kelvin
 Total                   12.175              6.844             51.272
 Electronic               0.000              0.000              1.377
 Translational            0.889              2.981             35.068
 Rotational               0.592              1.987             12.421
 Vibrational             10.694              1.876              2.406
 Vibration     1          0.626              1.876              2.406

 Normal termination of Gaussian 16 at Fri Aug 22 17:58:43 2025.
