 Gaussian 16, Revision C.01,
 Gaussian 16:  ES64L-G16RevC.01  3-Jul-2019

 -----------------------------------------
 # sp b3lyp/6-311g** Force nosymm scf=(qc)
 -----------------------------------------

 -------------------
 Title Card Required
 -------------------
 Symbolic Z-matrix:
 Charge =  0 Multiplicity = 2

                          Input orientation:
 ---------------------------------------------------------------------
 Center     Atomic      Atomic             Coordinates (Angstroms)
 Number     Number       Type             X           Y           Z
 ---------------------------------------------------------------------
      1          1           0        0.000000    0.000000    0.000000
      2          1           0       -2.950000    0.000000    0.000000
      3          9           0        1.550000    0.000000    0.000000
 ---------------------------------------------------------------------

 SCF Done:  E(UB3LYP) =  -100.844456427     a.u. after    7 cycles

 Alpha  occ. eigenvalues --  -24.64396  -1.09808  -0.42978  -0.36392  -0.36392
 Alpha  occ. eigenvalues --   -0.34758
 Alpha virt. eigenvalues --   -0.15003   0.21389   0.27611   0.93943   0.93943
 Alpha virt. eigenvalues --    1.02531   1.08292   1.22759   1.22759   1.23424
 Alpha virt. eigenvalues --    1.31374   1.31374   1.74246   2.13540   2.19498

  Beta  occ. eigenvalues --  -24.64037  -1.08853  -0.42152  -0.36050  -0.36050
  Beta virt. eigenvalues --   -0.16334  -0.07757   0.23672   0.36937   0.93791
  Beta virt. eigenvalues --    0.93791   1.03244   1.08224   1.29517   1.29517
  Beta virt. eigenvalues --    1.44174   1.44431   1.44431   1.73532   2.16689

 Mulliken charges and spin densities:
               1          2
     1  H    0.337211  -0.104940
     2  H    0.007722   0.991457
     3  F   -0.344933   0.113483
 Sum of Mulliken charges =  -0.00000   1.00000

 Dipole moment (field-independent basis, Debye):
    X=             -2.7287    Y=             -0.0000    Z=              0.0000  Tot=              2.7287
 Quadrupole moment (field-independent basis, Debye-Ang):
   XX=             -9.8070   YY=             -7.3517   ZZ=             -7.3517
   XY=             -0.0000   XZ=              0.0000   YZ=             -0.0000

  Exact polarizability:      20.548       0.000       2.170       0.000       0.000       2.170
 Approx polarizability:      35.022      -0.000       2.092       0.000       0.000       2.092

 ******    2 imaginary frequencies (negative Signs) ******

                      1                      2                      3
                      A                      A                      A
 Frequencies --  -1614.9709              -168.6467               961.7465
 Red. masses --      1.0546                 1.0570                 1.0273
 Frc consts  --      1.6205                 0.0177                 0.5598
 IR Inten    --      3.4242                 1.5352               104.6673

                      4
                      A
 Frequencies --    961.7465
 Red. masses --      1.0273
 Frc consts  --      0.5598
 IR Inten    --    104.6673

 - Thermochemistry -
 -------------------
 Temperature   298.150 Kelvin.  Pressure   1.00000 Atm.
 Atom     1 has atomic number  1 and mass   1.00783

 Molecular mass:    21.01405 amu.
 Principal axes and moments of inertia in atomic units:
                           1         2         3
     Eigenvalues --     0.00000  75.20870  75.20870
           X            1.00000  -0.00000   0.00000
           Y            0.00000   1.00000   0.00000
           Z            0.00000   0.00000   1.00000
 This molecule is a prolate symmetric top.
 Rotational symmetry number  1.
 Rotational temperature (Kelvin)      1.15165
 Rotational constant (GHZ):          23.996443
    2 imaginary frequencies ignored.
 Zero-point vibrational energy      11505.0 (Joules/Mol)
                                    2.74977 (Kcal/Mol)
 Vibrational temperatures:   1383.74  1383.74
          (Kelvin)

 Zero-point correction=                           0.004382 (Hartree/Particle)
 Thermal correction to Energy=                    0.006828
 Thermal correction to Enthalpy=                  0.007772
 Thermal correction to Gibbs Free Energy=        -0.015838
 Sum of electronic and zero-point Energies=           -100.840074
 Sum of electronic and thermal Energies=              -100.837629
 Sum of electronic and thermal Enthalpies=            -100.836684
 Sum of electronic and thermal Free Energies=         -100.860295

                     E (Thermal)             CV                S
                      KCal/Mol        Cal/Mol-Kelvin    Cal/Mol-Kelvin
 Total                    4.285              5.810             49.693
 Electronic               0.000              0.000              1.377
 Translational            0.889              2.981             35.068
 Rotational               0.592              1.987             13.029
 Vibrational              2.803              0.842              0.218

 Normal termination of Gaussian 16 at Fri Aug 22 16:29:04 2025.
