 Gaussian 16, Revision C.01,
 Gaussian 16:  ES64L-G16RevC.01  3-Jul-2019

 -----------------------------------------
 # sp b3lyp/6-311g** Force nosymm scf=(qc)
 -----------------------------------------

 -------------------
 Title Card Required
 -------------------
 Symbolic Z-matrix:
 Charge =  0 Multiplicity = 2

                          Input orientation:
 ---------------------------------------------------------------------
 Center     Atomic      Atomic             Coordinates (Angstroms)
 Number     Number       Type             X           Y           Z
 ---------------------------------------------------------------------
      1          1           0        0.000000    0.000000    0.000000
      2          1           0       -1.150000    0.000000    0.000000
      3          9           0        3.950000    0.000000    0.000000
 ---------------------------------------------------------------------

 SCF Done:  E(UB3LYP) =  -100.880569698     a.u. after  119 cycles

 Alpha  occ. eigenvalues --  -24.76207  -1.22108  -0.55311  -0.46486  -0.46468
 Alpha  occ. eigenvalues --   -0.36918
 Alpha virt. eigenvalues --   -0.03008   0.22487   0.35250   0.86056   0.90933
 Alpha virt. eigenvalues --    0.91378   1.00912   1.11780   1.11782   1.25797
 Alpha virt. eigenvalues --    1.57078   1.57080   2.11717   2.32876   2.54747

  Beta  occ. eigenvalues --  -24.73052  -1.13034  -0.43323  -0.43304  -0.36917
  Beta virt. eigenvalues --   -0.25962  -0.03007   0.22490   0.35262   0.92434
  Beta virt. eigenvalues --    0.92871   0.95522   1.05061   1.11780   1.11782
  Beta virt. eigenvalues --    1.25799   1.57078   1.57080   2.11719   2.32876

 Mulliken charges and spin densities:
               1          2
     1  H    0.000937  -0.000067
     2  H   -0.001881  -0.000036
     3  F    0.000943   1.000103
 Sum of Mulliken charges =   0.00000   1.00000

 Dipole moment (field-independent basis, Debye):
    X=              0.0207    Y=             -0.0000    Z=             -0.0000  Tot=              0.0207
 Quadrupole moment (field-independent basis, Debye-Ang):
   XX=             -6.3437   YY=             -6.7481   ZZ=             -7.2694
   XY=              0.0000   XZ=              0.0000   YZ=              0.3449

  Exact polarizability:      14.755       0.000       2.454       0.000       0.187       2.171
 Approx polarizability:      21.562       0.000       2.577       0.000       0.232       2.225

 ******    1 imaginary frequencies (negative Signs) ******

                      1                      2                      3
                      A                      A                      A
 Frequencies --    -60.9071               582.8553              1503.4873
 Red. masses --      1.1085                 1.0078                 1.0094
 Frc consts  --      0.0024                 0.2017                 1.3444
 IR Inten    --      0.0401                 0.0497                 0.0030

                      4
                      A
 Frequencies --   1505.3870
 Red. masses --      1.0094
 Frc consts  --      1.3478
 IR Inten    --      0.0010

 - Thermochemistry -
 -------------------
 Temperature   298.150 Kelvin.  Pressure   1.00000 Atm.
 Atom     1 has atomic number  1 and mass   1.00783

 Molecular mass:    21.01405 amu.
 Principal axes and moments of inertia in atomic units:
                           1         2         3
     Eigenvalues --     0.00000 135.62681 135.62681
           X            1.00000  -0.00000   0.00000
           Y            0.00000   1.00000   0.00000
           Z            0.00000   0.00000   1.00000
 This molecule is a prolate symmetric top.
 Rotational symmetry number  1.
 Rotational temperature (Kelvin)      0.63862
 Rotational constant (GHZ):          13.306670
    1 imaginary frequencies ignored.
 Zero-point vibrational energy      21483.3 (Joules/Mol)
                                    5.13464 (Kcal/Mol)
 Warning -- explicit consideration of   1 degrees of freedom as
           vibrations may cause significant error
 Vibrational temperatures:    838.60  2163.18  2165.92
          (Kelvin)

 Zero-point correction=                           0.008183 (Hartree/Particle)
 Thermal correction to Energy=                    0.010722
 Thermal correction to Enthalpy=                  0.011667
 Thermal correction to Gibbs Free Energy=        -0.012636
 Sum of electronic and zero-point Energies=           -100.872387
 Sum of electronic and thermal Energies=              -100.869847
 Sum of electronic and thermal Enthalpies=            -100.868903
 Sum of electronic and thermal Free Energies=         -100.893206

                     E (Thermal)             CV                S
                      KCal/Mol        Cal/Mol-Kelvin    Cal/Mol-Kelvin
 Total                    6.728              6.184             51.149
 Electronic               0.000              0.000              1.377
 Translational            0.889              2.981             35.068
 Rotational               0.592              1.987             14.201
 Vibrational              5.247              1.216              0.503
 Vibration     1          0.940              1.068              0.480

 Normal termination of Gaussian 16 at Sat Aug 23 01:31:34 2025.
