 Gaussian 16, Revision C.01,
 Gaussian 16:  ES64L-G16RevC.01  3-Jul-2019

 -----------------------------------------
 # sp b3lyp/6-311g** Force nosymm scf=(qc)
 -----------------------------------------

 -------------------
 Title Card Required
 -------------------
 Symbolic Z-matrix:
 Charge =  0 Multiplicity = 2

                          Input orientation:
 ---------------------------------------------------------------------
 Center     Atomic      Atomic             Coordinates (Angstroms)
 Number     Number       Type             X           Y           Z
 ---------------------------------------------------------------------
      1          1           0        0.000000    0.000000    0.000000
      2          1           0       -3.600000    0.000000    0.000000
      3          9           0        1.200000    0.000000    0.000000
 ---------------------------------------------------------------------

 SCF Done:  E(UB3LYP) =  -100.925562507     a.u. after    6 cycles

 Alpha  occ. eigenvalues --  -24.64352  -1.12271  -0.47745  -0.37529  -0.37529
 Alpha  occ. eigenvalues --   -0.33757
 Alpha virt. eigenvalues --   -0.05747   0.22190   0.29392   0.93174   0.93174
 Alpha virt. eigenvalues --    1.00804   1.23702   1.23756   1.23756   1.26202
 Alpha virt. eigenvalues --    1.34618   1.34618   1.72719   2.13736   2.28482

  Beta  occ. eigenvalues --  -24.64349  -1.12262  -0.47736  -0.37527  -0.37527
  Beta virt. eigenvalues --   -0.07406  -0.04335   0.26790   0.38788   0.93174
  Beta virt. eigenvalues --    0.93174   1.00813   1.26182   1.34611   1.34611
  Beta virt. eigenvalues --    1.47841   1.47841   1.48238   1.72745   2.28019

 Mulliken charges and spin densities:
               1          2
     1  H    0.353153   0.000056
     2  H    0.001006   0.998892
     3  F   -0.354158   0.001052
 Sum of Mulliken charges =   0.00000   1.00000

 Dipole moment (field-independent basis, Debye):
    X=             -2.2927    Y=             -0.0000    Z=             -0.0000  Tot=              2.2927
 Quadrupole moment (field-independent basis, Debye-Ang):
   XX=             -8.8804   YY=             -7.1278   ZZ=             -7.1278
   XY=             -0.0000   XZ=             -0.0000   YZ=             -0.0000

  Exact polarizability:       9.454      -0.000       2.323       0.000      -0.000       2.323
 Approx polarizability:      13.422      -0.000       2.277      -0.000       0.000       2.277

 ******    1 imaginary frequencies (negative Signs) ******

                      1                      2                      3
                      A                      A                      A
 Frequencies --    -53.3542              1004.7982              1206.1572
 Red. masses --      1.0528                 1.0588                 1.0346
 Frc consts  --      0.0018                 0.6298                 0.8868
 IR Inten    --      0.0866                66.8679               146.8623

                      4
                      A
 Frequencies --   1206.1572
 Red. masses --      1.0346
 Frc consts  --      0.8868
 IR Inten    --    146.8623

 - Thermochemistry -
 -------------------
 Temperature   298.150 Kelvin.  Pressure   1.00000 Atm.
 Atom     1 has atomic number  1 and mass   1.00783

 Molecular mass:    21.01405 amu.
 Principal axes and moments of inertia in atomic units:
                           1         2         3
     Eigenvalues --     0.00000  81.88988  81.88988
           X            1.00000  -0.00000   0.00000
           Y            0.00000   1.00000   0.00000
           Z            0.00000   0.00000   1.00000
 This molecule is a prolate symmetric top.
 Rotational symmetry number  1.
 Rotational temperature (Kelvin)      1.05769
 Rotational constant (GHZ):          22.038635
    1 imaginary frequencies ignored.
 Zero-point vibrational energy      20438.9 (Joules/Mol)
                                    4.88501 (Kcal/Mol)
 Vibrational temperatures:   1445.68  1735.39  1735.39
          (Kelvin)

 Zero-point correction=                           0.007785 (Hartree/Particle)
 Thermal correction to Energy=                    0.010214
 Thermal correction to Enthalpy=                  0.011158
 Thermal correction to Gibbs Free Energy=        -0.012511
 Sum of electronic and zero-point Energies=           -100.917778
 Sum of electronic and thermal Energies=              -100.915348
 Sum of electronic and thermal Enthalpies=            -100.914404
 Sum of electronic and thermal Free Energies=         -100.938073

                     E (Thermal)             CV                S
                      KCal/Mol        Cal/Mol-Kelvin    Cal/Mol-Kelvin
 Total                    6.409              5.742             49.816
 Electronic               0.000              0.000              1.377
 Translational            0.889              2.981             35.068
 Rotational               0.592              1.987             13.198
 Vibrational              4.928              0.774              0.172

 Normal termination of Gaussian 16 at Fri Aug 22 16:11:12 2025.
