 Gaussian 16, Revision C.01,
 Gaussian 16:  ES64L-G16RevC.01  3-Jul-2019

 -----------------------------------------
 # sp b3lyp/6-311g** Force nosymm scf=(qc)
 -----------------------------------------

 -------------------
 Title Card Required
 -------------------
 Symbolic Z-matrix:
 Charge =  0 Multiplicity = 2

                          Input orientation:
 ---------------------------------------------------------------------
 Center     Atomic      Atomic             Coordinates (Angstroms)
 Number     Number       Type             X           Y           Z
 ---------------------------------------------------------------------
      1          1           0        0.000000    0.000000    0.000000
      2          1           0       -1.750000    0.000000    0.000000
      3          9           0        3.750000    0.000000    0.000000
 ---------------------------------------------------------------------

 SCF Done:  E(UB3LYP) =  -100.790169893     a.u. after   50 cycles

 Alpha  occ. eigenvalues --  -24.76219  -1.22116  -0.55320  -0.46495  -0.46476
 Alpha  occ. eigenvalues --   -0.32979
 Alpha virt. eigenvalues --   -0.10621   0.25865   0.31245   0.86049   0.90926
 Alpha virt. eigenvalues --    0.91520   1.00992   1.08744   1.24359   1.24360
 Alpha virt. eigenvalues --    1.37980   1.37983   1.64515   2.15918   2.40504

  Beta  occ. eigenvalues --  -24.73065  -1.13044  -0.43337  -0.43313  -0.32965
  Beta virt. eigenvalues --   -0.25970  -0.10662   0.25844   0.31297   0.92428
  Beta virt. eigenvalues --    0.92976   0.95517   1.05116   1.08733   1.24357
  Beta virt. eigenvalues --    1.24360   1.37965   1.37966   1.64533   2.16113

 Mulliken charges and spin densities:
               1          2
     1  H    0.000654  -0.671196
     2  H   -0.001874   0.671204
     3  F    0.001220   0.999991
 Sum of Mulliken charges =   0.00000   1.00000

 Dipole moment (field-independent basis, Debye):
    X=              0.0292    Y=             -0.0000    Z=             -0.0000  Tot=              0.0292
 Quadrupole moment (field-independent basis, Debye-Ang):
   XX=             -6.6654   YY=             -7.3327   ZZ=             -7.3327
   XY=              0.0000   XZ=              0.0000   YZ=              0.4323

  Exact polarizability:      23.766       0.000       2.249       0.000       0.233       2.249
 Approx polarizability:      35.755       0.000       2.261       0.000       0.291       2.261

 ******    2 imaginary frequencies (negative Signs) ******

                      1                      2                      3
                      A                      A                      A
 Frequencies --  -1818.5499               -41.3532               839.1481
 Red. masses --      1.0078                 1.1085                 1.0113
 Frc consts  --      1.9637                 0.0011                 0.4196
 IR Inten    --      0.0107                 0.0652                 0.0015

                      4
                      A
 Frequencies --    839.1992
 Red. masses --      1.0113
 Frc consts  --      0.4196
 IR Inten    --      0.0014

 - Thermochemistry -
 -------------------
 Temperature   298.150 Kelvin.  Pressure   1.00000 Atm.
 Atom     1 has atomic number  1 and mass   1.00783

 Molecular mass:    21.01405 amu.
 Principal axes and moments of inertia in atomic units:
                           1         2         3
     Eigenvalues --     0.00000 144.71239 144.71239
           X            1.00000  -0.00000   0.00000
           Y            0.00000   1.00000   0.00000
           Z            0.00000   0.00000   1.00000
 This molecule is a prolate symmetric top.
 Rotational symmetry number  1.
 Rotational temperature (Kelvin)      0.59852
 Rotational constant (GHZ):          12.471228
    2 imaginary frequencies ignored.
 Zero-point vibrational energy      10038.7 (Joules/Mol)
                                    2.39932 (Kcal/Mol)
 Vibrational temperatures:   1207.35  1207.42
          (Kelvin)

 Zero-point correction=                           0.003824 (Hartree/Particle)
 Thermal correction to Energy=                    0.006320
 Thermal correction to Enthalpy=                  0.007264
 Thermal correction to Gibbs Free Energy=        -0.017030
 Sum of electronic and zero-point Energies=           -100.786346
 Sum of electronic and thermal Energies=              -100.783850
 Sum of electronic and thermal Enthalpies=            -100.782906
 Sum of electronic and thermal Free Energies=         -100.807200

                     E (Thermal)             CV                S
                      KCal/Mol        Cal/Mol-Kelvin    Cal/Mol-Kelvin
 Total                    3.966              6.145             51.130
 Electronic               0.000              0.000              1.377
 Translational            0.889              2.981             35.068
 Rotational               0.592              1.987             14.329
 Vibrational              2.484              1.177              0.355

 Normal termination of Gaussian 16 at Sat Aug 23 00:21:37 2025.
