 Gaussian 16, Revision C.01,
 Gaussian 16:  ES64L-G16RevC.01  3-Jul-2019

 -----------------------------------------
 # sp b3lyp/6-311g** Force nosymm scf=(qc)
 -----------------------------------------

 -------------------
 Title Card Required
 -------------------
 Symbolic Z-matrix:
 Charge =  0 Multiplicity = 2

                          Input orientation:
 ---------------------------------------------------------------------
 Center     Atomic      Atomic             Coordinates (Angstroms)
 Number     Number       Type             X           Y           Z
 ---------------------------------------------------------------------
      1          1           0        0.000000    0.000000    0.000000
      2          1           0       -0.750000    0.000000    0.000000
      3          9           0        1.950000    0.000000    0.000000
 ---------------------------------------------------------------------

 SCF Done:  E(UB3LYP) =  -100.935042363     a.u. after    6 cycles

 Alpha  occ. eigenvalues --  -24.74599  -1.20737  -0.54772  -0.45195  -0.45195
 Alpha  occ. eigenvalues --   -0.44492
 Alpha virt. eigenvalues --    0.07254   0.20344   0.44457   0.90560   0.90560
 Alpha virt. eigenvalues --    0.92475   1.07364   1.07364   1.15140   1.63671
 Alpha virt. eigenvalues --    1.81051   1.81051   1.95628   2.40112   3.28505

  Beta  occ. eigenvalues --  -24.71590  -1.12176  -0.45002  -0.42198  -0.42198
  Beta virt. eigenvalues --   -0.25471   0.08099   0.20946   0.45064   0.91901
  Beta virt. eigenvalues --    0.91901   1.00245   1.08128   1.08128   1.18590
  Beta virt. eigenvalues --    1.65183   1.81450   1.81450   1.96239   2.40942

 Mulliken charges and spin densities:
               1          2
     1  H    0.012542  -0.028541
     2  H    0.029235   0.086187
     3  F   -0.041777   0.942354
 Sum of Mulliken charges =   0.00000   1.00000

 Dipole moment (field-independent basis, Debye):
    X=             -0.4882    Y=             -0.0000    Z=              0.0000  Tot=              0.4882
 Quadrupole moment (field-independent basis, Debye-Ang):
   XX=             -6.1146   YY=             -6.9046   ZZ=             -6.9046
   XY=             -0.0000   XZ=              0.0000   YZ=              0.0000

  Exact polarizability:      18.390       0.000       2.104       0.000      -0.000       2.104
 Approx polarizability:      20.741       0.000       2.163      -0.000       0.000       2.163

 ******    3 imaginary frequencies (negative Signs) ******

                      1                      2                      3
                      A                      A                      A
 Frequencies --   -391.4737              -391.4737              -187.6234
 Red. masses --      1.0104                 1.0104                 1.1085
 Frc consts  --      0.0912                 0.0912                 0.0230
 IR Inten    --      0.1873                 0.1873                34.1601

                      4
                      A
 Frequencies --   4248.3049
 Red. masses --      1.0078
 Frc consts  --     10.7171
 IR Inten    --    298.5572

 - Thermochemistry -
 -------------------
 Temperature   298.150 Kelvin.  Pressure   1.00000 Atm.
 Atom     1 has atomic number  1 and mass   1.00783

 Molecular mass:    21.01405 amu.
 Principal axes and moments of inertia in atomic units:
                           1         2         3
     Eigenvalues --     0.00000  36.18981  36.18981
           X            1.00000  -0.00000   0.00000
           Y            0.00000   1.00000   0.00000
           Z            0.00000   0.00000   1.00000
 This molecule is a prolate symmetric top.
 Rotational symmetry number  1.
 Rotational temperature (Kelvin)      2.39332
 Rotational constant (GHZ):          49.868768
    3 imaginary frequencies ignored.
 Zero-point vibrational energy      25410.5 (Joules/Mol)
                                    6.07326 (Kcal/Mol)
 Vibrational temperatures:   6112.36
          (Kelvin)

 Zero-point correction=                           0.009678 (Hartree/Particle)
 Thermal correction to Energy=                    0.012039
 Thermal correction to Enthalpy=                  0.012983
 Thermal correction to Gibbs Free Energy=        -0.009833
 Sum of electronic and zero-point Energies=           -100.925364
 Sum of electronic and thermal Energies=              -100.923004
 Sum of electronic and thermal Enthalpies=            -100.922059
 Sum of electronic and thermal Free Energies=         -100.944876

                     E (Thermal)             CV                S
                      KCal/Mol        Cal/Mol-Kelvin    Cal/Mol-Kelvin
 Total                    7.554              4.968             48.021
 Electronic               0.000              0.000              1.377
 Translational            0.889              2.981             35.068
 Rotational               0.592              1.987             11.575
 Vibrational              6.073              0.000              0.000

 Normal termination of Gaussian 16 at Fri Aug 22 16:52:10 2025.
