 Gaussian 16, Revision C.01,
 Gaussian 16:  ES64L-G16RevC.01  3-Jul-2019

 -----------------------------------------
 # sp b3lyp/6-311g** Force nosymm scf=(qc)
 -----------------------------------------

 -------------------
 Title Card Required
 -------------------
 Symbolic Z-matrix:
 Charge =  0 Multiplicity = 2

                          Input orientation:
 ---------------------------------------------------------------------
 Center     Atomic      Atomic             Coordinates (Angstroms)
 Number     Number       Type             X           Y           Z
 ---------------------------------------------------------------------
      1          1           0        0.000000    0.000000    0.000000
      2          1           0       -1.000000    0.000000    0.000000
      3          9           0        0.900000    0.000000    0.000000
 ---------------------------------------------------------------------

 SCF Done:  E(UB3LYP) =  -100.952656452     a.u. after    7 cycles

 Alpha  occ. eigenvalues --  -24.64804  -1.20718  -0.59686  -0.40541  -0.40541
 Alpha  occ. eigenvalues --   -0.35761
 Alpha virt. eigenvalues --    0.14323   0.18702   0.50876   0.90111   0.90111
 Alpha virt. eigenvalues --    0.96365   1.08328   1.08328   1.43972   1.62124
 Alpha virt. eigenvalues --    1.62124   1.70084   2.12634   2.32809   3.18192

  Beta  occ. eigenvalues --  -24.64065  -1.18819  -0.55122  -0.39892  -0.39892
  Beta virt. eigenvalues --   -0.16871   0.15911   0.22345   0.56519   0.91733
  Beta virt. eigenvalues --    0.91733   0.97851   1.14469   1.14469   1.45926
  Beta virt. eigenvalues --    1.67436   1.67436   1.79799   2.13537   2.46139

 Mulliken charges and spin densities:
               1          2
     1  H    0.271116  -0.010278
     2  H    0.003616   0.836134
     3  F   -0.274732   0.174143
 Sum of Mulliken charges =   0.00000   1.00000

 Dipole moment (field-independent basis, Debye):
    X=             -1.7694    Y=              0.0000    Z=             -0.0000  Tot=              1.7694
 Quadrupole moment (field-independent basis, Debye-Ang):
   XX=             -7.5675   YY=             -6.6226   ZZ=             -6.6226
   XY=              0.0000   XZ=             -0.0000   YZ=              0.0000

  Exact polarizability:      12.153       0.000       2.584       0.000       0.000       2.584
 Approx polarizability:      13.369      -0.000       2.621       0.000       0.000       2.621

 ******    2 imaginary frequencies (negative Signs) ******

                      1                      2                      3
                      A                      A                      A
 Frequencies --  -1319.3698             -1319.3698              1653.4766
 Red. masses --      1.0193                 1.0193                 1.0530
 Frc consts  --      1.0454                 1.0454                 1.6961
 IR Inten    --     76.5829                76.5829                65.4763

                      4
                      A
 Frequencies --   4022.7069
 Red. masses --      1.0586
 Frc consts  --     10.0931
 IR Inten    --     42.7131

 - Thermochemistry -
 -------------------
 Temperature   298.150 Kelvin.  Pressure   1.00000 Atm.
 Atom     1 has atomic number  1 and mass   1.00783

 Molecular mass:    21.01405 amu.
 Principal axes and moments of inertia in atomic units:
                           1         2         3
     Eigenvalues --     0.00000  14.55438  14.55438
           X            1.00000  -0.00000   0.00000
           Y            0.00000   1.00000   0.00000
           Z            0.00000   0.00000   1.00000
 This molecule is a prolate symmetric top.
 Rotational symmetry number  1.
 Rotational temperature (Kelvin)      5.95106
 Rotational constant (GHZ):         123.999872
    2 imaginary frequencies ignored.
 Zero-point vibrational energy      33951.1 (Joules/Mol)
                                    8.11451 (Kcal/Mol)
 Vibrational temperatures:   2378.98  5787.78
          (Kelvin)

 Zero-point correction=                           0.012931 (Hartree/Particle)
 Thermal correction to Energy=                    0.015294
 Thermal correction to Enthalpy=                  0.016239
 Thermal correction to Gibbs Free Energy=        -0.005721
 Sum of electronic and zero-point Energies=           -100.939725
 Sum of electronic and thermal Energies=              -100.937362
 Sum of electronic and thermal Enthalpies=            -100.936418
 Sum of electronic and thermal Free Energies=         -100.958377

                     E (Thermal)             CV                S
                      KCal/Mol        Cal/Mol-Kelvin    Cal/Mol-Kelvin
 Total                    9.597              5.011             46.217
 Electronic               0.000              0.000              1.377
 Translational            0.889              2.981             35.068
 Rotational               0.592              1.987              9.765
 Vibrational              8.116              0.043              0.006

 Normal termination of Gaussian 16 at Fri Aug 22 15:55:07 2025.
