 Gaussian 16, Revision C.01,
 Gaussian 16:  ES64L-G16RevC.01  3-Jul-2019

 -----------------------------------------
 # sp b3lyp/6-311g** Force nosymm scf=(qc)
 -----------------------------------------

 -------------------
 Title Card Required
 -------------------
 Symbolic Z-matrix:
 Charge =  0 Multiplicity = 2

                          Input orientation:
 ---------------------------------------------------------------------
 Center     Atomic      Atomic             Coordinates (Angstroms)
 Number     Number       Type             X           Y           Z
 ---------------------------------------------------------------------
      1          1           0        0.000000    0.000000    0.000000
      2          1           0       -0.700000    0.000000    0.000000
      3          9           0        1.200000    0.000000    0.000000
 ---------------------------------------------------------------------

 SCF Done:  E(UB3LYP) =  -100.932977279     a.u. after    7 cycles

 Alpha  occ. eigenvalues --  -24.68377  -1.17778  -0.60615  -0.41375  -0.41375
 Alpha  occ. eigenvalues --   -0.38859
 Alpha virt. eigenvalues --    0.11861   0.18951   0.50592   0.87595   0.87595
 Alpha virt. eigenvalues --    0.96101   1.10134   1.10134   1.46529   1.64141
 Alpha virt. eigenvalues --    1.81478   1.81478   1.96210   2.39071   3.44067

  Beta  occ. eigenvalues --  -24.66234  -1.12210  -0.52249  -0.39371  -0.39371
  Beta virt. eigenvalues --   -0.20514   0.13499   0.19944   0.54772   0.89094
  Beta virt. eigenvalues --    0.89094   1.00660   1.13604   1.13604   1.49546
  Beta virt. eigenvalues --    1.69582   1.84198   1.84198   1.97053   2.44796

 Mulliken charges and spin densities:
               1          2
     1  H    0.242223  -0.027252
     2  H   -0.015943   0.425213
     3  F   -0.226280   0.602038
 Sum of Mulliken charges =   0.00000   1.00000

 Dipole moment (field-independent basis, Debye):
    X=             -1.4682    Y=              0.0000    Z=              0.0000  Tot=              1.4682
 Quadrupole moment (field-independent basis, Debye-Ang):
   XX=             -7.2516   YY=             -6.5989   ZZ=             -6.5989
   XY=             -0.0000   XZ=              0.0000   YZ=              0.0000

  Exact polarizability:      16.192       0.000       2.449       0.000       0.000       2.449
 Approx polarizability:      20.613      -0.000       2.492       0.000       0.000       2.492

 ******    2 imaginary frequencies (negative Signs) ******

                      1                      2                      3
                      A                      A                      A
 Frequencies --  -1872.8325             -1872.8325               835.8391
 Red. masses --      1.0127                 1.0127                 1.1072
 Frc consts  --      2.0929                 2.0929                 0.4557
 IR Inten    --      8.6687                 8.6687                38.0023

                      4
                      A
 Frequencies --   4500.4083
 Red. masses --      1.0089
 Frc consts  --     12.0394
 IR Inten    --    458.2801

 - Thermochemistry -
 -------------------
 Temperature   298.150 Kelvin.  Pressure   1.00000 Atm.
 Atom     1 has atomic number  1 and mass   1.00783

 Molecular mass:    21.01405 amu.
 Principal axes and moments of inertia in atomic units:
                           1         2         3
     Eigenvalues --     0.00000  16.51624  16.51624
           X            1.00000  -0.00000   0.00000
           Y            0.00000   1.00000   0.00000
           Z            0.00000   0.00000   1.00000
 This molecule is a prolate symmetric top.
 Rotational symmetry number  1.
 Rotational temperature (Kelvin)      5.24417
 Rotational constant (GHZ):         109.270701
    2 imaginary frequencies ignored.
 Zero-point vibrational energy      31917.8 (Joules/Mol)
                                    7.62855 (Kcal/Mol)
 Vibrational temperatures:   1202.59  6475.08
          (Kelvin)

 Zero-point correction=                           0.012157 (Hartree/Particle)
 Thermal correction to Energy=                    0.014586
 Thermal correction to Enthalpy=                  0.015530
 Thermal correction to Gibbs Free Energy=        -0.006631
 Sum of electronic and zero-point Energies=           -100.920820
 Sum of electronic and thermal Energies=              -100.918391
 Sum of electronic and thermal Enthalpies=            -100.917447
 Sum of electronic and thermal Free Energies=         -100.939608

                     E (Thermal)             CV                S
                      KCal/Mol        Cal/Mol-Kelvin    Cal/Mol-Kelvin
 Total                    9.153              5.561             46.642
 Electronic               0.000              0.000              1.377
 Translational            0.889              2.981             35.068
 Rotational               0.592              1.987             10.016
 Vibrational              7.672              0.593              0.180

 Normal termination of Gaussian 16 at Fri Aug 22 16:09:13 2025.
