 Gaussian 16, Revision C.01,
 Gaussian 16:  ES64L-G16RevC.01  3-Jul-2019

 -----------------------------------------
 # sp b3lyp/6-311g** Force nosymm scf=(qc)
 -----------------------------------------

 -------------------
 Title Card Required
 -------------------
 Symbolic Z-matrix:
 Charge =  0 Multiplicity = 2

                          Input orientation:
 ---------------------------------------------------------------------
 Center     Atomic      Atomic             Coordinates (Angstroms)
 Number     Number       Type             X           Y           Z
 ---------------------------------------------------------------------
      1          1           0        0.000000    0.000000    0.000000
      2          1           0       -2.050000    0.000000    0.000000
      3          9           0        0.900000    0.000000    0.000000
 ---------------------------------------------------------------------

 SCF Done:  E(UB3LYP) =  -100.971903949     a.u. after    5 cycles

 Alpha  occ. eigenvalues --  -24.63735  -1.18849  -0.53880  -0.39436  -0.39436
 Alpha  occ. eigenvalues --   -0.35748
 Alpha virt. eigenvalues --    0.06368   0.24392   0.38651   0.94527   0.94527
 Alpha virt. eigenvalues --    0.97589   1.15079   1.21658   1.21658   1.37593
 Alpha virt. eigenvalues --    1.37593   1.49742   1.96286   2.19401   2.37545

  Beta  occ. eigenvalues --  -24.63683  -1.18717  -0.53602  -0.39393  -0.39393
  Beta virt. eigenvalues --   -0.11548   0.08344   0.35177   0.38691   0.94536
  Beta virt. eigenvalues --    0.94536   0.97983   1.24588   1.36950   1.36950
  Beta virt. eigenvalues --    1.42207   1.42207   1.58762   1.99819   2.36612

 Mulliken charges and spin densities:
               1          2
     1  H    0.283434   0.006726
     2  H    0.012941   0.979697
     3  F   -0.296375   0.013578
 Sum of Mulliken charges =   0.00000   1.00000

 Dipole moment (field-independent basis, Debye):
    X=             -2.0256    Y=              0.0000    Z=              0.0000  Tot=              2.0256
 Quadrupole moment (field-independent basis, Debye-Ang):
   XX=             -7.5501   YY=             -6.8355   ZZ=             -6.8355
   XY=              0.0000   XZ=              0.0000   YZ=             -0.0000

  Exact polarizability:       8.780       0.000       2.481      -0.000       0.000       2.481
 Approx polarizability:       9.264      -0.000       2.468       0.000       0.000       2.468

 ******    2 imaginary frequencies (negative Signs) ******

                      1                      2                      3
                      A                      A                      A
 Frequencies --   -638.0043              -638.0043               197.6638
 Red. masses --      1.0302                 1.0302                 1.0530
 Frc consts  --      0.2471                 0.2471                 0.0242
 IR Inten    --    150.4346               150.4346                 1.3207

                      4
                      A
 Frequencies --   4408.4413
 Red. masses --      1.0586
 Frc consts  --     12.1215
 IR Inten    --    168.2392

 - Thermochemistry -
 -------------------
 Temperature   298.150 Kelvin.  Pressure   1.00000 Atm.
 Atom     1 has atomic number  1 and mass   1.00783

 Molecular mass:    21.01405 amu.
 Principal axes and moments of inertia in atomic units:
                           1         2         3
     Eigenvalues --     0.00000  31.67710  31.67710
           X            1.00000  -0.00000   0.00000
           Y            0.00000   1.00000   0.00000
           Z            0.00000   0.00000   1.00000
 This molecule is a prolate symmetric top.
 Rotational symmetry number  1.
 Rotational temperature (Kelvin)      2.73428
 Rotational constant (GHZ):          56.973051
    2 imaginary frequencies ignored.
 Zero-point vibrational energy      27550.6 (Joules/Mol)
                                    6.58476 (Kcal/Mol)
 Warning -- explicit consideration of   1 degrees of freedom as
           vibrations may cause significant error
 Vibrational temperatures:    284.39  6342.76
          (Kelvin)

 Zero-point correction=                           0.010493 (Hartree/Particle)
 Thermal correction to Energy=                    0.013418
 Thermal correction to Enthalpy=                  0.014363
 Thermal correction to Gibbs Free Energy=        -0.009352
 Sum of electronic and zero-point Energies=           -100.961410
 Sum of electronic and thermal Energies=              -100.958486
 Sum of electronic and thermal Enthalpies=            -100.957541
 Sum of electronic and thermal Free Energies=         -100.981256

                     E (Thermal)             CV                S
                      KCal/Mol        Cal/Mol-Kelvin    Cal/Mol-Kelvin
 Total                    8.420              6.811             49.911
 Electronic               0.000              0.000              1.377
 Translational            0.889              2.981             35.068
 Rotational               0.592              1.987             11.311
 Vibrational              6.939              1.843              2.155
 Vibration     1          0.637              1.843              2.155

 Normal termination of Gaussian 16 at Fri Aug 22 15:55:51 2025.
