 Gaussian 16, Revision C.01,
 Gaussian 16:  ES64L-G16RevC.01  3-Jul-2019

 -----------------------------------------
 # sp b3lyp/6-311g** Force nosymm scf=(qc)
 -----------------------------------------

 -------------------
 Title Card Required
 -------------------
 Symbolic Z-matrix:
 Charge =  0 Multiplicity = 2

                          Input orientation:
 ---------------------------------------------------------------------
 Center     Atomic      Atomic             Coordinates (Angstroms)
 Number     Number       Type             X           Y           Z
 ---------------------------------------------------------------------
      1          1           0        0.000000    0.000000    0.000000
      2          1           0       -3.200000    0.000000    0.000000
      3          9           0        0.500000    0.000000    0.000000
 ---------------------------------------------------------------------

 SCF Done:  E(UB3LYP) =  -100.269008310     a.u. after    6 cycles

 Alpha  occ. eigenvalues --  -24.63027  -1.42346  -0.63505  -0.44330  -0.44330
 Alpha  occ. eigenvalues --   -0.33457
 Alpha virt. eigenvalues --    0.08192   0.25434   0.62251   0.88999   0.90158
 Alpha virt. eigenvalues --    0.90158   1.23380   1.24060   1.24060   1.38914
 Alpha virt. eigenvalues --    1.58522   1.58522   2.00263   2.15390   3.76637

  Beta  occ. eigenvalues --  -24.63027  -1.42344  -0.63505  -0.44330  -0.44330
  Beta virt. eigenvalues --   -0.05462   0.08943   0.39468   0.62303   0.88999
  Beta virt. eigenvalues --    0.90154   0.90154   1.36557   1.50307   1.50307
  Beta virt. eigenvalues --    1.52208   1.58525   1.58525   2.00174   2.45349

 Mulliken charges and spin densities:
               1          2
     1  H    0.125025   0.000745
     2  H    0.001325   0.998450
     3  F   -0.126349   0.000805
 Sum of Mulliken charges =   0.00000   1.00000

 Dipole moment (field-independent basis, Debye):
    X=             -1.3098    Y=              0.0000    Z=             -0.0000  Tot=              1.3098
 Quadrupole moment (field-independent basis, Debye-Ang):
   XX=             -6.6127   YY=             -6.4386   ZZ=             -6.4386
   XY=              0.0000   XZ=             -0.0000   YZ=             -0.0000

  Exact polarizability:       3.315      -0.000       2.418      -0.000       0.000       2.418
 Approx polarizability:       3.436      -0.000       2.395       0.000       0.000       2.395

 ******    3 imaginary frequencies (negative Signs) ******

                      1                      2                      3
                      A                      A                      A
 Frequencies --  -9585.5078             -9585.5078               -18.9283
 Red. masses --      1.0449                 1.0449                 1.0532
 Frc consts  --     56.5680                56.5680                 0.0002
 IR Inten    --    280.6083               280.6083                 0.0478

                      4
                      A
 Frequencies --  19159.2868
 Red. masses --      1.0583
 Frc consts  --    228.8875
 IR Inten    --     78.4543

 - Thermochemistry -
 -------------------
 Temperature   298.150 Kelvin.  Pressure   1.00000 Atm.
 Atom     1 has atomic number  1 and mass   1.00783

 Molecular mass:    21.01405 amu.
 Principal axes and moments of inertia in atomic units:
                           1         2         3
     Eigenvalues --     0.00000  47.12539  47.12539
           X            1.00000  -0.00000   0.00000
           Y            0.00000   1.00000   0.00000
           Z            0.00000   0.00000   1.00000
 This molecule is a prolate symmetric top.
 Rotational symmetry number  1.
 Rotational temperature (Kelvin)      1.83795
 Rotational constant (GHZ):          38.296576
    3 imaginary frequencies ignored.
 Zero-point vibrational energy     114598.0 (Joules/Mol)
                                   27.38958 (Kcal/Mol)
 Vibrational temperatures:  27565.94
          (Kelvin)

 Zero-point correction=                           0.043648 (Hartree/Particle)
 Thermal correction to Energy=                    0.046009
 Thermal correction to Enthalpy=                  0.046953
 Thermal correction to Gibbs Free Energy=         0.023887
 Sum of electronic and zero-point Energies=           -100.225360
 Sum of electronic and thermal Energies=              -100.223000
 Sum of electronic and thermal Enthalpies=            -100.222056
 Sum of electronic and thermal Free Energies=         -100.245121

                     E (Thermal)             CV                S
                      KCal/Mol        Cal/Mol-Kelvin    Cal/Mol-Kelvin
 Total                   28.871              4.968             48.545
 Electronic               0.000              0.000              1.377
 Translational            0.889              2.981             35.068
 Rotational               0.592              1.987             12.100
 Vibrational             27.390              0.000              0.000

 Normal termination of Gaussian 16 at Fri Aug 22 15:37:44 2025.
