 Gaussian 16, Revision C.01,
 Gaussian 16:  ES64L-G16RevC.01  3-Jul-2019

 -----------------------------------------
 # sp b3lyp/6-311g** Force nosymm scf=(qc)
 -----------------------------------------

 -------------------
 Title Card Required
 -------------------
 Symbolic Z-matrix:
 Charge =  0 Multiplicity = 2

                          Input orientation:
 ---------------------------------------------------------------------
 Center     Atomic      Atomic             Coordinates (Angstroms)
 Number     Number       Type             X           Y           Z
 ---------------------------------------------------------------------
      1          1           0        0.000000    0.000000    0.000000
      2          1           0       -2.750000    0.000000    0.000000
      3          9           0        3.150000    0.000000    0.000000
 ---------------------------------------------------------------------

 SCF Done:  E(UB3LYP) =  -100.762084125     a.u. after   24 cycles

 Alpha  occ. eigenvalues --  -24.74619  -1.20638  -0.53739  -0.45121  -0.45121
 Alpha  occ. eigenvalues --   -0.32741
 Alpha virt. eigenvalues --   -0.09341   0.25170   0.34521   0.88917   0.91953
 Alpha virt. eigenvalues --    0.91953   1.03118   1.24836   1.24836   1.26194
 Alpha virt. eigenvalues --    1.41861   1.41861   1.42470   2.15778   2.38245

  Beta  occ. eigenvalues --  -24.71556  -1.11851  -0.42054  -0.42054  -0.33455
  Beta virt. eigenvalues --   -0.25082  -0.08313   0.25087   0.35834   0.93426
  Beta virt. eigenvalues --    0.93426   0.97823   1.07029   1.23988   1.23988
  Beta virt. eigenvalues --    1.25240   1.43514   1.43514   1.43998   2.16491

 Mulliken charges and spin densities:
               1          2
     1  H    0.024014  -0.956228
     2  H    0.002383   0.985446
     3  F   -0.026397   0.970782
 Sum of Mulliken charges =  -0.00000   1.00000

 Dipole moment (field-independent basis, Debye):
    X=             -0.4583    Y=             -0.0000    Z=              0.0000  Tot=              0.4583
 Quadrupole moment (field-independent basis, Debye-Ang):
   XX=             -7.8085   YY=             -7.6397   ZZ=             -7.6397
   XY=             -0.0000   XZ=              0.0000   YZ=              0.0000

  Exact polarizability:      36.807      -0.000       2.021       0.000       0.000       2.021
 Approx polarizability:      32.280      -0.000       1.925       0.000      -0.000       1.925

 ******    2 imaginary frequencies (negative Signs) ******

                      1                      2                      3
                      A                      A                      A
 Frequencies --   -511.7591              -191.5770               187.9104
 Red. masses --      1.0118                 1.1037                 1.0164
 Frc consts  --      0.1561                 0.0239                 0.0211
 IR Inten    --     19.5783                11.0056                 0.4795

                      4
                      A
 Frequencies --    187.9104
 Red. masses --      1.0164
 Frc consts  --      0.0211
 IR Inten    --      0.4795

 - Thermochemistry -
 -------------------
 Temperature   298.150 Kelvin.  Pressure   1.00000 Atm.
 Atom     1 has atomic number  1 and mass   1.00783

 Molecular mass:    21.01405 amu.
 Principal axes and moments of inertia in atomic units:
                           1         2         3
     Eigenvalues --     0.00000 146.85571 146.85571
           X            1.00000  -0.00000   0.00000
           Y            0.00000   1.00000   0.00000
           Z            0.00000   0.00000   1.00000
 This molecule is a prolate symmetric top.
 Rotational symmetry number  1.
 Rotational temperature (Kelvin)      0.58979
 Rotational constant (GHZ):          12.289214
    2 imaginary frequencies ignored.
 Zero-point vibrational energy       2247.9 (Joules/Mol)
                                    0.53726 (Kcal/Mol)
 Warning -- explicit consideration of   2 degrees of freedom as
           vibrations may cause significant error
 Vibrational temperatures:    270.36   270.36
          (Kelvin)

 Zero-point correction=                           0.000856 (Hartree/Particle)
 Thermal correction to Energy=                    0.004376
 Thermal correction to Enthalpy=                  0.005321
 Thermal correction to Gibbs Free Energy=        -0.020955
 Sum of electronic and zero-point Energies=           -100.761228
 Sum of electronic and thermal Energies=              -100.757708
 Sum of electronic and thermal Enthalpies=            -100.756763
 Sum of electronic and thermal Free Energies=         -100.783039

                     E (Thermal)             CV                S
                      KCal/Mol        Cal/Mol-Kelvin    Cal/Mol-Kelvin
 Total                    2.746              8.681             55.301
 Electronic               0.000              0.000              1.377
 Translational            0.889              2.981             35.068
 Rotational               0.592              1.987             14.359
 Vibrational              1.265              3.713              4.497
 Vibration     1          0.633              1.856              2.248
 Vibration     2          0.633              1.856              2.248

 Normal termination of Gaussian 16 at Fri Aug 22 20:10:54 2025.
