 Gaussian 16, Revision C.01,
 Gaussian 16:  ES64L-G16RevC.01  3-Jul-2019

 -----------------------------------------
 # sp b3lyp/6-311g** Force nosymm scf=(qc)
 -----------------------------------------

 -------------------
 Title Card Required
 -------------------
 Symbolic Z-matrix:
 Charge =  0 Multiplicity = 2

                          Input orientation:
 ---------------------------------------------------------------------
 Center     Atomic      Atomic             Coordinates (Angstroms)
 Number     Number       Type             X           Y           Z
 ---------------------------------------------------------------------
      1          1           0        0.000000    0.000000    0.000000
      2          1           0       -3.800000    0.000000    0.000000
      3          9           0        3.500000    0.000000    0.000000
 ---------------------------------------------------------------------

 SCF Done:  E(UB3LYP) =  -100.758940551     a.u. after   32 cycles

 Alpha  occ. eigenvalues --  -24.75379  -1.21343  -0.54502  -0.45760  -0.45760
 Alpha  occ. eigenvalues --   -0.32306
 Alpha virt. eigenvalues --   -0.06527   0.24131   0.37207   0.87590   0.91486
 Alpha virt. eigenvalues --    0.91486   1.01814   1.25191   1.25191   1.25239
 Alpha virt. eigenvalues --    1.45874   1.45874   1.46267   2.14670   2.42043

  Beta  occ. eigenvalues --  -24.72265  -1.12396  -0.42639  -0.42639  -0.32814
  Beta virt. eigenvalues --   -0.25478  -0.06043   0.23873   0.38157   0.92975
  Beta virt. eigenvalues --    0.92975   0.96723   1.05820   1.24612   1.24612
  Beta virt. eigenvalues --    1.24643   1.46431   1.46591   1.46591   2.14835

 Mulliken charges and spin densities:
               1          2
     1  H    0.011556  -0.986213
     2  H    0.000082   0.998988
     3  F   -0.011638   0.987224
 Sum of Mulliken charges =  -0.00000   1.00000

 Dipole moment (field-independent basis, Debye):
    X=             -0.2110    Y=             -0.0000    Z=             -0.0000  Tot=              0.2110
 Quadrupole moment (field-independent basis, Debye-Ang):
   XX=             -7.4215   YY=             -7.6182   ZZ=             -7.6182
   XY=             -0.0000   XZ=             -0.0000   YZ=              0.0000

  Exact polarizability:      23.006      -0.000       2.036      -0.000      -0.000       2.036
 Approx polarizability:      18.282      -0.000       1.934      -0.000      -0.000       1.934

 ******    2 imaginary frequencies (negative Signs) ******

                      1                      2                      3
                      A                      A                      A
 Frequencies --   -221.4478               -80.8293                63.2843
 Red. masses --      1.0403                 1.0717                 1.0190
 Frc consts  --      0.0301                 0.0041                 0.0024
 IR Inten    --     11.1882                 0.3920                 0.1205

                      4
                      A
 Frequencies --     63.2844
 Red. masses --      1.0190
 Frc consts  --      0.0024
 IR Inten    --      0.1205

 - Thermochemistry -
 -------------------
 Temperature   298.150 Kelvin.  Pressure   1.00000 Atm.
 Atom     1 has atomic number  1 and mass   1.00783

 Molecular mass:    21.01405 amu.
 Principal axes and moments of inertia in atomic units:
                           1         2         3
     Eigenvalues --     0.00000 215.74615 215.74615
           X            1.00000  -0.00000   0.00000
           Y            0.00000   1.00000   0.00000
           Z            0.00000   0.00000   1.00000
 This molecule is a prolate symmetric top.
 Rotational symmetry number  1.
 Rotational temperature (Kelvin)      0.40146
 Rotational constant (GHZ):           8.365114
    2 imaginary frequencies ignored.
 Zero-point vibrational energy        757.0 (Joules/Mol)
                                    0.18094 (Kcal/Mol)
 Warning -- explicit consideration of   2 degrees of freedom as
           vibrations may cause significant error
 Vibrational temperatures:     91.05    91.05
          (Kelvin)

 Zero-point correction=                           0.000288 (Hartree/Particle)
 Thermal correction to Energy=                    0.004263
 Thermal correction to Enthalpy=                  0.005208
 Thermal correction to Gibbs Free Energy=        -0.023430
 Sum of electronic and zero-point Energies=           -100.758652
 Sum of electronic and thermal Energies=              -100.754677
 Sum of electronic and thermal Enthalpies=            -100.753733
 Sum of electronic and thermal Free Energies=         -100.782370

                     E (Thermal)             CV                S
                      KCal/Mol        Cal/Mol-Kelvin    Cal/Mol-Kelvin
 Total                    2.675              8.912             60.273
 Electronic               0.000              0.000              1.377
 Translational            0.889              2.981             35.068
 Rotational               0.592              1.987             15.123
 Vibrational              1.194              3.944              8.704
 Vibration     1          0.597              1.972              4.352
 Vibration     2          0.597              1.972              4.352

 Normal termination of Gaussian 16 at Fri Aug 22 22:11:44 2025.
