 Gaussian 16, Revision C.01,
 Gaussian 16:  ES64L-G16RevC.01  3-Jul-2019

 -----------------------------------------
 # sp b3lyp/6-311g** Force nosymm scf=(qc)
 -----------------------------------------

 -------------------
 Title Card Required
 -------------------
 Symbolic Z-matrix:
 Charge =  0 Multiplicity = 2

                          Input orientation:
 ---------------------------------------------------------------------
 Center     Atomic      Atomic             Coordinates (Angstroms)
 Number     Number       Type             X           Y           Z
 ---------------------------------------------------------------------
      1          1           0        0.000000    0.000000    0.000000
      2          1           0       -3.800000    0.000000    0.000000
      3          9           0        2.500000    0.000000    0.000000
 ---------------------------------------------------------------------

 SCF Done:  E(UB3LYP) =  -100.767314657     a.u. after   17 cycles

 Alpha  occ. eigenvalues --  -24.71732  -1.17950  -0.50835  -0.42706  -0.42706
 Alpha  occ. eigenvalues --   -0.32790
 Alpha virt. eigenvalues --   -0.10190   0.23409   0.35198   0.89596   0.93617
 Alpha virt. eigenvalues --    0.93617   1.06187   1.24712   1.24712   1.24752
 Alpha virt. eigenvalues --    1.40471   1.40471   1.44859   2.14169   2.37032

  Beta  occ. eigenvalues --  -24.68891  -1.09864  -0.39874  -0.39874  -0.35357
  Beta virt. eigenvalues --   -0.23333  -0.06279   0.23721   0.38092   0.94980
  Beta virt. eigenvalues --    0.94980   0.95874   1.08504   1.22091   1.22091
  Beta virt. eigenvalues --    1.29708   1.46266   1.46477   1.46477   2.12424

 Mulliken charges and spin densities:
               1          2
     1  H    0.090220  -0.896765
     2  H    0.000414   0.999012
     3  F   -0.090634   0.897753
 Sum of Mulliken charges =  -0.00000   1.00000

 Dipole moment (field-independent basis, Debye):
    X=             -1.1598    Y=             -0.0000    Z=              0.0000  Tot=              1.1598
 Quadrupole moment (field-independent basis, Debye-Ang):
   XX=             -9.3426   YY=             -7.5678   ZZ=             -7.5678
   XY=             -0.0000   XZ=              0.0000   YZ=             -0.0000

  Exact polarizability:      30.106      -0.000       2.027      -0.000       0.000       2.027
 Approx polarizability:      38.401      -0.000       1.921       0.000      -0.000       1.921

 ******    2 imaginary frequencies (negative Signs) ******

                      1                      2                      3
                      A                      A                      A
 Frequencies --   -613.1063               -85.8873               240.6335
 Red. masses --      1.0562                 1.0553                 1.0237
 Frc consts  --      0.2339                 0.0046                 0.0349
 IR Inten    --     80.7034                 0.0760                 7.9066

                      4
                      A
 Frequencies --    240.6335
 Red. masses --      1.0237
 Frc consts  --      0.0349
 IR Inten    --      7.9066

 - Thermochemistry -
 -------------------
 Temperature   298.150 Kelvin.  Pressure   1.00000 Atm.
 Atom     1 has atomic number  1 and mass   1.00783

 Molecular mass:    21.01405 amu.
 Principal axes and moments of inertia in atomic units:
                           1         2         3
     Eigenvalues --     0.00000 151.97177 151.97177
           X            1.00000  -0.00000   0.00000
           Y            0.00000   1.00000   0.00000
           Z            0.00000   0.00000   1.00000
 This molecule is a prolate symmetric top.
 Rotational symmetry number  1.
 Rotational temperature (Kelvin)      0.56993
 Rotational constant (GHZ):          11.875503
    2 imaginary frequencies ignored.
 Zero-point vibrational energy       2878.6 (Joules/Mol)
                                    0.68801 (Kcal/Mol)
 Warning -- explicit consideration of   2 degrees of freedom as
           vibrations may cause significant error
 Vibrational temperatures:    346.22   346.22
          (Kelvin)

 Zero-point correction=                           0.001096 (Hartree/Particle)
 Thermal correction to Energy=                    0.004456
 Thermal correction to Enthalpy=                  0.005401
 Thermal correction to Gibbs Free Energy=        -0.020479
 Sum of electronic and zero-point Energies=           -100.766218
 Sum of electronic and thermal Energies=              -100.762858
 Sum of electronic and thermal Enthalpies=            -100.761914
 Sum of electronic and thermal Free Energies=         -100.787794

                     E (Thermal)             CV                S
                      KCal/Mol        Cal/Mol-Kelvin    Cal/Mol-Kelvin
 Total                    2.796              8.524             54.469
 Electronic               0.000              0.000              1.377
 Translational            0.889              2.981             35.068
 Rotational               0.592              1.987             14.427
 Vibrational              1.315              3.556              3.596
 Vibration     1          0.658              1.778              1.798
 Vibration     2          0.658              1.778              1.798

 Normal termination of Gaussian 16 at Fri Aug 22 17:46:31 2025.
