 Gaussian 16, Revision C.01,
 Gaussian 16:  ES64L-G16RevC.01  3-Jul-2019

 -----------------------------------------
 # sp b3lyp/6-311g** Force nosymm scf=(qc)
 -----------------------------------------

 -------------------
 Title Card Required
 -------------------
 Symbolic Z-matrix:
 Charge =  0 Multiplicity = 2

                          Input orientation:
 ---------------------------------------------------------------------
 Center     Atomic      Atomic             Coordinates (Angstroms)
 Number     Number       Type             X           Y           Z
 ---------------------------------------------------------------------
      1          1           0        0.000000    0.000000    0.000000
      2          1           0       -2.650000    0.000000    0.000000
      3          9           0        3.250000    0.000000    0.000000
 ---------------------------------------------------------------------

 SCF Done:  E(UB3LYP) =  -100.762300162     a.u. after   25 cycles

 Alpha  occ. eigenvalues --  -24.74908  -1.20905  -0.54028  -0.45364  -0.45364
 Alpha  occ. eigenvalues --   -0.32731
 Alpha virt. eigenvalues --   -0.09442   0.25374   0.34364   0.88524   0.91776
 Alpha virt. eigenvalues --    0.91776   1.02648   1.24869   1.24869   1.26416
 Alpha virt. eigenvalues --    1.41625   1.41625   1.42484   2.15832   2.37766

  Beta  occ. eigenvalues --  -24.71826  -1.12059  -0.42277  -0.42277  -0.33287
  Beta virt. eigenvalues --   -0.25241  -0.08607   0.25242   0.35491   0.93254
  Beta virt. eigenvalues --    0.93254   0.97517   1.06602   1.24204   1.24204
  Beta virt. eigenvalues --    1.25622   1.42964   1.42964   1.43794   2.16558

 Mulliken charges and spin densities:
               1          2
     1  H    0.018227  -0.957590
     2  H    0.002567   0.980675
     3  F   -0.020794   0.976915
 Sum of Mulliken charges =  -0.00000   1.00000

 Dipole moment (field-independent basis, Debye):
    X=             -0.3795    Y=             -0.0000    Z=              0.0000  Tot=              0.3795
 Quadrupole moment (field-independent basis, Debye-Ang):
   XX=             -7.5786   YY=             -7.6489   ZZ=             -7.6489
   XY=             -0.0000   XZ=              0.0000   YZ=              0.0000

  Exact polarizability:      36.841      -0.000       2.021       0.000       0.000       2.021
 Approx polarizability:      30.437      -0.000       1.926       0.000      -0.000       1.926

 ******    2 imaginary frequencies (negative Signs) ******

                      1                      2                      3
                      A                      A                      A
 Frequencies --   -563.7300              -180.6551               205.6473
 Red. masses --      1.0095                 1.1065                 1.0157
 Frc consts  --      0.1890                 0.0213                 0.0253
 IR Inten    --     14.0673                10.7654                 0.2630

                      4
                      A
 Frequencies --    205.6473
 Red. masses --      1.0157
 Frc consts  --      0.0253
 IR Inten    --      0.2630

 - Thermochemistry -
 -------------------
 Temperature   298.150 Kelvin.  Pressure   1.00000 Atm.
 Atom     1 has atomic number  1 and mass   1.00783

 Molecular mass:    21.01405 amu.
 Principal axes and moments of inertia in atomic units:
                           1         2         3
     Eigenvalues --     0.00000 148.84493 148.84493
           X            1.00000  -0.00000   0.00000
           Y            0.00000   1.00000   0.00000
           Z            0.00000   0.00000   1.00000
 This molecule is a prolate symmetric top.
 Rotational symmetry number  1.
 Rotational temperature (Kelvin)      0.58191
 Rotational constant (GHZ):          12.124976
    2 imaginary frequencies ignored.
 Zero-point vibrational energy       2460.1 (Joules/Mol)
                                    0.58798 (Kcal/Mol)
 Warning -- explicit consideration of   2 degrees of freedom as
           vibrations may cause significant error
 Vibrational temperatures:    295.88   295.88
          (Kelvin)

 Zero-point correction=                           0.000937 (Hartree/Particle)
 Thermal correction to Energy=                    0.004401
 Thermal correction to Enthalpy=                  0.005346
 Thermal correction to Gibbs Free Energy=        -0.020784
 Sum of electronic and zero-point Energies=           -100.761363
 Sum of electronic and thermal Energies=              -100.757899
 Sum of electronic and thermal Enthalpies=            -100.756955
 Sum of electronic and thermal Free Energies=         -100.783084

                     E (Thermal)             CV                S
                      KCal/Mol        Cal/Mol-Kelvin    Cal/Mol-Kelvin
 Total                    2.762              8.632             54.995
 Electronic               0.000              0.000              1.377
 Translational            0.889              2.981             35.068
 Rotational               0.592              1.987             14.385
 Vibrational              1.281              3.664              4.164
 Vibration     1          0.640              1.832              2.082
 Vibration     2          0.640              1.832              2.082

 Normal termination of Gaussian 16 at Fri Aug 22 20:35:13 2025.
