 Gaussian 16, Revision C.01,
 Gaussian 16:  ES64L-G16RevC.01  3-Jul-2019

 -----------------------------------------
 # sp b3lyp/6-311g** Force nosymm scf=(qc)
 -----------------------------------------

 -------------------
 Title Card Required
 -------------------
 Symbolic Z-matrix:
 Charge =  0 Multiplicity = 2

                          Input orientation:
 ---------------------------------------------------------------------
 Center     Atomic      Atomic             Coordinates (Angstroms)
 Number     Number       Type             X           Y           Z
 ---------------------------------------------------------------------
      1          1           0        0.000000    0.000000    0.000000
      2          1           0       -1.450000    0.000000    0.000000
      3          9           0        1.600000    0.000000    0.000000
 ---------------------------------------------------------------------

 SCF Done:  E(UB3LYP) =  -100.868352574     a.u. after   14 cycles

 Alpha  occ. eigenvalues --  -24.66220  -1.12841  -0.47597  -0.38958  -0.38251
 Alpha  occ. eigenvalues --   -0.38251
 Alpha virt. eigenvalues --   -0.07376   0.20990   0.29643   0.93365   0.93365
 Alpha virt. eigenvalues --    0.93644   1.03386   1.14484   1.14484   1.41372
 Alpha virt. eigenvalues --    1.41372   1.45233   1.89907   2.19655   2.44650

  Beta  occ. eigenvalues --  -24.64381  -1.07830  -0.40585  -0.36469  -0.36469
  Beta virt. eigenvalues --   -0.22471  -0.04389   0.23798   0.30379   0.93625
  Beta virt. eigenvalues --    0.93625   0.98083   1.06877   1.19538   1.19538
  Beta virt. eigenvalues --    1.42713   1.42713   1.50157   1.93375   2.22230

 Mulliken charges and spin densities:
               1          2
     1  H    0.197619  -0.256180
     2  H    0.072971   0.684452
     3  F   -0.270591   0.571728
 Sum of Mulliken charges =   0.00000   1.00000

 Dipole moment (field-independent basis, Debye):
    X=             -2.6227    Y=             -0.0000    Z=             -0.0000  Tot=              2.6227
 Quadrupole moment (field-independent basis, Debye-Ang):
   XX=             -8.0534   YY=             -7.2942   ZZ=             -7.2942
   XY=             -0.0000   XZ=             -0.0000   YZ=              0.0000

  Exact polarizability:      39.542      -0.000       2.264      -0.000       0.000       2.264
 Approx polarizability:      59.666       0.000       2.205       0.000      -0.000       2.205

 ******    2 imaginary frequencies (negative Signs) ******

                      1                      2                      3
                      A                      A                      A
 Frequencies --  -2572.0943              -462.4216              1087.6442
 Red. masses --      1.0209                 1.0931                 1.0168
 Frc consts  --      3.9793                 0.1377                 0.7087
 IR Inten    --    629.5880                 2.1688                15.7106

                      4
                      A
 Frequencies --   1087.6442
 Red. masses --      1.0168
 Frc consts  --      0.7087
 IR Inten    --     15.7106

 - Thermochemistry -
 -------------------
 Temperature   298.150 Kelvin.  Pressure   1.00000 Atm.
 Atom     1 has atomic number  1 and mass   1.00783

 Molecular mass:    21.01405 amu.
 Principal axes and moments of inertia in atomic units:
                           1         2         3
     Eigenvalues --     0.00000  38.96105  38.96105
           X            1.00000  -0.00000   0.00000
           Y            0.00000   1.00000   0.00000
           Z            0.00000   0.00000   1.00000
 This molecule is a prolate symmetric top.
 Rotational symmetry number  1.
 Rotational temperature (Kelvin)      2.22309
 Rotational constant (GHZ):          46.321683
    2 imaginary frequencies ignored.
 Zero-point vibrational energy      13011.1 (Joules/Mol)
                                    3.10973 (Kcal/Mol)
 Vibrational temperatures:   1564.88  1564.88
          (Kelvin)

 Zero-point correction=                           0.004956 (Hartree/Particle)
 Thermal correction to Energy=                    0.007368
 Thermal correction to Enthalpy=                  0.008313
 Thermal correction to Gibbs Free Energy=        -0.014635
 Sum of electronic and zero-point Energies=           -100.863397
 Sum of electronic and thermal Energies=              -100.860984
 Sum of electronic and thermal Enthalpies=            -100.860040
 Sum of electronic and thermal Free Energies=         -100.882988

                     E (Thermal)             CV                S
                      KCal/Mol        Cal/Mol-Kelvin    Cal/Mol-Kelvin
 Total                    4.624              5.549             48.298
 Electronic               0.000              0.000              1.377
 Translational            0.889              2.981             35.068
 Rotational               0.592              1.987             11.722
 Vibrational              3.143              0.581              0.131

 Normal termination of Gaussian 16 at Fri Aug 22 16:30:40 2025.
