 Gaussian 16, Revision C.01,
 Gaussian 16:  ES64L-G16RevC.01  3-Jul-2019

 -----------------------------------------
 # sp b3lyp/6-311g** Force nosymm scf=(qc)
 -----------------------------------------

 -------------------
 Title Card Required
 -------------------
 Symbolic Z-matrix:
 Charge =  0 Multiplicity = 2

                          Input orientation:
 ---------------------------------------------------------------------
 Center     Atomic      Atomic             Coordinates (Angstroms)
 Number     Number       Type             X           Y           Z
 ---------------------------------------------------------------------
      1          1           0        0.000000    0.000000    0.000000
      2          1           0       -3.200000    0.000000    0.000000
      3          9           0        3.250000    0.000000    0.000000
 ---------------------------------------------------------------------

 SCF Done:  E(UB3LYP) =  -100.760196060     a.u. after   25 cycles

 Alpha  occ. eigenvalues --  -24.74864  -1.20866  -0.53985  -0.45328  -0.45328
 Alpha  occ. eigenvalues --   -0.32493
 Alpha virt. eigenvalues --   -0.07995   0.24528   0.36010   0.88495   0.91803
 Alpha virt. eigenvalues --    0.91803   1.02662   1.25027   1.25027   1.25451
 Alpha virt. eigenvalues --    1.43952   1.43952   1.44019   2.15361   2.40104

  Beta  occ. eigenvalues --  -24.71784  -1.12026  -0.42242  -0.42242  -0.33221
  Beta virt. eigenvalues --   -0.25209  -0.07087   0.24345   0.37317   0.93281
  Beta virt. eigenvalues --    0.93281   0.97455   1.06571   1.24179   1.24179
  Beta virt. eigenvalues --    1.24589   1.45175   1.45380   1.45380   2.15770

 Mulliken charges and spin densities:
               1          2
     1  H    0.020899  -0.971887
     2  H    0.000637   0.995562
     3  F   -0.021536   0.976325
 Sum of Mulliken charges =  -0.00000   1.00000

 Dipole moment (field-independent basis, Debye):
    X=             -0.3695    Y=             -0.0000    Z=              0.0000  Tot=              0.3695
 Quadrupole moment (field-independent basis, Debye-Ang):
   XX=             -7.7681   YY=             -7.6238   ZZ=             -7.6238
   XY=             -0.0000   XZ=              0.0000   YZ=              0.0000

  Exact polarizability:      30.519      -0.000       2.028       0.000       0.000       2.028
 Approx polarizability:      26.758      -0.000       1.929       0.000      -0.000       1.929

 ******    2 imaginary frequencies (negative Signs) ******

                      1                      2                      3
                      A                      A                      A
 Frequencies --   -340.3042              -143.9455               118.2230
 Red. masses --      1.0249                 1.0885                 1.0178
 Frc consts  --      0.0699                 0.0133                 0.0084
 IR Inten    --     20.7367                 3.2922                 0.3887

                      4
                      A
 Frequencies --    118.2231
 Red. masses --      1.0178
 Frc consts  --      0.0084
 IR Inten    --      0.3887

 - Thermochemistry -
 -------------------
 Temperature   298.150 Kelvin.  Pressure   1.00000 Atm.
 Atom     1 has atomic number  1 and mass   1.00783

 Molecular mass:    21.01405 amu.
 Principal axes and moments of inertia in atomic units:
                           1         2         3
     Eigenvalues --     0.00000 171.50170 171.50170
           X            1.00000  -0.00000   0.00000
           Y            0.00000   1.00000   0.00000
           Z            0.00000   0.00000   1.00000
 This molecule is a prolate symmetric top.
 Rotational symmetry number  1.
 Rotational temperature (Kelvin)      0.50503
 Rotational constant (GHZ):          10.523168
    2 imaginary frequencies ignored.
 Zero-point vibrational energy       1414.3 (Joules/Mol)
                                    0.33802 (Kcal/Mol)
 Warning -- explicit consideration of   2 degrees of freedom as
           vibrations may cause significant error
 Vibrational temperatures:    170.10   170.10
          (Kelvin)

 Zero-point correction=                           0.000539 (Hartree/Particle)
 Thermal correction to Energy=                    0.004300
 Thermal correction to Enthalpy=                  0.005244
 Thermal correction to Gibbs Free Energy=        -0.022015
 Sum of electronic and zero-point Energies=           -100.759657
 Sum of electronic and thermal Energies=              -100.755896
 Sum of electronic and thermal Enthalpies=            -100.754952
 Sum of electronic and thermal Free Energies=         -100.782211

                     E (Thermal)             CV                S
                      KCal/Mol        Cal/Mol-Kelvin    Cal/Mol-Kelvin
 Total                    2.698              8.836             57.371
 Electronic               0.000              0.000              1.377
 Translational            0.889              2.981             35.068
 Rotational               0.592              1.987             14.667
 Vibrational              1.217              3.868              6.258
 Vibration     1          0.608              1.934              3.129
 Vibration     2          0.608              1.934              3.129

 Normal termination of Gaussian 16 at Fri Aug 22 20:35:53 2025.
