 Gaussian 16, Revision C.01,
 Gaussian 16:  ES64L-G16RevC.01  3-Jul-2019

 -----------------------------------------
 # sp b3lyp/6-311g** Force nosymm scf=(qc)
 -----------------------------------------

 -------------------
 Title Card Required
 -------------------
 Symbolic Z-matrix:
 Charge =  0 Multiplicity = 2

                          Input orientation:
 ---------------------------------------------------------------------
 Center     Atomic      Atomic             Coordinates (Angstroms)
 Number     Number       Type             X           Y           Z
 ---------------------------------------------------------------------
      1          1           0        0.000000    0.000000    0.000000
      2          1           0       -1.950000    0.000000    0.000000
      3          9           0        3.550000    0.000000    0.000000
 ---------------------------------------------------------------------

 SCF Done:  E(UB3LYP) =  -100.776869023     a.u. after   35 cycles

 Alpha  occ. eigenvalues --  -24.75680  -1.21623  -0.54804  -0.46020  -0.46020
 Alpha  occ. eigenvalues --   -0.33123
 Alpha virt. eigenvalues --   -0.11054   0.25868   0.31975   0.87429   0.91280
 Alpha virt. eigenvalues --    0.91280   1.01582   1.15181   1.24848   1.24848
 Alpha virt. eigenvalues --    1.37633   1.37633   1.53308   2.13260   2.37057

  Beta  occ. eigenvalues --  -24.72553  -1.12634  -0.42885  -0.42885  -0.33174
  Beta virt. eigenvalues --   -0.25689  -0.10855   0.25761   0.32360   0.92773
  Beta virt. eigenvalues --    0.92773   0.96637   1.05648   1.15186   1.24783
  Beta virt. eigenvalues --    1.24783   1.37895   1.37895   1.53501   2.13741

 Mulliken charges and spin densities:
               1          2
     1  H    0.001527  -0.823568
     2  H    0.005737   0.832117
     3  F   -0.007264   0.991451
 Sum of Mulliken charges =   0.00000   1.00000

 Dipole moment (field-independent basis, Debye):
    X=             -0.1848    Y=              0.0000    Z=              0.0000  Tot=              0.1848
 Quadrupole moment (field-independent basis, Debye-Ang):
   XX=             -6.4722   YY=             -7.7342   ZZ=             -7.7342
   XY=              0.0000   XZ=              0.0000   YZ=             -0.0000

  Exact polarizability:      41.721       0.000       2.005       0.000      -0.000       2.005
 Approx polarizability:      38.441       0.000       1.942       0.000       0.000       1.942

 ******    2 imaginary frequencies (negative Signs) ******

                      1                      2                      3
                      A                      A                      A
 Frequencies --  -1447.6827              -126.4322               600.2275
 Red. masses --      1.0078                 1.1085                 1.0123
 Frc consts  --      1.2445                 0.0104                 0.2149
 IR Inten    --      8.8022                 5.2765                 0.0004

                      4
                      A
 Frequencies --    600.2275
 Red. masses --      1.0123
 Frc consts  --      0.2149
 IR Inten    --      0.0004

 - Thermochemistry -
 -------------------
 Temperature   298.150 Kelvin.  Pressure   1.00000 Atm.
 Atom     1 has atomic number  1 and mass   1.00783

 Molecular mass:    21.01405 amu.
 Principal axes and moments of inertia in atomic units:
                           1         2         3
     Eigenvalues --     0.00000 140.08958 140.08958
           X            1.00000  -0.00000   0.00000
           Y            0.00000   1.00000   0.00000
           Z            0.00000   0.00000   1.00000
 This molecule is a prolate symmetric top.
 Rotational symmetry number  1.
 Rotational temperature (Kelvin)      0.61828
 Rotational constant (GHZ):          12.882766
    2 imaginary frequencies ignored.
 Zero-point vibrational energy       7180.3 (Joules/Mol)
                                    1.71614 (Kcal/Mol)
 Warning -- explicit consideration of   2 degrees of freedom as
           vibrations may cause significant error
 Vibrational temperatures:    863.59   863.59
          (Kelvin)

 Zero-point correction=                           0.002735 (Hartree/Particle)
 Thermal correction to Energy=                    0.005415
 Thermal correction to Enthalpy=                  0.006359
 Thermal correction to Gibbs Free Energy=        -0.018162
 Sum of electronic and zero-point Energies=           -100.774134
 Sum of electronic and thermal Energies=              -100.771454
 Sum of electronic and thermal Enthalpies=            -100.770510
 Sum of electronic and thermal Free Energies=         -100.795031

                     E (Thermal)             CV                S
                      KCal/Mol        Cal/Mol-Kelvin    Cal/Mol-Kelvin
 Total                    3.398              7.031             51.609
 Electronic               0.000              0.000              1.377
 Translational            0.889              2.981             35.068
 Rotational               0.592              1.987             14.265
 Vibrational              1.917              2.063              0.899
 Vibration     1          0.958              1.031              0.449
 Vibration     2          0.958              1.031              0.449

 Normal termination of Gaussian 16 at Fri Aug 22 22:38:54 2025.
