 Gaussian 16, Revision C.01,
 Gaussian 16:  ES64L-G16RevC.01  3-Jul-2019

 -----------------------------------------
 # sp b3lyp/6-311g** Force nosymm scf=(qc)
 -----------------------------------------

 -------------------
 Title Card Required
 -------------------
 Symbolic Z-matrix:
 Charge =  0 Multiplicity = 2

                          Input orientation:
 ---------------------------------------------------------------------
 Center     Atomic      Atomic             Coordinates (Angstroms)
 Number     Number       Type             X           Y           Z
 ---------------------------------------------------------------------
      1          1           0        0.000000    0.000000    0.000000
      2          1           0       -4.000000    0.000000    0.000000
      3          9           0        2.050000    0.000000    0.000000
 ---------------------------------------------------------------------

 SCF Done:  E(UB3LYP) =  -100.783903268     a.u. after   16 cycles

 Alpha  occ. eigenvalues --  -24.68643  -1.14967  -0.47647  -0.40115  -0.40115
 Alpha  occ. eigenvalues --   -0.33101
 Alpha virt. eigenvalues --   -0.13401   0.22668   0.31762   0.88453   0.94786
 Alpha virt. eigenvalues --    0.94786   1.05642   1.24390   1.24402   1.24402
 Alpha virt. eigenvalues --    1.35979   1.35979   1.58122   2.13654   2.30252

  Beta  occ. eigenvalues --  -24.66195  -1.08105  -0.37698  -0.37698  -0.37636
  Beta virt. eigenvalues --   -0.21072  -0.06191   0.22569   0.38047   0.90078
  Beta virt. eigenvalues --    0.95556   0.95556   1.08074   1.21725   1.21725
  Beta virt. eigenvalues --    1.46435   1.46650   1.46650   1.50358   2.11329

 Mulliken charges and spin densities:
               1          2
     1  H    0.179808  -0.769519
     2  H    0.000423   0.999351
     3  F   -0.180231   0.770169
 Sum of Mulliken charges =   0.00000   1.00000

 Dipole moment (field-independent basis, Debye):
    X=             -1.8396    Y=             -0.0000    Z=              0.0000  Tot=              1.8396
 Quadrupole moment (field-independent basis, Debye-Ang):
   XX=            -10.0544   YY=             -7.4958   ZZ=             -7.4958
   XY=             -0.0000   XZ=              0.0000   YZ=              0.0000

  Exact polarizability:      25.297      -0.000       2.056       0.000       0.000       2.056
 Approx polarizability:      36.833       0.000       1.941      -0.000      -0.000       1.941

 ******    2 imaginary frequencies (negative Signs) ******

                      1                      2                      3
                      A                      A                      A
 Frequencies --  -1049.8830               -66.4635               448.2428
 Red. masses --      1.0579                 1.0537                 1.0277
 Frc consts  --      0.6870                 0.0027                 0.1217
 IR Inten    --    118.8560                 0.0292                31.1106

                      4
                      A
 Frequencies --    448.2428
 Red. masses --      1.0277
 Frc consts  --      0.1217
 IR Inten    --     31.1106

 - Thermochemistry -
 -------------------
 Temperature   298.150 Kelvin.  Pressure   1.00000 Atm.
 Atom     1 has atomic number  1 and mass   1.00783

 Molecular mass:    21.01405 amu.
 Principal axes and moments of inertia in atomic units:
                           1         2         3
     Eigenvalues --     0.00000 135.53280 135.53280
           X            1.00000  -0.00000   0.00000
           Y            0.00000   1.00000   0.00000
           Z            0.00000   0.00000   1.00000
 This molecule is a prolate symmetric top.
 Rotational symmetry number  1.
 Rotational temperature (Kelvin)      0.63906
 Rotational constant (GHZ):          13.315900
    2 imaginary frequencies ignored.
 Zero-point vibrational energy       5362.2 (Joules/Mol)
                                    1.28159 (Kcal/Mol)
 Warning -- explicit consideration of   2 degrees of freedom as
           vibrations may cause significant error
 Vibrational temperatures:    644.92   644.92
          (Kelvin)

 Zero-point correction=                           0.002042 (Hartree/Particle)
 Thermal correction to Energy=                    0.004933
 Thermal correction to Enthalpy=                  0.005878
 Thermal correction to Gibbs Free Energy=        -0.018947
 Sum of electronic and zero-point Energies=           -100.781861
 Sum of electronic and thermal Energies=              -100.778970
 Sum of electronic and thermal Enthalpies=            -100.778026
 Sum of electronic and thermal Free Energies=         -100.802850

                     E (Thermal)             CV                S
                      KCal/Mol        Cal/Mol-Kelvin    Cal/Mol-Kelvin
 Total                    3.096              7.698             52.247
 Electronic               0.000              0.000              1.377
 Translational            0.889              2.981             35.068
 Rotational               0.592              1.987             14.199
 Vibrational              1.615              2.730              1.602
 Vibration     1          0.807              1.365              0.801
 Vibration     2          0.807              1.365              0.801

 Normal termination of Gaussian 16 at Fri Aug 22 17:02:04 2025.
