 Gaussian 16, Revision C.01,
 Gaussian 16:  ES64L-G16RevC.01  3-Jul-2019

 -----------------------------------------
 # sp b3lyp/6-311g** Force nosymm scf=(qc)
 -----------------------------------------

 -------------------
 Title Card Required
 -------------------
 Symbolic Z-matrix:
 Charge =  0 Multiplicity = 2

                          Input orientation:
 ---------------------------------------------------------------------
 Center     Atomic      Atomic             Coordinates (Angstroms)
 Number     Number       Type             X           Y           Z
 ---------------------------------------------------------------------
      1          1           0        0.000000    0.000000    0.000000
      2          1           0       -0.800000    0.000000    0.000000
      3          9           0        3.200000    0.000000    0.000000
 ---------------------------------------------------------------------

 SCF Done:  E(UB3LYP) =  -100.932397984     a.u. after   30 cycles

 Alpha  occ. eigenvalues --  -24.76508  -1.22336  -0.55532  -0.46759  -0.46683
 Alpha  occ. eigenvalues --   -0.42083
 Alpha virt. eigenvalues --    0.04913   0.20186   0.44917   0.85909   0.90783
 Alpha virt. eigenvalues --    0.93551   1.03649   1.08366   1.08371   1.52525
 Alpha virt. eigenvalues --    1.79033   1.79039   2.05705   2.38458   3.05474

  Beta  occ. eigenvalues --  -24.73348  -1.13252  -0.43643  -0.43515  -0.42027
  Beta virt. eigenvalues --   -0.26161   0.04941   0.20206   0.45000   0.92283
  Beta virt. eigenvalues --    0.95221   0.95370   1.07504   1.08365   1.08370
  Beta virt. eigenvalues --    1.52536   1.79032   1.79038   2.05730   2.38463

 Mulliken charges and spin densities:
               1          2
     1  H   -0.003552  -0.000780
     2  H   -0.003303  -0.000073
     3  F    0.006856   1.000853
 Sum of Mulliken charges =   0.00000   1.00000

 Dipole moment (field-independent basis, Debye):
    X=              0.0742    Y=              0.0000    Z=             -0.0000  Tot=              0.0742
 Quadrupole moment (field-independent basis, Debye-Ang):
   XX=             -6.1323   YY=             -6.5933   ZZ=             -6.5938
   XY=              0.0000   XZ=             -0.0000   YZ=             -0.4319

  Exact polarizability:       9.215       0.000       2.216       0.000      -0.231       2.216
 Approx polarizability:      10.779      -0.000       2.348       0.000      -0.290       2.348

                      1                      2                      3
                      A                      A                      A
 Frequencies --     52.8120              1078.1565              1078.2505
 Red. masses --      1.1085                 1.0091                 1.0091
 Frc consts  --      0.0018                 0.6911                 0.6912
 IR Inten    --      0.2125                 0.0029                 0.0031

                      4
                      A
 Frequencies --   3695.0681
 Red. masses --      1.0078
 Frc consts  --      8.1074
 IR Inten    --      0.2180

 - Thermochemistry -
 -------------------
 Temperature   298.150 Kelvin.  Pressure   1.00000 Atm.
 Atom     1 has atomic number  1 and mass   1.00783

 Molecular mass:    21.01405 amu.
 Principal axes and moments of inertia in atomic units:
                           1         2         3
     Eigenvalues --     0.00000  85.49004  85.49004
           X            1.00000  -0.00000   0.00000
           Y            0.00000   1.00000   0.00000
           Z            0.00000   0.00000   1.00000
 This molecule is a prolate symmetric top.
 Rotational symmetry number  1.
 Rotational temperature (Kelvin)      1.01315
 Rotational constant (GHZ):          21.110543
 Zero-point vibrational energy      35315.5 (Joules/Mol)
                                    8.44060 (Kcal/Mol)
 Warning -- explicit consideration of   1 degrees of freedom as
           vibrations may cause significant error
 Vibrational temperatures:     75.98  1551.23  1551.36  5316.38
          (Kelvin)

 Zero-point correction=                           0.013451 (Hartree/Particle)
 Thermal correction to Energy=                    0.016695
 Thermal correction to Enthalpy=                  0.017639
 Thermal correction to Gibbs Free Energy=        -0.008291
 Sum of electronic and zero-point Energies=           -100.918947
 Sum of electronic and thermal Energies=              -100.915703
 Sum of electronic and thermal Enthalpies=            -100.914759
 Sum of electronic and thermal Free Energies=         -100.940689

                     E (Thermal)             CV                S
                      KCal/Mol        Cal/Mol-Kelvin    Cal/Mol-Kelvin
 Total                   10.476              7.543             54.574
 Electronic               0.000              0.000              1.377
 Translational            0.889              2.981             35.068
 Rotational               0.592              1.987             13.284
 Vibrational              8.995              2.575              4.845
 Vibration     1          0.596              1.976              4.709

 Normal termination of Gaussian 16 at Fri Aug 22 20:15:06 2025.
