 Gaussian 16, Revision C.01,
 Gaussian 16:  ES64L-G16RevC.01  3-Jul-2019

 -----------------------------------------
 # sp b3lyp/6-311g** Force nosymm scf=(qc)
 -----------------------------------------

 -------------------
 Title Card Required
 -------------------
 Symbolic Z-matrix:
 Charge =  0 Multiplicity = 2

                          Input orientation:
 ---------------------------------------------------------------------
 Center     Atomic      Atomic             Coordinates (Angstroms)
 Number     Number       Type             X           Y           Z
 ---------------------------------------------------------------------
      1          1           0        0.000000    0.000000    0.000000
      2          1           0       -0.500000    0.000000    0.000000
      3          9           0        1.150000    0.000000    0.000000
 ---------------------------------------------------------------------

 SCF Done:  E(UB3LYP) =  -100.834231959     a.u. after    7 cycles

 Alpha  occ. eigenvalues --  -24.69191  -1.19695  -0.65869  -0.42443  -0.42443
 Alpha  occ. eigenvalues --   -0.38322
 Alpha virt. eigenvalues --    0.13217   0.18774   0.63960   0.86982   0.86982
 Alpha virt. eigenvalues --    0.94300   1.14414   1.14414   1.53223   1.64636
 Alpha virt. eigenvalues --    1.84000   1.93032   1.93032   2.57099   3.78434

  Beta  occ. eigenvalues --  -24.66791  -1.13544  -0.57495  -0.40211  -0.40211
  Beta virt. eigenvalues --   -0.18513   0.14624   0.19341   0.67657   0.88526
  Beta virt. eigenvalues --    0.88526   0.99361   1.17451   1.17451   1.56068
  Beta virt. eigenvalues --    1.69908   1.85385   1.95715   1.95715   2.62222

 Mulliken charges and spin densities:
               1          2
     1  H    0.240728  -0.010948
     2  H   -0.054371   0.359602
     3  F   -0.186357   0.651346
 Sum of Mulliken charges =   0.00000   1.00000

 Dipole moment (field-independent basis, Debye):
    X=             -1.1497    Y=             -0.0000    Z=             -0.0000  Tot=              1.1497
 Quadrupole moment (field-independent basis, Debye-Ang):
   XX=             -7.0362   YY=             -6.3715   ZZ=             -6.3715
   XY=              0.0000   XZ=             -0.0000   YZ=             -0.0000

  Exact polarizability:      11.977       0.000       2.384       0.000       0.000       2.384
 Approx polarizability:      14.211       0.000       2.452      -0.000       0.000       2.452

 ******    2 imaginary frequencies (negative Signs) ******

                      1                      2                      3
                      A                      A                      A
 Frequencies --  -5094.4349             -5094.4349              1570.1930
 Red. masses --      1.0110                 1.0110                 1.1085
 Frc consts  --     15.4587                15.4587                 1.6102
 IR Inten    --      3.8908                 3.8908                10.5695

                      4
                      A
 Frequencies --   9688.1451
 Red. masses --      1.0078
 Frc consts  --     55.7345
 IR Inten    --    277.1665

 - Thermochemistry -
 -------------------
 Temperature   298.150 Kelvin.  Pressure   1.00000 Atm.
 Atom     1 has atomic number  1 and mass   1.00783

 Molecular mass:    21.01405 amu.
 Principal axes and moments of inertia in atomic units:
                           1         2         3
     Eigenvalues --     0.00000  13.20475  13.20475
           X            1.00000  -0.00000   0.00000
           Y            0.00000   1.00000   0.00000
           Z            0.00000   0.00000   1.00000
 This molecule is a prolate symmetric top.
 Rotational symmetry number  1.
 Rotational temperature (Kelvin)      6.55930
 Rotational constant (GHZ):         136.673623
    2 imaginary frequencies ignored.
 Zero-point vibrational energy      67339.8 (Joules/Mol)
                                   16.09460 (Kcal/Mol)
 Vibrational temperatures:   2259.16 13939.08
          (Kelvin)

 Zero-point correction=                           0.025648 (Hartree/Particle)
 Thermal correction to Energy=                    0.028013
 Thermal correction to Enthalpy=                  0.028957
 Thermal correction to Gibbs Free Energy=         0.007088
 Sum of electronic and zero-point Energies=           -100.808584
 Sum of electronic and thermal Energies=              -100.806219
 Sum of electronic and thermal Enthalpies=            -100.805275
 Sum of electronic and thermal Free Energies=         -100.827144

                     E (Thermal)             CV                S
                      KCal/Mol        Cal/Mol-Kelvin    Cal/Mol-Kelvin
 Total                   17.578              5.026             46.026
 Electronic               0.000              0.000              1.377
 Translational            0.889              2.981             35.068
 Rotational               0.592              1.987              9.572
 Vibrational             16.097              0.058              0.009

 Normal termination of Gaussian 16 at Fri Aug 22 16:06:40 2025.
