 Gaussian 16, Revision C.01,
 Gaussian 16:  ES64L-G16RevC.01  3-Jul-2019

 -----------------------------------------
 # sp b3lyp/6-311g** Force nosymm scf=(qc)
 -----------------------------------------

 -------------------
 Title Card Required
 -------------------
 Symbolic Z-matrix:
 Charge =  0 Multiplicity = 2

                          Input orientation:
 ---------------------------------------------------------------------
 Center     Atomic      Atomic             Coordinates (Angstroms)
 Number     Number       Type             X           Y           Z
 ---------------------------------------------------------------------
      1          1           0        0.000000    0.000000    0.000000
      2          1           0       -1.150000    0.000000    0.000000
      3          9           0        3.300000    0.000000    0.000000
 ---------------------------------------------------------------------

 SCF Done:  E(UB3LYP) =  -100.881037860     a.u. after  143 cycles

 Alpha  occ. eigenvalues --  -24.76483  -1.22333  -0.55530  -0.46741  -0.46682
 Alpha  occ. eigenvalues --   -0.36834
 Alpha virt. eigenvalues --   -0.02894   0.22536   0.35226   0.85892   0.90767
 Alpha virt. eigenvalues --    0.92804   1.02141   1.11854   1.11858   1.25952
 Alpha virt. eigenvalues --    1.57154   1.57158   2.12643   2.33348   2.55313

  Beta  occ. eigenvalues --  -24.73324  -1.13253  -0.43578  -0.43515  -0.36828
  Beta virt. eigenvalues --   -0.26165  -0.02884   0.22549   0.35278   0.92267
  Beta virt. eigenvalues --    0.94358   0.95354   1.06166   1.11853   1.11857
  Beta virt. eigenvalues --    1.25962   1.57153   1.57158   2.12652   2.33351

 Mulliken charges and spin densities:
               1          2
     1  H   -0.000725  -0.000284
     2  H   -0.004054  -0.000299
     3  F    0.004779   1.000583
 Sum of Mulliken charges =   0.00000   1.00000

 Dipole moment (field-independent basis, Debye):
    X=              0.0667    Y=              0.0000    Z=              0.0000  Tot=              0.0667
 Quadrupole moment (field-independent basis, Debye-Ang):
   XX=             -6.2107   YY=             -6.7413   ZZ=             -7.2874
   XY=             -0.0000   XZ=             -0.0000   YZ=              0.3348

  Exact polarizability:      15.199      -0.000       2.456      -0.000       0.179       2.164
 Approx polarizability:      21.932      -0.000       2.586      -0.000       0.225       2.219

 ******    1 imaginary frequencies (negative Signs) ******

                      1                      2                      3
                      A                      A                      A
 Frequencies --    -37.3447               583.5789              1502.5053
 Red. masses --      1.1085                 1.0078                 1.0100
 Frc consts  --      0.0009                 0.2022                 1.3434
 IR Inten    --      0.2572                 0.3307                 0.0006

                      4
                      A
 Frequencies --   1503.3577
 Red. masses --      1.0100
 Frc consts  --      1.3449
 IR Inten    --      0.0007

 - Thermochemistry -
 -------------------
 Temperature   298.150 Kelvin.  Pressure   1.00000 Atm.
 Atom     1 has atomic number  1 and mass   1.00783

 Molecular mass:    21.01405 amu.
 Principal axes and moments of inertia in atomic units:
                           1         2         3
     Eigenvalues --     0.00000 100.09537 100.09537
           X            1.00000  -0.00000   0.00000
           Y            0.00000   1.00000   0.00000
           Z            0.00000   0.00000   1.00000
 This molecule is a prolate symmetric top.
 Rotational symmetry number  1.
 Rotational temperature (Kelvin)      0.86531
 Rotational constant (GHZ):          18.030217
    1 imaginary frequencies ignored.
 Zero-point vibrational energy      21469.6 (Joules/Mol)
                                    5.13136 (Kcal/Mol)
 Warning -- explicit consideration of   1 degrees of freedom as
           vibrations may cause significant error
 Vibrational temperatures:    839.64  2161.77  2163.00
          (Kelvin)

 Zero-point correction=                           0.008177 (Hartree/Particle)
 Thermal correction to Energy=                    0.010717
 Thermal correction to Enthalpy=                  0.011661
 Thermal correction to Gibbs Free Energy=        -0.012354
 Sum of electronic and zero-point Energies=           -100.872861
 Sum of electronic and thermal Energies=              -100.870321
 Sum of electronic and thermal Enthalpies=            -100.869377
 Sum of electronic and thermal Free Energies=         -100.893392

                     E (Thermal)             CV                S
                      KCal/Mol        Cal/Mol-Kelvin    Cal/Mol-Kelvin
 Total                    6.725              6.183             50.544
 Electronic               0.000              0.000              1.377
 Translational            0.889              2.981             35.068
 Rotational               0.592              1.987             13.597
 Vibrational              5.244              1.215              0.502
 Vibration     1          0.940              1.067              0.479

 Normal termination of Gaussian 16 at Fri Aug 22 20:42:02 2025.
