 Gaussian 16, Revision C.01,
 Gaussian 16:  ES64L-G16RevC.01  3-Jul-2019

 -----------------------------------------
 # sp b3lyp/6-311g** Force nosymm scf=(qc)
 -----------------------------------------

 -------------------
 Title Card Required
 -------------------
 Symbolic Z-matrix:
 Charge =  0 Multiplicity = 2

                          Input orientation:
 ---------------------------------------------------------------------
 Center     Atomic      Atomic             Coordinates (Angstroms)
 Number     Number       Type             X           Y           Z
 ---------------------------------------------------------------------
      1          1           0        0.000000    0.000000    0.000000
      2          1           0       -0.750000    0.000000    0.000000
      3          9           0        0.650000    0.000000    0.000000
 ---------------------------------------------------------------------

 SCF Done:  E(UB3LYP) =  -100.690611198     a.u. after    7 cycles

 Alpha  occ. eigenvalues --  -24.67113  -1.38483  -0.69088  -0.46370  -0.46370
 Alpha  occ. eigenvalues --   -0.30437
 Alpha virt. eigenvalues --    0.16876   0.18864   0.81741   0.85756   0.85756
 Alpha virt. eigenvalues --    0.93445   1.09942   1.09942   1.43214   1.65088
 Alpha virt. eigenvalues --    1.86360   1.86360   2.16628   2.76206   3.74561

  Beta  occ. eigenvalues --  -24.66395  -1.36214  -0.65699  -0.45770  -0.45770
  Beta virt. eigenvalues --   -0.11064   0.17480   0.24585   0.84855   0.87470
  Beta virt. eigenvalues --    0.87470   0.96811   1.15909   1.15909   1.45426
  Beta virt. eigenvalues --    1.70913   1.92065   1.92065   2.24680   2.84701

 Mulliken charges and spin densities:
               1          2
     1  H    0.269314  -0.042618
     2  H   -0.089337   0.945180
     3  F   -0.179976   0.097438
 Sum of Mulliken charges =   0.00000   1.00000

 Dipole moment (field-independent basis, Debye):
    X=             -0.7149    Y=              0.0000    Z=             -0.0000  Tot=              0.7149
 Quadrupole moment (field-independent basis, Debye-Ang):
   XX=             -7.4890   YY=             -6.4351   ZZ=             -6.4351
   XY=             -0.0000   XZ=             -0.0000   YZ=              0.0000

  Exact polarizability:       7.962      -0.000       2.490      -0.000       0.000       2.490
 Approx polarizability:       7.856      -0.000       2.577       0.000       0.000       2.577

 ******    2 imaginary frequencies (negative Signs) ******

                      1                      2                      3
                      A                      A                      A
 Frequencies --  -4927.4768             -4927.4768              3571.1525
 Red. masses --      1.0198                 1.0198                 1.0608
 Frc consts  --     14.5882                14.5882                 7.9707
 IR Inten    --    131.6858               131.6858               225.3856

                      4
                      A
 Frequencies --  11031.2165
 Red. masses --      1.0508
 Frc consts  --     75.3385
 IR Inten    --     38.9134

 - Thermochemistry -
 -------------------
 Temperature   298.150 Kelvin.  Pressure   1.00000 Atm.
 Atom     1 has atomic number  1 and mass   1.00783

 Molecular mass:    21.01405 amu.
 Principal axes and moments of inertia in atomic units:
                           1         2         3
     Eigenvalues --     0.00000   7.84926   7.84926
           X            1.00000  -0.00000   0.00000
           Y            0.00000   1.00000   0.00000
           Z            0.00000   0.00000   1.00000
 This molecule is a prolate symmetric top.
 Rotational symmetry number  1.
 Rotational temperature (Kelvin)     11.03466
 Rotational constant (GHZ):         229.925092
    2 imaginary frequencies ignored.
 Zero-point vibrational energy      87341.6 (Joules/Mol)
                                   20.87513 (Kcal/Mol)
 Vibrational temperatures:   5138.09 15871.46
          (Kelvin)

 Zero-point correction=                           0.033267 (Hartree/Particle)
 Thermal correction to Energy=                    0.035627
 Thermal correction to Enthalpy=                  0.036571
 Thermal correction to Gibbs Free Energy=         0.015198
 Sum of electronic and zero-point Energies=           -100.657345
 Sum of electronic and thermal Energies=              -100.654984
 Sum of electronic and thermal Enthalpies=            -100.654040
 Sum of electronic and thermal Free Energies=         -100.675413

                     E (Thermal)             CV                S
                      KCal/Mol        Cal/Mol-Kelvin    Cal/Mol-Kelvin
 Total                   22.356              4.968             44.984
 Electronic               0.000              0.000              1.377
 Translational            0.889              2.981             35.068
 Rotational               0.592              1.987              8.538
 Vibrational             20.875              0.000              0.000

 Normal termination of Gaussian 16 at Fri Aug 22 15:43:12 2025.
