 Gaussian 16, Revision C.01,
 Gaussian 16:  ES64L-G16RevC.01  3-Jul-2019

 -----------------------------------------
 # sp b3lyp/6-311g** Force nosymm scf=(qc)
 -----------------------------------------

 -------------------
 Title Card Required
 -------------------
 Symbolic Z-matrix:
 Charge =  0 Multiplicity = 2

                          Input orientation:
 ---------------------------------------------------------------------
 Center     Atomic      Atomic             Coordinates (Angstroms)
 Number     Number       Type             X           Y           Z
 ---------------------------------------------------------------------
      1          1           0        0.000000    0.000000    0.000000
      2          1           0       -3.600000    0.000000    0.000000
      3          9           0        3.650000    0.000000    0.000000
 ---------------------------------------------------------------------

 SCF Done:  E(UB3LYP) =  -100.758824863     a.u. after   29 cycles

 Alpha  occ. eigenvalues --  -24.75599  -1.21546  -0.54723  -0.45946  -0.45946
 Alpha  occ. eigenvalues --   -0.32294
 Alpha virt. eigenvalues --   -0.06682   0.24256   0.37352   0.87178   0.91348
 Alpha virt. eigenvalues --    0.91348   1.01489   1.25207   1.25207   1.25312
 Alpha virt. eigenvalues --    1.45578   1.45686   1.45686   2.14923   2.41509

  Beta  occ. eigenvalues --  -24.72471  -1.12556  -0.42810  -0.42810  -0.32664
  Beta virt. eigenvalues --   -0.25591  -0.06303   0.24036   0.38050   0.92842
  Beta virt. eigenvalues --    0.92842   0.96408   1.05547   1.24790   1.24790
  Beta virt. eigenvalues --    1.24877   1.46096   1.46308   1.46308   2.15029

 Mulliken charges and spin densities:
               1          2
     1  H    0.007445  -0.990018
     2  H    0.000102   0.998338
     3  F   -0.007547   0.991680
 Sum of Mulliken charges =  -0.00000   1.00000

 Dipole moment (field-independent basis, Debye):
    X=             -0.1437    Y=              0.0000    Z=             -0.0000  Tot=              0.1437
 Quadrupole moment (field-independent basis, Debye-Ang):
   XX=             -7.2068   YY=             -7.6215   ZZ=             -7.6215
   XY=             -0.0000   XZ=              0.0000   YZ=             -0.0000

  Exact polarizability:      19.309       0.000       1.994      -0.000       0.000       1.994
 Approx polarizability:      14.573      -0.000       1.935       0.000      -0.000       1.935

 ******    2 imaginary frequencies (negative Signs) ******

                      1                      2                      3
                      A                      A                      A
 Frequencies --   -210.0664               -89.3681                90.1494
 Red. masses --      1.0247                 1.0888                 1.0178
 Frc consts  --      0.0266                 0.0051                 0.0049
 IR Inten    --      5.6972                 0.8631                 0.0904

                      4
                      A
 Frequencies --     90.1534
 Red. masses --      1.0178
 Frc consts  --      0.0049
 IR Inten    --      0.0904

 - Thermochemistry -
 -------------------
 Temperature   298.150 Kelvin.  Pressure   1.00000 Atm.
 Atom     1 has atomic number  1 and mass   1.00783

 Molecular mass:    21.01405 amu.
 Principal axes and moments of inertia in atomic units:
                           1         2         3
     Eigenvalues --     0.00000 216.61325 216.61325
           X            1.00000  -0.00000   0.00000
           Y            0.00000   1.00000   0.00000
           Z            0.00000   0.00000   1.00000
 This molecule is a prolate symmetric top.
 Rotational symmetry number  1.
 Rotational temperature (Kelvin)      0.39986
 Rotational constant (GHZ):           8.331629
    2 imaginary frequencies ignored.
 Zero-point vibrational energy       1078.5 (Joules/Mol)
                                    0.25776 (Kcal/Mol)
 Warning -- explicit consideration of   2 degrees of freedom as
           vibrations may cause significant error
 Vibrational temperatures:    129.70   129.71
          (Kelvin)

 Zero-point correction=                           0.000411 (Hartree/Particle)
 Thermal correction to Energy=                    0.004279
 Thermal correction to Enthalpy=                  0.005223
 Thermal correction to Gibbs Free Energy=        -0.022758
 Sum of electronic and zero-point Energies=           -100.758414
 Sum of electronic and thermal Energies=              -100.754546
 Sum of electronic and thermal Enthalpies=            -100.753602
 Sum of electronic and thermal Free Energies=         -100.781583

                     E (Thermal)             CV                S
                      KCal/Mol        Cal/Mol-Kelvin    Cal/Mol-Kelvin
 Total                    2.685              8.880             58.890
 Electronic               0.000              0.000              1.377
 Translational            0.889              2.981             35.068
 Rotational               0.592              1.987             15.131
 Vibrational              1.204              3.912              7.314
 Vibration     1          0.602              1.956              3.657
 Vibration     2          0.602              1.956              3.657

 Normal termination of Gaussian 16 at Fri Aug 22 23:38:16 2025.
