 Gaussian 16, Revision C.01,
 Gaussian 16:  ES64L-G16RevC.01  3-Jul-2019

 -----------------------------------------
 # sp b3lyp/6-311g** Force nosymm scf=(qc)
 -----------------------------------------

 -------------------
 Title Card Required
 -------------------
 Symbolic Z-matrix:
 Charge =  0 Multiplicity = 2

                          Input orientation:
 ---------------------------------------------------------------------
 Center     Atomic      Atomic             Coordinates (Angstroms)
 Number     Number       Type             X           Y           Z
 ---------------------------------------------------------------------
      1          1           0        0.000000    0.000000    0.000000
      2          1           0       -2.800000    0.000000    0.000000
      3          9           0        2.400000    0.000000    0.000000
 ---------------------------------------------------------------------

 SCF Done:  E(UB3LYP) =  -100.771416369     a.u. after   15 cycles

 Alpha  occ. eigenvalues --  -24.71129  -1.17374  -0.50218  -0.42195  -0.42195
 Alpha  occ. eigenvalues --   -0.33535
 Alpha virt. eigenvalues --   -0.11679   0.24253   0.33638   0.89574   0.93933
 Alpha virt. eigenvalues --    0.93933   1.06605   1.24036   1.24036   1.25614
 Alpha virt. eigenvalues --    1.38773   1.38773   1.45447   2.14994   2.33522

  Beta  occ. eigenvalues --  -24.68346  -1.09472  -0.39425  -0.39425  -0.35763
  Beta virt. eigenvalues --   -0.22953  -0.08546   0.25046   0.35945   0.95240
  Beta virt. eigenvalues --    0.95240   0.95301   1.08929   1.21920   1.21920
  Beta virt. eigenvalues --    1.33065   1.43502   1.43502   1.44103   2.13741

 Mulliken charges and spin densities:
               1          2
     1  H    0.099416  -0.865544
     2  H    0.005926   0.987121
     3  F   -0.105342   0.878423
 Sum of Mulliken charges =  -0.00000   1.00000

 Dipole moment (field-independent basis, Debye):
    X=             -1.3602    Y=             -0.0000    Z=              0.0000  Tot=              1.3602
 Quadrupole moment (field-independent basis, Debye-Ang):
   XX=             -9.2180   YY=             -7.5793   ZZ=             -7.5793
   XY=             -0.0000   XZ=             -0.0000   YZ=              0.0000

  Exact polarizability:      36.267      -0.000       2.023      -0.000      -0.000       2.023
 Approx polarizability:      43.033      -0.000       1.920      -0.000       0.000       1.920

 ******    2 imaginary frequencies (negative Signs) ******

                      1                      2                      3
                      A                      A                      A
 Frequencies --   -749.5429              -270.6101               301.0490
 Red. masses --      1.0401                 1.0720                 1.0199
 Frc consts  --      0.3443                 0.0463                 0.0545
 IR Inten    --     78.7671                 7.1950                 8.7667

                      4
                      A
 Frequencies --    301.0490
 Red. masses --      1.0199
 Frc consts  --      0.0545
 IR Inten    --      8.7667

 - Thermochemistry -
 -------------------
 Temperature   298.150 Kelvin.  Pressure   1.00000 Atm.
 Atom     1 has atomic number  1 and mass   1.00783

 Molecular mass:    21.01405 amu.
 Principal axes and moments of inertia in atomic units:
                           1         2         3
     Eigenvalues --     0.00000 108.07770 108.07770
           X            1.00000  -0.00000   0.00000
           Y            0.00000   1.00000   0.00000
           Z            0.00000   0.00000   1.00000
 This molecule is a prolate symmetric top.
 Rotational symmetry number  1.
 Rotational temperature (Kelvin)      0.80140
 Rotational constant (GHZ):          16.698552
    2 imaginary frequencies ignored.
 Zero-point vibrational energy       3601.3 (Joules/Mol)
                                    0.86074 (Kcal/Mol)
 Warning -- explicit consideration of   2 degrees of freedom as
           vibrations may cause significant error
 Vibrational temperatures:    433.14   433.14
          (Kelvin)

 Zero-point correction=                           0.001372 (Hartree/Particle)
 Thermal correction to Energy=                    0.004570
 Thermal correction to Enthalpy=                  0.005514
 Thermal correction to Gibbs Free Energy=        -0.019676
 Sum of electronic and zero-point Energies=           -100.770045
 Sum of electronic and thermal Energies=              -100.766847
 Sum of electronic and thermal Enthalpies=            -100.765902
 Sum of electronic and thermal Free Energies=         -100.791092

                     E (Thermal)             CV                S
                      KCal/Mol        Cal/Mol-Kelvin    Cal/Mol-Kelvin
 Total                    2.868              8.311             53.017
 Electronic               0.000              0.000              1.377
 Translational            0.889              2.981             35.068
 Rotational               0.592              1.987             13.749
 Vibrational              1.386              3.343              2.822
 Vibration     1          0.693              1.672              1.411
 Vibration     2          0.693              1.672              1.411

 Normal termination of Gaussian 16 at Fri Aug 22 17:32:55 2025.
