 Gaussian 16, Revision C.01,
 Gaussian 16:  ES64L-G16RevC.01  3-Jul-2019

 -----------------------------------------
 # sp b3lyp/6-311g** Force nosymm scf=(qc)
 -----------------------------------------

 -------------------
 Title Card Required
 -------------------
 Symbolic Z-matrix:
 Charge =  0 Multiplicity = 2

                          Input orientation:
 ---------------------------------------------------------------------
 Center     Atomic      Atomic             Coordinates (Angstroms)
 Number     Number       Type             X           Y           Z
 ---------------------------------------------------------------------
      1          1           0        0.000000    0.000000    0.000000
      2          1           0       -3.700000    0.000000    0.000000
      3          9           0        3.900000    0.000000    0.000000
 ---------------------------------------------------------------------

 SCF Done:  E(UB3LYP) =  -100.758544008     a.u. after   34 cycles

 Alpha  occ. eigenvalues --  -24.75824  -1.21755  -0.54949  -0.46136  -0.46136
 Alpha  occ. eigenvalues --   -0.32250
 Alpha virt. eigenvalues --   -0.06377   0.24245   0.37769   0.86690   0.91206
 Alpha virt. eigenvalues --    0.91206   1.01160   1.25249   1.25249   1.25321
 Alpha virt. eigenvalues --    1.45907   1.46107   1.46107   2.14841   2.41744

  Beta  occ. eigenvalues --  -24.72682  -1.12721  -0.42986  -0.42986  -0.32482
  Beta virt. eigenvalues --   -0.25703  -0.06144   0.24072   0.38145   0.92704
  Beta virt. eigenvalues --    0.92704   0.96037   1.05274   1.24995   1.24995
  Beta virt. eigenvalues --    1.25052   1.46288   1.46469   1.46469   2.14838

 Mulliken charges and spin densities:
               1          2
     1  H    0.003369  -0.994899
     2  H    0.000047   0.998688
     3  F   -0.003416   0.996211
 Sum of Mulliken charges =  -0.00000   1.00000

 Dipole moment (field-independent basis, Debye):
    X=             -0.0698    Y=             -0.0000    Z=              0.0000  Tot=              0.0698
 Quadrupole moment (field-independent basis, Debye-Ang):
   XX=             -6.9771   YY=             -7.6212   ZZ=             -7.6212
   XY=             -0.0000   XZ=              0.0000   YZ=             -0.0000

  Exact polarizability:      12.547      -0.000       2.033       0.000      -0.000       2.033
 Approx polarizability:       9.277      -0.000       1.937       0.000      -0.000       1.937

 ******    2 imaginary frequencies (negative Signs) ******

                      1                      2                      3
                      A                      A                      A
 Frequencies --   -166.5448               -69.2800                54.5518
 Red. masses --      1.0161                 1.0986                 1.0173
 Frc consts  --      0.0166                 0.0031                 0.0018
 IR Inten    --      1.5348                 0.4728                 0.0110

                      4
                      A
 Frequencies --     54.5518
 Red. masses --      1.0173
 Frc consts  --      0.0018
 IR Inten    --      0.0110

 - Thermochemistry -
 -------------------
 Temperature   298.150 Kelvin.  Pressure   1.00000 Atm.
 Atom     1 has atomic number  1 and mass   1.00783

 Molecular mass:    21.01405 amu.
 Principal axes and moments of inertia in atomic units:
                           1         2         3
     Eigenvalues --     0.00000 239.79239 239.79239
           X            1.00000  -0.00000   0.00000
           Y            0.00000   1.00000   0.00000
           Z            0.00000   0.00000   1.00000
 This molecule is a prolate symmetric top.
 Rotational symmetry number  1.
 Rotational temperature (Kelvin)      0.36120
 Rotational constant (GHZ):           7.526266
    2 imaginary frequencies ignored.
 Zero-point vibrational energy        652.6 (Joules/Mol)
                                    0.15597 (Kcal/Mol)
 Warning -- explicit consideration of   2 degrees of freedom as
           vibrations may cause significant error
 Vibrational temperatures:     78.49    78.49
          (Kelvin)

 Zero-point correction=                           0.000249 (Hartree/Particle)
 Thermal correction to Energy=                    0.004260
 Thermal correction to Enthalpy=                  0.005204
 Thermal correction to Gibbs Free Energy=        -0.023812
 Sum of electronic and zero-point Energies=           -100.758295
 Sum of electronic and thermal Energies=              -100.754284
 Sum of electronic and thermal Enthalpies=            -100.753340
 Sum of electronic and thermal Free Energies=         -100.782356

                     E (Thermal)             CV                S
                      KCal/Mol        Cal/Mol-Kelvin    Cal/Mol-Kelvin
 Total                    2.673              8.920             61.069
 Electronic               0.000              0.000              1.377
 Translational            0.889              2.981             35.068
 Rotational               0.592              1.987             15.333
 Vibrational              1.192              3.952              9.290
 Vibration     1          0.596              1.976              4.645
 Vibration     2          0.596              1.976              4.645

 Normal termination of Gaussian 16 at Sat Aug 23 01:27:39 2025.
