 Gaussian 16, Revision C.01,
 Gaussian 16:  ES64L-G16RevC.01  3-Jul-2019

 -----------------------------------------
 # sp b3lyp/6-311g** Force nosymm scf=(qc)
 -----------------------------------------

 -------------------
 Title Card Required
 -------------------
 Symbolic Z-matrix:
 Charge =  0 Multiplicity = 2

                          Input orientation:
 ---------------------------------------------------------------------
 Center     Atomic      Atomic             Coordinates (Angstroms)
 Number     Number       Type             X           Y           Z
 ---------------------------------------------------------------------
      1          1           0        0.000000    0.000000    0.000000
      2          1           0       -2.300000    0.000000    0.000000
      3          9           0        3.650000    0.000000    0.000000
 ---------------------------------------------------------------------

 SCF Done:  E(UB3LYP) =  -100.765607397     a.u. after   31 cycles

 Alpha  occ. eigenvalues --  -24.75687  -1.21628  -0.54810  -0.46022  -0.46022
 Alpha  occ. eigenvalues --   -0.32747
 Alpha virt. eigenvalues --   -0.10050   0.25894   0.33817   0.87164   0.91286
 Alpha virt. eigenvalues --    0.91286   1.01434   1.25019   1.25019   1.25331
 Alpha virt. eigenvalues --    1.40142   1.40142   1.44042   2.14843   2.35633

  Beta  occ. eigenvalues --  -24.72556  -1.12628  -0.42883  -0.42883  -0.32913
  Beta virt. eigenvalues --   -0.25657  -0.09747   0.25723   0.34281   0.92781
  Beta virt. eigenvalues --    0.92781   0.96426   1.05517   1.24822   1.24822
  Beta virt. eigenvalues --    1.25133   1.40591   1.40591   1.44448   2.15233

 Mulliken charges and spin densities:
               1          2
     1  H    0.003791  -0.937561
     2  H    0.002637   0.944897
     3  F   -0.006428   0.992664
 Sum of Mulliken charges =   0.00000   1.00000

 Dipole moment (field-independent basis, Debye):
    X=             -0.1492    Y=             -0.0000    Z=              0.0000  Tot=              0.1492
 Quadrupole moment (field-independent basis, Debye-Ang):
   XX=             -6.7883   YY=             -7.6869   ZZ=             -7.6869
   XY=             -0.0000   XZ=              0.0000   YZ=             -0.0000

  Exact polarizability:      32.422       0.000       2.012      -0.000       0.000       2.012
 Approx polarizability:      24.788      -0.000       1.930       0.000      -0.000       1.930

 ******    2 imaginary frequencies (negative Signs) ******

                      1                      2                      3
                      A                      A                      A
 Frequencies --   -885.3360              -115.0328               336.5134
 Red. masses --      1.0079                 1.1085                 1.0133
 Frc consts  --      0.4654                 0.0086                 0.0676
 IR Inten    --      3.3954                 3.6038                 0.0074

                      4
                      A
 Frequencies --    336.5134
 Red. masses --      1.0133
 Frc consts  --      0.0676
 IR Inten    --      0.0074

 - Thermochemistry -
 -------------------
 Temperature   298.150 Kelvin.  Pressure   1.00000 Atm.
 Atom     1 has atomic number  1 and mass   1.00783

 Molecular mass:    21.01405 amu.
 Principal axes and moments of inertia in atomic units:
                           1         2         3
     Eigenvalues --     0.00000 159.45424 159.45424
           X            1.00000  -0.00000   0.00000
           Y            0.00000   1.00000   0.00000
           Z            0.00000   0.00000   1.00000
 This molecule is a prolate symmetric top.
 Rotational symmetry number  1.
 Rotational temperature (Kelvin)      0.54319
 Rotational constant (GHZ):          11.318239
    2 imaginary frequencies ignored.
 Zero-point vibrational energy       4025.6 (Joules/Mol)
                                    0.96214 (Kcal/Mol)
 Warning -- explicit consideration of   2 degrees of freedom as
           vibrations may cause significant error
 Vibrational temperatures:    484.17   484.17
          (Kelvin)

 Zero-point correction=                           0.001533 (Hartree/Particle)
 Thermal correction to Energy=                    0.004647
 Thermal correction to Enthalpy=                  0.005591
 Thermal correction to Gibbs Free Energy=        -0.019793
 Sum of electronic and zero-point Energies=           -100.764074
 Sum of electronic and thermal Energies=              -100.760961
 Sum of electronic and thermal Enthalpies=            -100.760017
 Sum of electronic and thermal Free Energies=         -100.785400

                     E (Thermal)             CV                S
                      KCal/Mol        Cal/Mol-Kelvin    Cal/Mol-Kelvin
 Total                    2.916              8.173             53.425
 Electronic               0.000              0.000              1.377
 Translational            0.889              2.981             35.068
 Rotational               0.592              1.987             14.522
 Vibrational              1.435              3.205              2.457
 Vibration     1          0.717              1.603              1.229
 Vibration     2          0.717              1.603              1.229

 Normal termination of Gaussian 16 at Fri Aug 22 23:36:14 2025.
