 Gaussian 16, Revision C.01,
 Gaussian 16:  ES64L-G16RevC.01  3-Jul-2019

 -----------------------------------------
 # sp b3lyp/6-311g** Force nosymm scf=(qc)
 -----------------------------------------

 -------------------
 Title Card Required
 -------------------
 Symbolic Z-matrix:
 Charge =  0 Multiplicity = 2

                          Input orientation:
 ---------------------------------------------------------------------
 Center     Atomic      Atomic             Coordinates (Angstroms)
 Number     Number       Type             X           Y           Z
 ---------------------------------------------------------------------
      1          1           0        0.000000    0.000000    0.000000
      2          1           0       -1.350000    0.000000    0.000000
      3          9           0        2.550000    0.000000    0.000000
 ---------------------------------------------------------------------

 SCF Done:  E(UB3LYP) =  -100.846633638     a.u. after   20 cycles

 Alpha  occ. eigenvalues --  -24.74604  -1.20638  -0.53805  -0.45137  -0.45137
 Alpha  occ. eigenvalues --   -0.36310
 Alpha virt. eigenvalues --   -0.08022   0.23304   0.32310   0.89423   0.91837
 Alpha virt. eigenvalues --    0.91837   1.06569   1.14933   1.15107   1.15107
 Alpha virt. eigenvalues --    1.45746   1.45746   1.92943   2.25732   2.51474

  Beta  occ. eigenvalues --  -24.71576  -1.11966  -0.42108  -0.42108  -0.35985
  Beta virt. eigenvalues --   -0.25573  -0.07385   0.23757   0.32786   0.93277
  Beta virt. eigenvalues --    0.93277   0.97309   1.09207   1.15523   1.15523
  Beta virt. eigenvalues --    1.17410   1.46103   1.46103   1.93440   2.26345

 Mulliken charges and spin densities:
               1          2
     1  H    0.003668  -0.094706
     2  H    0.029479   0.137185
     3  F   -0.033147   0.957521
 Sum of Mulliken charges =  -0.00000   1.00000

 Dipole moment (field-independent basis, Debye):
    X=             -0.6158    Y=             -0.0000    Z=              0.0000  Tot=              0.6158
 Quadrupole moment (field-independent basis, Debye-Ang):
   XX=             -6.3010   YY=             -7.5973   ZZ=             -7.5973
   XY=             -0.0000   XZ=              0.0000   YZ=              0.0000

  Exact polarizability:      47.135      -0.000       2.127       0.000       0.000       2.127
 Approx polarizability:      63.084      -0.000       2.081      -0.000      -0.000       2.081

 ******    2 imaginary frequencies (negative Signs) ******

                      1                      2                      3
                      A                      A                      A
 Frequencies --  -1389.1240              -230.5090              1303.4043
 Red. masses --      1.0090                 1.1071                 1.0121
 Frc consts  --      1.1472                 0.0347                 1.0130
 IR Inten    --    472.0535                15.0722                 0.0006

                      4
                      A
 Frequencies --   1303.4045
 Red. masses --      1.0121
 Frc consts  --      1.0130
 IR Inten    --      0.0006

 - Thermochemistry -
 -------------------
 Temperature   298.150 Kelvin.  Pressure   1.00000 Atm.
 Atom     1 has atomic number  1 and mass   1.00783

 Molecular mass:    21.01405 amu.
 Principal axes and moments of inertia in atomic units:
                           1         2         3
     Eigenvalues --     0.00000  70.96259  70.96259
           X            1.00000  -0.00000   0.00000
           Y            0.00000   1.00000   0.00000
           Z            0.00000   0.00000   1.00000
 This molecule is a prolate symmetric top.
 Rotational symmetry number  1.
 Rotational temperature (Kelvin)      1.22056
 Rotational constant (GHZ):          25.432289
    2 imaginary frequencies ignored.
 Zero-point vibrational energy      15592.2 (Joules/Mol)
                                    3.72662 (Kcal/Mol)
 Vibrational temperatures:   1875.31  1875.31
          (Kelvin)

 Zero-point correction=                           0.005939 (Hartree/Particle)
 Thermal correction to Energy=                    0.008321
 Thermal correction to Enthalpy=                  0.009265
 Thermal correction to Gibbs Free Energy=        -0.014212
 Sum of electronic and zero-point Energies=           -100.840695
 Sum of electronic and thermal Energies=              -100.838312
 Sum of electronic and thermal Enthalpies=            -100.837368
 Sum of electronic and thermal Free Energies=         -100.860846

                     E (Thermal)             CV                S
                      KCal/Mol        Cal/Mol-Kelvin    Cal/Mol-Kelvin
 Total                    5.222              5.261             49.413
 Electronic               0.000              0.000              1.377
 Translational            0.889              2.981             35.068
 Rotational               0.592              1.987             12.913
 Vibrational              3.740              0.293              0.054

 Normal termination of Gaussian 16 at Fri Aug 22 17:53:05 2025.
