 Gaussian 16, Revision C.01,
 Gaussian 16:  ES64L-G16RevC.01  3-Jul-2019

 -----------------------------------------
 # sp b3lyp/6-311g** Force nosymm scf=(qc)
 -----------------------------------------

 -------------------
 Title Card Required
 -------------------
 Symbolic Z-matrix:
 Charge =  0 Multiplicity = 2

                          Input orientation:
 ---------------------------------------------------------------------
 Center     Atomic      Atomic             Coordinates (Angstroms)
 Number     Number       Type             X           Y           Z
 ---------------------------------------------------------------------
      1          1           0        0.000000    0.000000    0.000000
      2          1           0       -1.350000    0.000000    0.000000
      3          9           0        4.000000    0.000000    0.000000
 ---------------------------------------------------------------------

 SCF Done:  E(UB3LYP) =  -100.844880671     a.u. after   97 cycles

 Alpha  occ. eigenvalues --  -24.76207  -1.22112  -0.55315  -0.46488  -0.46472
 Alpha  occ. eigenvalues --   -0.34834
 Alpha virt. eigenvalues --   -0.07189   0.23903   0.32011   0.86049   0.90926
 Alpha virt. eigenvalues --    0.91248   1.00851   1.12974   1.16630   1.16631
 Alpha virt. eigenvalues --    1.47198   1.47199   1.93972   2.26989   2.51143

  Beta  occ. eigenvalues --  -24.73052  -1.13038  -0.43325  -0.43309  -0.34833
  Beta virt. eigenvalues --   -0.25966  -0.07188   0.23905   0.32019   0.92427
  Beta virt. eigenvalues --    0.92743   0.95515   1.05002   1.12977   1.16630
  Beta virt. eigenvalues --    1.16631   1.47198   1.47199   1.93973   2.26990

 Mulliken charges and spin densities:
               1          2
     1  H    0.001062  -0.000009
     2  H   -0.001784  -0.000071
     3  F    0.000722   1.000080
 Sum of Mulliken charges =   0.00000   1.00000

 Dipole moment (field-independent basis, Debye):
    X=              0.0196    Y=              0.0000    Z=             -0.0000  Tot=              0.0196
 Quadrupole moment (field-independent basis, Debye-Ang):
   XX=             -6.3352   YY=             -7.2049   ZZ=             -7.2045
   XY=             -0.0000   XZ=              0.0000   YZ=             -0.4323

  Exact polarizability:      19.006      -0.000       2.299       0.000      -0.233       2.299
 Approx polarizability:      32.395      -0.000       2.366       0.000      -0.291       2.367

 ******    2 imaginary frequencies (negative Signs) ******

                      1                      2                      3
                      A                      A                      A
 Frequencies --  -1088.3792               -61.9816              1356.2119
 Red. masses --      1.0078                 1.1085                 1.0099
 Frc consts  --      0.7034                 0.0025                 1.0944
 IR Inten    --      0.0502                 0.0336                 0.0014

                      4
                      A
 Frequencies --   1356.2452
 Red. masses --      1.0099
 Frc consts  --      1.0945
 IR Inten    --      0.0012

 - Thermochemistry -
 -------------------
 Temperature   298.150 Kelvin.  Pressure   1.00000 Atm.
 Atom     1 has atomic number  1 and mass   1.00783

 Molecular mass:    21.01405 amu.
 Principal axes and moments of inertia in atomic units:
                           1         2         3
     Eigenvalues --     0.00000 145.50703 145.50703
           X            1.00000  -0.00000   0.00000
           Y            0.00000   1.00000   0.00000
           Z            0.00000   0.00000   1.00000
 This molecule is a prolate symmetric top.
 Rotational symmetry number  1.
 Rotational temperature (Kelvin)      0.59526
 Rotational constant (GHZ):          12.403120
    2 imaginary frequencies ignored.
 Zero-point vibrational energy      16224.1 (Joules/Mol)
                                    3.87765 (Kcal/Mol)
 Vibrational temperatures:   1951.29  1951.33
          (Kelvin)

 Zero-point correction=                           0.006179 (Hartree/Particle)
 Thermal correction to Energy=                    0.008558
 Thermal correction to Enthalpy=                  0.009502
 Thermal correction to Gibbs Free Energy=        -0.014649
 Sum of electronic and zero-point Energies=           -100.838701
 Sum of electronic and thermal Energies=              -100.836323
 Sum of electronic and thermal Enthalpies=            -100.835379
 Sum of electronic and thermal Free Energies=         -100.859529

                     E (Thermal)             CV                S
                      KCal/Mol        Cal/Mol-Kelvin    Cal/Mol-Kelvin
 Total                    5.370              5.213             50.829
 Electronic               0.000              0.000              1.377
 Translational            0.889              2.981             35.068
 Rotational               0.592              1.987             14.340
 Vibrational              3.889              0.245              0.043

 Normal termination of Gaussian 16 at Sat Aug 23 01:48:02 2025.
