 Gaussian 16, Revision C.01,
 Gaussian 16:  ES64L-G16RevC.01  3-Jul-2019

 -----------------------------------------
 # sp b3lyp/6-311g** Force nosymm scf=(qc)
 -----------------------------------------

 -------------------
 Title Card Required
 -------------------
 Symbolic Z-matrix:
 Charge =  0 Multiplicity = 2

                          Input orientation:
 ---------------------------------------------------------------------
 Center     Atomic      Atomic             Coordinates (Angstroms)
 Number     Number       Type             X           Y           Z
 ---------------------------------------------------------------------
      1          1           0        0.000000    0.000000    0.000000
      2          1           0       -1.100000    0.000000    0.000000
      3          9           0        0.650000    0.000000    0.000000
 ---------------------------------------------------------------------

 SCF Done:  E(UB3LYP) =  -100.770446871     a.u. after    7 cycles

 Alpha  occ. eigenvalues --  -24.64173  -1.33453  -0.63280  -0.43597  -0.43597
 Alpha  occ. eigenvalues --   -0.34766
 Alpha virt. eigenvalues --    0.15916   0.20075   0.68635   0.89786   0.89786
 Alpha virt. eigenvalues --    0.92165   1.10492   1.10492   1.47775   1.65241
 Alpha virt. eigenvalues --    1.65241   1.76815   2.00542   2.36986   3.77244

  Beta  occ. eigenvalues --  -24.63854  -1.32474  -0.61468  -0.43344  -0.43344
  Beta virt. eigenvalues --   -0.12840   0.16753   0.26820   0.74188   0.90815
  Beta virt. eigenvalues --    0.90815   0.92917   1.19343   1.19343   1.48665
  Beta virt. eigenvalues --    1.70986   1.70986   1.84763   2.06931   2.54488

 Mulliken charges and spin densities:
               1          2
     1  H    0.251690   0.002951
     2  H   -0.011858   0.954275
     3  F   -0.239832   0.042773
 Sum of Mulliken charges =   0.00000   1.00000

 Dipole moment (field-independent basis, Debye):
    X=             -1.2767    Y=             -0.0000    Z=              0.0000  Tot=              1.2767
 Quadrupole moment (field-independent basis, Debye-Ang):
   XX=             -7.2332   YY=             -6.4676   ZZ=             -6.4676
   XY=             -0.0000   XZ=              0.0000   YZ=             -0.0000

  Exact polarizability:       7.323      -0.000       2.546       0.000       0.000       2.546
 Approx polarizability:       7.111      -0.000       2.592       0.000       0.000       2.592

 ******    2 imaginary frequencies (negative Signs) ******

                      1                      2                      3
                      A                      A                      A
 Frequencies --  -4502.9924             -4502.9924              1746.6163
 Red. masses --      1.0254                 1.0254                 1.0544
 Frc consts  --     12.2501                12.2501                 1.8951
 IR Inten    --    139.8492               139.8492                53.3761

                      4
                      A
 Frequencies --  10845.3390
 Red. masses --      1.0572
 Frc consts  --     73.2623
 IR Inten    --     82.3236

 - Thermochemistry -
 -------------------
 Temperature   298.150 Kelvin.  Pressure   1.00000 Atm.
 Atom     1 has atomic number  1 and mass   1.00783

 Molecular mass:    21.01405 amu.
 Principal axes and moments of inertia in atomic units:
                           1         2         3
     Eigenvalues --     0.00000  11.54833  11.54833
           X            1.00000  -0.00000   0.00000
           Y            0.00000   1.00000   0.00000
           Z            0.00000   0.00000   1.00000
 This molecule is a prolate symmetric top.
 Rotational symmetry number  1.
 Rotational temperature (Kelvin)      7.50013
 Rotational constant (GHZ):         156.277260
    2 imaginary frequencies ignored.
 Zero-point vibrational energy      75316.6 (Joules/Mol)
                                   18.00110 (Kcal/Mol)
 Vibrational temperatures:   2512.99 15604.02
          (Kelvin)

 Zero-point correction=                           0.028687 (Hartree/Particle)
 Thermal correction to Energy=                    0.031049
 Thermal correction to Enthalpy=                  0.031993
 Thermal correction to Gibbs Free Energy=         0.010253
 Sum of electronic and zero-point Energies=           -100.741760
 Sum of electronic and thermal Energies=              -100.739398
 Sum of electronic and thermal Enthalpies=            -100.738454
 Sum of electronic and thermal Free Energies=         -100.760194

                     E (Thermal)             CV                S
                      KCal/Mol        Cal/Mol-Kelvin    Cal/Mol-Kelvin
 Total                   19.483              4.999             45.755
 Electronic               0.000              0.000              1.377
 Translational            0.889              2.981             35.068
 Rotational               0.592              1.987              9.305
 Vibrational             18.002              0.031              0.004

 Normal termination of Gaussian 16 at Fri Aug 22 15:43:27 2025.
