 Gaussian 16, Revision C.01,
 Gaussian 16:  ES64L-G16RevC.01  3-Jul-2019

 -----------------------------------------
 # sp b3lyp/6-311g** Force nosymm scf=(qc)
 -----------------------------------------

 -------------------
 Title Card Required
 -------------------
 Symbolic Z-matrix:
 Charge =  0 Multiplicity = 2

                          Input orientation:
 ---------------------------------------------------------------------
 Center     Atomic      Atomic             Coordinates (Angstroms)
 Number     Number       Type             X           Y           Z
 ---------------------------------------------------------------------
      1          1           0        0.000000    0.000000    0.000000
      2          1           0       -1.850000    0.000000    0.000000
      3          9           0        2.250000    0.000000    0.000000
 ---------------------------------------------------------------------

 SCF Done:  E(UB3LYP) =  -100.795789541     a.u. after   14 cycles

 Alpha  occ. eigenvalues --  -24.70382  -1.16659  -0.49507  -0.41557  -0.41557
 Alpha  occ. eigenvalues --   -0.35990
 Alpha virt. eigenvalues --   -0.12978   0.24107   0.31455   0.87583   0.94246
 Alpha virt. eigenvalues --    0.94246   1.04034   1.21734   1.21734   1.22690
 Alpha virt. eigenvalues --    1.34303   1.34303   1.57777   2.11763   2.35792

  Beta  occ. eigenvalues --  -24.67684  -1.09021  -0.38877  -0.38877  -0.36090
  Beta virt. eigenvalues --   -0.22921  -0.11856   0.26473   0.30992   0.92102
  Beta virt. eigenvalues --    0.95455   0.95455   1.07530   1.22440   1.22440
  Beta virt. eigenvalues --    1.27885   1.35650   1.35650   1.57795   2.12488

 Mulliken charges and spin densities:
               1          2
     1  H    0.078893  -0.654101
     2  H    0.044017   0.803481
     3  F   -0.122910   0.850620
 Sum of Mulliken charges =   0.00000   1.00000

 Dipole moment (field-independent basis, Debye):
    X=             -1.7852    Y=             -0.0000    Z=              0.0000  Tot=              1.7852
 Quadrupole moment (field-independent basis, Debye-Ang):
   XX=             -8.2038   YY=             -7.6257   ZZ=             -7.6257
   XY=             -0.0000   XZ=              0.0000   YZ=              0.0000

  Exact polarizability:      58.168      -0.000       2.030       0.000      -0.000       2.030
 Approx polarizability:      70.674       0.000       1.955      -0.000       0.000       1.955

 ******    2 imaginary frequencies (negative Signs) ******

                      1                      2                      3
                      A                      A                      A
 Frequencies --  -1689.7692              -480.5069               710.5372
 Red. masses --      1.0103                 1.1056                 1.0157
 Frc consts  --      1.6996                 0.1504                 0.3021
 IR Inten    --    166.3005                50.0555                 2.9218

                      4
                      A
 Frequencies --    710.5372
 Red. masses --      1.0157
 Frc consts  --      0.3021
 IR Inten    --      2.9218

 - Thermochemistry -
 -------------------
 Temperature   298.150 Kelvin.  Pressure   1.00000 Atm.
 Atom     1 has atomic number  1 and mass   1.00783

 Molecular mass:    21.01405 amu.
 Principal axes and moments of inertia in atomic units:
                           1         2         3
     Eigenvalues --     0.00000  71.75937  71.75937
           X            1.00000  -0.00000   0.00000
           Y            0.00000   1.00000   0.00000
           Z            0.00000   0.00000   1.00000
 This molecule is a prolate symmetric top.
 Rotational symmetry number  1.
 Rotational temperature (Kelvin)      1.20701
 Rotational constant (GHZ):          25.149902
    2 imaginary frequencies ignored.
 Zero-point vibrational energy       8499.9 (Joules/Mol)
                                    2.03153 (Kcal/Mol)
 Vibrational temperatures:   1022.30  1022.30
          (Kelvin)

 Zero-point correction=                           0.003237 (Hartree/Particle)
 Thermal correction to Energy=                    0.005815
 Thermal correction to Enthalpy=                  0.006759
 Thermal correction to Gibbs Free Energy=        -0.016983
 Sum of electronic and zero-point Energies=           -100.792552
 Sum of electronic and thermal Energies=              -100.789975
 Sum of electronic and thermal Enthalpies=            -100.789030
 Sum of electronic and thermal Free Energies=         -100.812772

                     E (Thermal)             CV                S
                      KCal/Mol        Cal/Mol-Kelvin    Cal/Mol-Kelvin
 Total                    3.649              6.586             49.969
 Electronic               0.000              0.000              1.377
 Translational            0.889              2.981             35.068
 Rotational               0.592              1.987             12.936
 Vibrational              2.168              1.618              0.588

 Normal termination of Gaussian 16 at Fri Aug 22 17:16:18 2025.
