 Gaussian 16, Revision C.01,
 Gaussian 16:  ES64L-G16RevC.01  3-Jul-2019

 -----------------------------------------
 # sp b3lyp/6-311g** Force nosymm scf=(qc)
 -----------------------------------------

 -------------------
 Title Card Required
 -------------------
 Symbolic Z-matrix:
 Charge =  0 Multiplicity = 2

                          Input orientation:
 ---------------------------------------------------------------------
 Center     Atomic      Atomic             Coordinates (Angstroms)
 Number     Number       Type             X           Y           Z
 ---------------------------------------------------------------------
      1          1           0        0.000000    0.000000    0.000000
      2          1           0       -2.700000    0.000000    0.000000
      3          9           0        2.900000    0.000000    0.000000
 ---------------------------------------------------------------------

 SCF Done:  E(UB3LYP) =  -100.763970201     a.u. after   20 cycles

 Alpha  occ. eigenvalues --  -24.73746  -1.19828  -0.52862  -0.44388  -0.44388
 Alpha  occ. eigenvalues --   -0.32997
 Alpha virt. eigenvalues --   -0.10111   0.25040   0.34063   0.89824   0.92481
 Alpha virt. eigenvalues --    0.92481   1.04561   1.24592   1.24592   1.26235
 Alpha virt. eigenvalues --    1.40729   1.40729   1.41866   2.15581   2.37334

  Beta  occ. eigenvalues --  -24.70744  -1.11232  -0.41385  -0.41385  -0.34033
  Beta virt. eigenvalues --   -0.24590  -0.08584   0.25252   0.35591   0.93933
  Beta virt. eigenvalues --    0.93933   0.98425   1.08355   1.23384   1.23384
  Beta virt. eigenvalues --    1.25198   1.43159   1.43159   1.43843   2.16200

 Mulliken charges and spin densities:
               1          2
     1  H    0.040130  -0.934381
     2  H    0.004007   0.983400
     3  F   -0.044137   0.950981
 Sum of Mulliken charges =  -0.00000   1.00000

 Dipole moment (field-independent basis, Debye):
    X=             -0.7082    Y=              0.0000    Z=             -0.0000  Tot=              0.7082
 Quadrupole moment (field-independent basis, Debye-Ang):
   XX=             -8.2586   YY=             -7.6319   ZZ=             -7.6319
   XY=              0.0000   XZ=             -0.0000   YZ=             -0.0000

  Exact polarizability:      39.922       0.000       2.017      -0.000       0.000       2.017
 Approx polarizability:      38.907       0.000       1.921      -0.000      -0.000       1.921

 ******    2 imaginary frequencies (negative Signs) ******

                      1                      2                      3
                      A                      A                      A
 Frequencies --   -582.1527              -237.8741               219.0899
 Red. masses --      1.0160                 1.0988                 1.0171
 Frc consts  --      0.2029                 0.0366                 0.0288
 IR Inten    --     33.4766                14.4303                 1.3603

                      4
                      A
 Frequencies --    219.0899
 Red. masses --      1.0171
 Frc consts  --      0.0288
 IR Inten    --      1.3603

 - Thermochemistry -
 -------------------
 Temperature   298.150 Kelvin.  Pressure   1.00000 Atm.
 Atom     1 has atomic number  1 and mass   1.00783

 Molecular mass:    21.01405 amu.
 Principal axes and moments of inertia in atomic units:
                           1         2         3
     Eigenvalues --     0.00000 130.66172 130.66172
           X            1.00000  -0.00000   0.00000
           Y            0.00000   1.00000   0.00000
           Z            0.00000   0.00000   1.00000
 This molecule is a prolate symmetric top.
 Rotational symmetry number  1.
 Rotational temperature (Kelvin)      0.66289
 Rotational constant (GHZ):          13.812318
    2 imaginary frequencies ignored.
 Zero-point vibrational energy       2620.9 (Joules/Mol)
                                    0.62641 (Kcal/Mol)
 Warning -- explicit consideration of   2 degrees of freedom as
           vibrations may cause significant error
 Vibrational temperatures:    315.22   315.22
          (Kelvin)

 Zero-point correction=                           0.000998 (Hartree/Particle)
 Thermal correction to Energy=                    0.004422
 Thermal correction to Enthalpy=                  0.005366
 Thermal correction to Gibbs Free Energy=        -0.020531
 Sum of electronic and zero-point Energies=           -100.762972
 Sum of electronic and thermal Energies=              -100.759549
 Sum of electronic and thermal Enthalpies=            -100.758604
 Sum of electronic and thermal Free Energies=         -100.784502

                     E (Thermal)             CV                S
                      KCal/Mol        Cal/Mol-Kelvin    Cal/Mol-Kelvin
 Total                    2.775              8.592             54.505
 Electronic               0.000              0.000              1.377
 Translational            0.889              2.981             35.068
 Rotational               0.592              1.987             14.127
 Vibrational              1.293              3.624              3.933
 Vibration     1          0.647              1.812              1.967
 Vibration     2          0.647              1.812              1.967

 Normal termination of Gaussian 16 at Fri Aug 22 19:03:57 2025.
