 Gaussian 16, Revision C.01,
 Gaussian 16:  ES64L-G16RevC.01  3-Jul-2019

 -----------------------------------------
 # sp b3lyp/6-311g** Force nosymm scf=(qc)
 -----------------------------------------

 -------------------
 Title Card Required
 -------------------
 Symbolic Z-matrix:
 Charge =  0 Multiplicity = 2

                          Input orientation:
 ---------------------------------------------------------------------
 Center     Atomic      Atomic             Coordinates (Angstroms)
 Number     Number       Type             X           Y           Z
 ---------------------------------------------------------------------
      1          1           0        0.000000    0.000000    0.000000
      2          1           0       -0.900000    0.000000    0.000000
      3          9           0        3.100000    0.000000    0.000000
 ---------------------------------------------------------------------

 SCF Done:  E(UB3LYP) =  -100.922426108     a.u. after   75 cycles

 Alpha  occ. eigenvalues --  -24.76578  -1.22400  -0.55593  -0.46831  -0.46744
 Alpha  occ. eigenvalues --   -0.40282
 Alpha virt. eigenvalues --    0.02831   0.20877   0.41783   0.85857   0.90730
 Alpha virt. eigenvalues --    0.93594   1.04110   1.08481   1.08486   1.45651
 Alpha virt. eigenvalues --    1.72371   1.72377   2.19042   2.38091   2.74309

  Beta  occ. eigenvalues --  -24.73418  -1.13315  -0.43688  -0.43575  -0.40253
  Beta virt. eigenvalues --   -0.26220   0.02858   0.20899   0.41866   0.92229
  Beta virt. eigenvalues --    0.95299   0.95316   1.07933   1.08480   1.08486
  Beta virt. eigenvalues --    1.45661   1.72370   1.72376   2.19062   2.38097

 Mulliken charges and spin densities:
               1          2
     1  H   -0.003284  -0.000762
     2  H   -0.004343  -0.000210
     3  F    0.007628   1.000973
 Sum of Mulliken charges =   0.00000   1.00000

 Dipole moment (field-independent basis, Debye):
    X=              0.0856    Y=              0.0000    Z=             -0.0000  Tot=              0.0856
 Quadrupole moment (field-independent basis, Debye-Ang):
   XX=             -6.1355   YY=             -6.4874   ZZ=             -6.9631
   XY=              0.0000   XZ=             -0.0000   YZ=             -0.3604

  Exact polarizability:      10.819      -0.000       2.387       0.000      -0.192       2.133
 Approx polarizability:      13.289       0.000       2.542      -0.000      -0.242       2.223

                      1                      2                      3
                      A                      A                      A
 Frequencies --     47.9810              1455.0317              1456.0034
 Red. masses --      1.1085                 1.0094                 1.0094
 Frc consts  --      0.0015                 1.2591                 1.2608
 IR Inten    --      0.2918                 0.0012                 0.0009

                      4
                      A
 Frequencies --   2643.4603
 Red. masses --      1.0078
 Frc consts  --      4.1494
 IR Inten    --      0.4227

 - Thermochemistry -
 -------------------
 Temperature   298.150 Kelvin.  Pressure   1.00000 Atm.
 Atom     1 has atomic number  1 and mass   1.00783

 Molecular mass:    21.01405 amu.
 Principal axes and moments of inertia in atomic units:
                           1         2         3
     Eigenvalues --     0.00000  83.46949  83.46949
           X            1.00000  -0.00000   0.00000
           Y            0.00000   1.00000   0.00000
           Z            0.00000   0.00000   1.00000
 This molecule is a prolate symmetric top.
 Rotational symmetry number  1.
 Rotational temperature (Kelvin)      1.03767
 Rotational constant (GHZ):          21.621566
 Zero-point vibrational energy      33510.3 (Joules/Mol)
                                    8.00914 (Kcal/Mol)
 Warning -- explicit consideration of   1 degrees of freedom as
           vibrations may cause significant error
 Vibrational temperatures:     69.03  2093.47  2094.86  3803.35
          (Kelvin)

 Zero-point correction=                           0.012763 (Hartree/Particle)
 Thermal correction to Energy=                    0.015975
 Thermal correction to Enthalpy=                  0.016919
 Thermal correction to Gibbs Free Energy=        -0.009027
 Sum of electronic and zero-point Energies=           -100.909663
 Sum of electronic and thermal Energies=              -100.906451
 Sum of electronic and thermal Enthalpies=            -100.905507
 Sum of electronic and thermal Free Energies=         -100.931454

                     E (Thermal)             CV                S
                      KCal/Mol        Cal/Mol-Kelvin    Cal/Mol-Kelvin
 Total                   10.024              7.122             54.609
 Electronic               0.000              0.000              1.377
 Translational            0.889              2.981             35.068
 Rotational               0.592              1.987             13.236
 Vibrational              8.543              2.154              4.927
 Vibration     1          0.595              1.978              4.899

 Normal termination of Gaussian 16 at Fri Aug 22 19:47:53 2025.
