 Gaussian 16, Revision C.01,
 Gaussian 16:  ES64L-G16RevC.01  3-Jul-2019

 -----------------------------------------
 # sp b3lyp/6-311g** Force nosymm scf=(qc)
 -----------------------------------------

 -------------------
 Title Card Required
 -------------------
 Symbolic Z-matrix:
 Charge =  0 Multiplicity = 2

                          Input orientation:
 ---------------------------------------------------------------------
 Center     Atomic      Atomic             Coordinates (Angstroms)
 Number     Number       Type             X           Y           Z
 ---------------------------------------------------------------------
      1          1           0        0.000000    0.000000    0.000000
      2          1           0       -2.650000    0.000000    0.000000
      3          9           0        1.200000    0.000000    0.000000
 ---------------------------------------------------------------------

 SCF Done:  E(UB3LYP) =  -100.926063365     a.u. after    6 cycles

 Alpha  occ. eigenvalues --  -24.64202  -1.12161  -0.47693  -0.37403  -0.37403
 Alpha  occ. eigenvalues --   -0.35003
 Alpha virt. eigenvalues --   -0.05115   0.24271   0.28470   0.93298   0.93298
 Alpha virt. eigenvalues --    1.00888   1.21526   1.22533   1.22533   1.30391
 Alpha virt. eigenvalues --    1.34772   1.34772   1.73887   2.13760   2.29328

  Beta  occ. eigenvalues --  -24.64171  -1.12080  -0.47567  -0.37374  -0.37374
  Beta virt. eigenvalues --   -0.10789  -0.02735   0.28115   0.36856   0.93297
  Beta virt. eigenvalues --    0.93297   1.00958   1.27330   1.34703   1.34703
  Beta virt. eigenvalues --    1.44250   1.44250   1.45371   1.74216   2.29155

 Mulliken charges and spin densities:
               1          2
     1  H    0.347889  -0.000328
     2  H    0.007792   0.990400
     3  F   -0.355681   0.009928
 Sum of Mulliken charges =  -0.00000   1.00000

 Dipole moment (field-independent basis, Debye):
    X=             -2.3850    Y=             -0.0000    Z=             -0.0000  Tot=              2.3850
 Quadrupole moment (field-independent basis, Debye-Ang):
   XX=             -8.6065   YY=             -7.1253   ZZ=             -7.1253
   XY=             -0.0000   XZ=             -0.0000   YZ=             -0.0000

  Exact polarizability:      12.037       0.000       2.341       0.000       0.000       2.341
 Approx polarizability:      15.718      -0.000       2.299      -0.000       0.000       2.299

 ******    1 imaginary frequencies (negative Signs) ******

                      1                      2                      3
                      A                      A                      A
 Frequencies --   -154.1513               962.1382              1185.5664
 Red. masses --      1.0482                 1.0634                 1.0297
 Frc consts  --      0.0147                 0.5800                 0.8527
 IR Inten    --      3.1892               105.4401               134.6028

                      4
                      A
 Frequencies --   1185.5664
 Red. masses --      1.0297
 Frc consts  --      0.8527
 IR Inten    --    134.6028

 - Thermochemistry -
 -------------------
 Temperature   298.150 Kelvin.  Pressure   1.00000 Atm.
 Atom     1 has atomic number  1 and mass   1.00783

 Molecular mass:    21.01405 amu.
 Principal axes and moments of inertia in atomic units:
                           1         2         3
     Eigenvalues --     0.00000  54.12697  54.12697
           X            1.00000  -0.00000   0.00000
           Y            0.00000   1.00000   0.00000
           Z            0.00000   0.00000   1.00000
 This molecule is a prolate symmetric top.
 Rotational symmetry number  1.
 Rotational temperature (Kelvin)      1.60020
 Rotational constant (GHZ):          33.342736
    1 imaginary frequencies ignored.
 Zero-point vibrational energy      19937.4 (Joules/Mol)
                                    4.76515 (Kcal/Mol)
 Vibrational temperatures:   1384.30  1705.77  1705.77
          (Kelvin)

 Zero-point correction=                           0.007594 (Hartree/Particle)
 Thermal correction to Energy=                    0.010032
 Thermal correction to Enthalpy=                  0.010977
 Thermal correction to Gibbs Free Energy=        -0.012313
 Sum of electronic and zero-point Energies=           -100.918470
 Sum of electronic and thermal Energies=              -100.916031
 Sum of electronic and thermal Enthalpies=            -100.915087
 Sum of electronic and thermal Free Energies=         -100.938377

                     E (Thermal)             CV                S
                      KCal/Mol        Cal/Mol-Kelvin    Cal/Mol-Kelvin
 Total                    6.295              5.818             49.017
 Electronic               0.000              0.000              1.377
 Translational            0.889              2.981             35.068
 Rotational               0.592              1.987             12.375
 Vibrational              4.814              0.850              0.197

 Normal termination of Gaussian 16 at Fri Aug 22 16:10:35 2025.
