 Gaussian 16, Revision C.01,
 Gaussian 16:  ES64L-G16RevC.01  3-Jul-2019

 -----------------------------------------
 # sp b3lyp/6-311g** Force nosymm scf=(qc)
 -----------------------------------------

 -------------------
 Title Card Required
 -------------------
 Symbolic Z-matrix:
 Charge =  0 Multiplicity = 2

                          Input orientation:
 ---------------------------------------------------------------------
 Center     Atomic      Atomic             Coordinates (Angstroms)
 Number     Number       Type             X           Y           Z
 ---------------------------------------------------------------------
      1          1           0        0.000000    0.000000    0.000000
      2          1           0       -0.850000    0.000000    0.000000
      3          9           0        3.600000    0.000000    0.000000
 ---------------------------------------------------------------------

 SCF Done:  E(UB3LYP) =  -100.927856765     a.u. after  207 cycles

 Alpha  occ. eigenvalues --  -24.76308  -1.22179  -0.55380  -0.46570  -0.46535
 Alpha  occ. eigenvalues --   -0.41252
 Alpha virt. eigenvalues --    0.03713   0.20435   0.43129   0.86016   0.90892
 Alpha virt. eigenvalues --    0.92367   1.01536   1.08250   1.08253   1.49004
 Alpha virt. eigenvalues --    1.75589   1.75593   2.11663   2.37813   2.87623

  Beta  occ. eigenvalues --  -24.73151  -1.13102  -0.43412  -0.43370  -0.41243
  Beta virt. eigenvalues --   -0.26022   0.03723   0.20443   0.43171   0.92392
  Beta virt. eigenvalues --    0.93873   0.95480   1.05627   1.08250   1.08253
  Beta virt. eigenvalues --    1.49010   1.75589   1.75592   2.11674   2.37815

 Mulliken charges and spin densities:
               1          2
     1  H   -0.000657  -0.000306
     2  H   -0.002335  -0.000032
     3  F    0.002991   1.000339
 Sum of Mulliken charges =   0.00000   1.00000

 Dipole moment (field-independent basis, Debye):
    X=              0.0400    Y=             -0.0000    Z=             -0.0000  Tot=              0.0400
 Quadrupole moment (field-independent basis, Debye-Ang):
   XX=             -6.2503   YY=             -7.0872   ZZ=             -6.2230
   XY=              0.0000   XZ=             -0.0000   YZ=             -0.0055

  Exact polarizability:       9.660      -0.000       2.006      -0.000      -0.003       2.471
 Approx polarizability:      11.678       0.000       2.074      -0.000      -0.004       2.656

 ******    1 imaginary frequencies (negative Signs) ******

                      1                      2                      3
                      A                      A                      A
 Frequencies --    -48.6897              1325.4140              1326.2064
 Red. masses --      1.1085                 1.0089                 1.0089
 Frc consts  --      0.0015                 1.0443                 1.0455
 IR Inten    --      0.1153                 0.0000                 0.0000

                      4
                      A
 Frequencies --   3135.5270
 Red. masses --      1.0078
 Frc consts  --      5.8379
 IR Inten    --      0.0712

 - Thermochemistry -
 -------------------
 Temperature   298.150 Kelvin.  Pressure   1.00000 Atm.
 Atom     1 has atomic number  1 and mass   1.00783

 Molecular mass:    21.01405 amu.
 Principal axes and moments of inertia in atomic units:
                           1         2         3
     Eigenvalues --     0.00000 106.72716 106.72716
           X            1.00000  -0.00000   0.00000
           Y            0.00000   1.00000   0.00000
           Z            0.00000   0.00000   1.00000
 This molecule is a prolate symmetric top.
 Rotational symmetry number  1.
 Rotational temperature (Kelvin)      0.81155
 Rotational constant (GHZ):          16.909859
    1 imaginary frequencies ignored.
 Zero-point vibrational energy      34614.8 (Joules/Mol)
                                    8.27314 (Kcal/Mol)
 Vibrational temperatures:   1906.98  1908.12  4511.32
          (Kelvin)

 Zero-point correction=                           0.013184 (Hartree/Particle)
 Thermal correction to Energy=                    0.015565
 Thermal correction to Enthalpy=                  0.016509
 Thermal correction to Gibbs Free Energy=        -0.007352
 Sum of electronic and zero-point Energies=           -100.914673
 Sum of electronic and thermal Energies=              -100.912292
 Sum of electronic and thermal Enthalpies=            -100.911348
 Sum of electronic and thermal Free Energies=         -100.935209

                     E (Thermal)             CV                S
                      KCal/Mol        Cal/Mol-Kelvin    Cal/Mol-Kelvin
 Total                    9.767              5.240             50.219
 Electronic               0.000              0.000              1.377
 Translational            0.889              2.981             35.068
 Rotational               0.592              1.987             13.724
 Vibrational              8.286              0.272              0.049

 Normal termination of Gaussian 16 at Fri Aug 22 22:48:26 2025.
