 Gaussian 16, Revision C.01,
 Gaussian 16:  ES64L-G16RevC.01  3-Jul-2019

 -----------------------------------------
 # sp b3lyp/6-311g** Force nosymm scf=(qc)
 -----------------------------------------

 -------------------
 Title Card Required
 -------------------
 Symbolic Z-matrix:
 Charge =  0 Multiplicity = 2

                          Input orientation:
 ---------------------------------------------------------------------
 Center     Atomic      Atomic             Coordinates (Angstroms)
 Number     Number       Type             X           Y           Z
 ---------------------------------------------------------------------
      1          1           0        0.000000    0.000000    0.000000
      2          1           0       -2.550000    0.000000    0.000000
      3          9           0        1.000000    0.000000    0.000000
 ---------------------------------------------------------------------

 SCF Done:  E(UB3LYP) =  -100.966522503     a.u. after    6 cycles

 Alpha  occ. eigenvalues --  -24.64069  -1.15964  -0.51611  -0.38703  -0.38703
 Alpha  occ. eigenvalues --   -0.34907
 Alpha virt. eigenvalues --    0.01613   0.25119   0.34244   0.94133   0.94133
 Alpha virt. eigenvalues --    0.98559   1.20184   1.22640   1.22640   1.36032
 Alpha virt. eigenvalues --    1.36032   1.37000   1.90952   2.13733   2.34432

  Beta  occ. eigenvalues --  -24.64049  -1.15914  -0.51527  -0.38685  -0.38685
  Beta virt. eigenvalues --   -0.09694   0.03352   0.34083   0.37463   0.94135
  Beta virt. eigenvalues --    0.94135   0.98623   1.29336   1.36000   1.36000
  Beta virt. eigenvalues --    1.44514   1.44514   1.49961   1.91040   2.33919

 Mulliken charges and spin densities:
               1          2
     1  H    0.315372   0.002703
     2  H    0.006467   0.991109
     3  F   -0.321839   0.006188
 Sum of Mulliken charges =   0.00000   1.00000

 Dipole moment (field-independent basis, Debye):
    X=             -2.1106    Y=              0.0000    Z=             -0.0000  Tot=              2.1106
 Quadrupole moment (field-independent basis, Debye-Ang):
   XX=             -7.9944   YY=             -6.9560   ZZ=             -6.9560
   XY=             -0.0000   XZ=              0.0000   YZ=              0.0000

  Exact polarizability:       8.703      -0.000       2.424       0.000      -0.000       2.424
 Approx polarizability:       9.956       0.000       2.400       0.000      -0.000       2.400

 ******    1 imaginary frequencies (negative Signs) ******

                      1                      2                      3
                      A                      A                      A
 Frequencies --    -90.4435               965.8551               965.8551
 Red. masses --      1.0529                 1.0320                 1.0320
 Frc consts  --      0.0051                 0.5672                 0.5672
 IR Inten    --      0.9256               155.5360               155.5360

                      4
                      A
 Frequencies --   3014.9267
 Red. masses --      1.0587
 Frc consts  --      5.6698
 IR Inten    --    122.0710

 - Thermochemistry -
 -------------------
 Temperature   298.150 Kelvin.  Pressure   1.00000 Atm.
 Atom     1 has atomic number  1 and mass   1.00783

 Molecular mass:    21.01405 amu.
 Principal axes and moments of inertia in atomic units:
                           1         2         3
     Eigenvalues --     0.00000  45.38212  45.38212
           X            1.00000  -0.00000   0.00000
           Y            0.00000   1.00000   0.00000
           Z            0.00000   0.00000   1.00000
 This molecule is a prolate symmetric top.
 Rotational symmetry number  1.
 Rotational temperature (Kelvin)      1.90855
 Rotational constant (GHZ):          39.767672
    1 imaginary frequencies ignored.
 Zero-point vibrational energy      29587.5 (Joules/Mol)
                                    7.07157 (Kcal/Mol)
 Vibrational temperatures:   1389.65  1389.65  4337.81
          (Kelvin)

 Zero-point correction=                           0.011269 (Hartree/Particle)
 Thermal correction to Energy=                    0.013714
 Thermal correction to Enthalpy=                  0.014658
 Thermal correction to Gibbs Free Energy=        -0.008474
 Sum of electronic and zero-point Energies=           -100.955253
 Sum of electronic and thermal Energies=              -100.952809
 Sum of electronic and thermal Enthalpies=            -100.951865
 Sum of electronic and thermal Free Energies=         -100.974996

                     E (Thermal)             CV                S
                      KCal/Mol        Cal/Mol-Kelvin    Cal/Mol-Kelvin
 Total                    8.606              5.800             48.685
 Electronic               0.000              0.000              1.377
 Translational            0.889              2.981             35.068
 Rotational               0.592              1.987             12.025
 Vibrational              7.124              0.832              0.215

 Normal termination of Gaussian 16 at Fri Aug 22 16:00:55 2025.
