 Gaussian 16, Revision C.01,
 Gaussian 16:  ES64L-G16RevC.01  3-Jul-2019

 -----------------------------------------
 # sp b3lyp/6-311g** Force nosymm scf=(qc)
 -----------------------------------------

 -------------------
 Title Card Required
 -------------------
 Symbolic Z-matrix:
 Charge =  0 Multiplicity = 2

                          Input orientation:
 ---------------------------------------------------------------------
 Center     Atomic      Atomic             Coordinates (Angstroms)
 Number     Number       Type             X           Y           Z
 ---------------------------------------------------------------------
      1          1           0        0.000000    0.000000    0.000000
      2          1           0       -2.400000    0.000000    0.000000
      3          9           0        0.800000    0.000000    0.000000
 ---------------------------------------------------------------------

 SCF Done:  E(UB3LYP) =  -100.950564420     a.u. after    6 cycles

 Alpha  occ. eigenvalues --  -24.63585  -1.22957  -0.56165  -0.40565  -0.40565
 Alpha  occ. eigenvalues --   -0.34818
 Alpha virt. eigenvalues --    0.06819   0.25294   0.45669   0.94284   0.94284
 Alpha virt. eigenvalues --    0.96818   1.17262   1.22733   1.22733   1.39903
 Alpha virt. eigenvalues --    1.39903   1.43411   2.02007   2.14639   2.53161

  Beta  occ. eigenvalues --  -24.63569  -1.22915  -0.56100  -0.40552  -0.40552
  Beta virt. eigenvalues --   -0.09250   0.08395   0.37322   0.45644   0.94285
  Beta virt. eigenvalues --    0.94285   0.97013   1.27499   1.39862   1.39862
  Beta virt. eigenvalues --    1.44455   1.44455   1.56189   2.02323   2.42033

 Mulliken charges and spin densities:
               1          2
     1  H    0.268952   0.004339
     2  H    0.006111   0.990884
     3  F   -0.275063   0.004777
 Sum of Mulliken charges =   0.00000   1.00000

 Dipole moment (field-independent basis, Debye):
    X=             -1.8093    Y=              0.0000    Z=              0.0000  Tot=              1.8093
 Quadrupole moment (field-independent basis, Debye-Ang):
   XX=             -7.3826   YY=             -6.7586   ZZ=             -6.7586
   XY=              0.0000   XZ=              0.0000   YZ=             -0.0000

  Exact polarizability:       6.574       0.000       2.476      -0.000      -0.000       2.476
 Approx polarizability:       6.860      -0.000       2.461      -0.000      -0.000       2.461

 ******    2 imaginary frequencies (negative Signs) ******

                      1                      2                      3
                      A                      A                      A
 Frequencies --  -1957.7152             -1957.7152               111.9557
 Red. masses --      1.0346                 1.0346                 1.0532
 Frc consts  --      2.3362                 2.3362                 0.0078
 IR Inten    --    178.7811               178.7811                 0.4393

                      4
                      A
 Frequencies --   6345.7107
 Red. masses --      1.0583
 Frc consts  --     25.1094
 IR Inten    --    132.2642

 - Thermochemistry -
 -------------------
 Temperature   298.150 Kelvin.  Pressure   1.00000 Atm.
 Atom     1 has atomic number  1 and mass   1.00783

 Molecular mass:    21.01405 amu.
 Principal axes and moments of inertia in atomic units:
                           1         2         3
     Eigenvalues --     0.00000  36.39550  36.39550
           X            1.00000  -0.00000   0.00000
           Y            0.00000   1.00000   0.00000
           Z            0.00000   0.00000   1.00000
 This molecule is a prolate symmetric top.
 Rotational symmetry number  1.
 Rotational temperature (Kelvin)      2.37980
 Rotational constant (GHZ):          49.586929
    2 imaginary frequencies ignored.
 Zero-point vibrational energy      38625.4 (Joules/Mol)
                                    9.23170 (Kcal/Mol)
 Warning -- explicit consideration of   1 degrees of freedom as
           vibrations may cause significant error
 Vibrational temperatures:    161.08  9130.06
          (Kelvin)

 Zero-point correction=                           0.014712 (Hartree/Particle)
 Thermal correction to Energy=                    0.017784
 Thermal correction to Enthalpy=                  0.018728
 Thermal correction to Gibbs Free Energy=        -0.005630
 Sum of electronic and zero-point Energies=           -100.935853
 Sum of electronic and thermal Energies=              -100.932780
 Sum of electronic and thermal Enthalpies=            -100.931836
 Sum of electronic and thermal Free Energies=         -100.956195

                     E (Thermal)             CV                S
                      KCal/Mol        Cal/Mol-Kelvin    Cal/Mol-Kelvin
 Total                   11.160              6.908             51.267
 Electronic               0.000              0.000              1.377
 Translational            0.889              2.981             35.068
 Rotational               0.592              1.987             11.587
 Vibrational              9.678              1.940              3.235
 Vibration     1          0.607              1.940              3.235

 Normal termination of Gaussian 16 at Fri Aug 22 15:51:22 2025.
