 Gaussian 16, Revision C.01,
 Gaussian 16:  ES64L-G16RevC.01  3-Jul-2019

 -----------------------------------------
 # sp b3lyp/6-311g** Force nosymm scf=(qc)
 -----------------------------------------

 -------------------
 Title Card Required
 -------------------
 Symbolic Z-matrix:
 Charge =  0 Multiplicity = 2

                          Input orientation:
 ---------------------------------------------------------------------
 Center     Atomic      Atomic             Coordinates (Angstroms)
 Number     Number       Type             X           Y           Z
 ---------------------------------------------------------------------
      1          1           0        0.000000    0.000000    0.000000
      2          1           0       -1.400000    0.000000    0.000000
      3          9           0        2.100000    0.000000    0.000000
 ---------------------------------------------------------------------

 SCF Done:  E(UB3LYP) =  -100.845098882     a.u. after   13 cycles

 Alpha  occ. eigenvalues --  -24.71398  -1.17679  -0.50846  -0.42477  -0.42477
 Alpha  occ. eigenvalues --   -0.37821
 Alpha virt. eigenvalues --   -0.09065   0.22490   0.31917   0.86345   0.93170
 Alpha virt. eigenvalues --    0.93170   1.03724   1.14695   1.14695   1.27708
 Alpha virt. eigenvalues --    1.42450   1.42450   1.89191   2.22722   2.48272

  Beta  occ. eigenvalues --  -24.68653  -1.09908  -0.39749  -0.39749  -0.37268
  Beta virt. eigenvalues --   -0.24311  -0.07556   0.23915   0.32077   0.91599
  Beta virt. eigenvalues --    0.94380   0.94380   1.07330   1.16091   1.16091
  Beta virt. eigenvalues --    1.31549   1.43306   1.43306   1.90617   2.23894

 Mulliken charges and spin densities:
               1          2
     1  H    0.053040  -0.247642
     2  H    0.055502   0.384339
     3  F   -0.108542   0.863303
 Sum of Mulliken charges =  -0.00000   1.00000

 Dipole moment (field-independent basis, Debye):
    X=             -1.5028    Y=             -0.0000    Z=              0.0000  Tot=              1.5028
 Quadrupole moment (field-independent basis, Debye-Ang):
   XX=             -7.2524   YY=             -7.5282   ZZ=             -7.5282
   XY=             -0.0000   XZ=              0.0000   YZ=              0.0000

  Exact polarizability:      51.320      -0.000       2.118       0.000       0.000       2.118
 Approx polarizability:      77.898       0.000       2.090      -0.000      -0.000       2.090

 ******    2 imaginary frequencies (negative Signs) ******

                      1                      2                      3
                      A                      A                      A
 Frequencies --  -1997.8289              -380.1875              1208.8100
 Red. masses --      1.0113                 1.1044                 1.0138
 Frc consts  --      2.3781                 0.0940                 0.8728
 IR Inten    --   1019.6054                13.6911                 0.3682

                      4
                      A
 Frequencies --   1208.8100
 Red. masses --      1.0138
 Frc consts  --      0.8728
 IR Inten    --      0.3682

 - Thermochemistry -
 -------------------
 Temperature   298.150 Kelvin.  Pressure   1.00000 Atm.
 Atom     1 has atomic number  1 and mass   1.00783

 Molecular mass:    21.01405 amu.
 Principal axes and moments of inertia in atomic units:
                           1         2         3
     Eigenvalues --     0.00000  54.54653  54.54653
           X            1.00000  -0.00000   0.00000
           Y            0.00000   1.00000   0.00000
           Z            0.00000   0.00000   1.00000
 This molecule is a prolate symmetric top.
 Rotational symmetry number  1.
 Rotational temperature (Kelvin)      1.58789
 Rotational constant (GHZ):          33.086270
    2 imaginary frequencies ignored.
 Zero-point vibrational energy      14460.6 (Joules/Mol)
                                    3.45616 (Kcal/Mol)
 Vibrational temperatures:   1739.21  1739.21
          (Kelvin)

 Zero-point correction=                           0.005508 (Hartree/Particle)
 Thermal correction to Energy=                    0.007901
 Thermal correction to Enthalpy=                  0.008845
 Thermal correction to Gibbs Free Energy=        -0.014397
 Sum of electronic and zero-point Energies=           -100.839591
 Sum of electronic and thermal Energies=              -100.837198
 Sum of electronic and thermal Enthalpies=            -100.836254
 Sum of electronic and thermal Free Energies=         -100.859496

                     E (Thermal)             CV                S
                      KCal/Mol        Cal/Mol-Kelvin    Cal/Mol-Kelvin
 Total                    4.958              5.366             48.916
 Electronic               0.000              0.000              1.377
 Translational            0.889              2.981             35.068
 Rotational               0.592              1.987             12.391
 Vibrational              3.476              0.398              0.080

 Normal termination of Gaussian 16 at Fri Aug 22 17:03:17 2025.
