 Gaussian 16, Revision C.01,
 Gaussian 16:  ES64L-G16RevC.01  3-Jul-2019

 -----------------------------------------
 # sp b3lyp/6-311g** Force nosymm scf=(qc)
 -----------------------------------------

 -------------------
 Title Card Required
 -------------------
 Symbolic Z-matrix:
 Charge =  0 Multiplicity = 2

                          Input orientation:
 ---------------------------------------------------------------------
 Center     Atomic      Atomic             Coordinates (Angstroms)
 Number     Number       Type             X           Y           Z
 ---------------------------------------------------------------------
      1          1           0        0.000000    0.000000    0.000000
      2          1           0       -0.600000    0.000000    0.000000
      3          9           0        3.650000    0.000000    0.000000
 ---------------------------------------------------------------------

 SCF Done:  E(UB3LYP) =  -100.914643294     a.u. after  276 cycles

 Alpha  occ. eigenvalues --  -24.76276  -1.22142  -0.55345  -0.46689  -0.46499
 Alpha  occ. eigenvalues --   -0.46419
 Alpha virt. eigenvalues --    0.08436   0.18888   0.51713   0.86054   0.90930
 Alpha virt. eigenvalues --    0.92698   1.01799   1.10216   1.10219   1.60586
 Alpha virt. eigenvalues --    1.81969   1.92760   1.92763   2.37012   3.64881

  Beta  occ. eigenvalues --  -24.73119  -1.13065  -0.46588  -0.43353  -0.43333
  Beta virt. eigenvalues --   -0.25986   0.08452   0.18896   0.51773   0.92430
  Beta virt. eigenvalues --    0.94212   0.95518   1.05850   1.10216   1.10219
  Beta virt. eigenvalues --    1.60592   1.81990   1.92760   1.92763   2.37013

 Mulliken charges and spin densities:
               1          2
     1  H   -0.001828  -0.000454
     2  H   -0.001509   0.000079
     3  F    0.003337   1.000376
 Sum of Mulliken charges =   0.00000   1.00000

 Dipole moment (field-independent basis, Debye):
    X=              0.0391    Y=              0.0000    Z=              0.0000  Tot=              0.0391
 Quadrupole moment (field-independent basis, Debye-Ang):
   XX=             -6.1725   YY=             -6.7381   ZZ=             -5.8745
   XY=             -0.0000   XZ=             -0.0000   YZ=              0.0175

  Exact polarizability:       6.400       0.000       1.868      -0.000       0.009       2.332
 Approx polarizability:       6.974      -0.000       1.949      -0.000       0.012       2.531

 ******    3 imaginary frequencies (negative Signs) ******

                      1                      2                      3
                      A                      A                      A
 Frequencies --  -2764.4845             -2764.0608               -42.9014
 Red. masses --      1.0084                 1.0084                 1.1085
 Frc consts  --      4.5406                 4.5392                 0.0012
 IR Inten    --      0.0024                 0.0021                 0.1015

                      4
                      A
 Frequencies --   7042.4963
 Red. masses --      1.0078
 Frc consts  --     29.4502
 IR Inten    --      0.0379

 - Thermochemistry -
 -------------------
 Temperature   298.150 Kelvin.  Pressure   1.00000 Atm.
 Atom     1 has atomic number  1 and mass   1.00783

 Molecular mass:    21.01405 amu.
 Principal axes and moments of inertia in atomic units:
                           1         2         3
     Eigenvalues --     0.00000 102.18249 102.18249
           X            1.00000  -0.00000   0.00000
           Y            0.00000   1.00000   0.00000
           Z            0.00000   0.00000   1.00000
 This molecule is a prolate symmetric top.
 Rotational symmetry number  1.
 Rotational temperature (Kelvin)      0.84764
 Rotational constant (GHZ):          17.661943
    3 imaginary frequencies ignored.
 Zero-point vibrational energy      42123.5 (Joules/Mol)
                                   10.06775 (Kcal/Mol)
 Vibrational temperatures:  10132.58
          (Kelvin)

 Zero-point correction=                           0.016044 (Hartree/Particle)
 Thermal correction to Energy=                    0.018404
 Thermal correction to Enthalpy=                  0.019349
 Thermal correction to Gibbs Free Energy=        -0.004448
 Sum of electronic and zero-point Energies=           -100.898599
 Sum of electronic and thermal Energies=              -100.896239
 Sum of electronic and thermal Enthalpies=            -100.895295
 Sum of electronic and thermal Free Energies=         -100.919091

                     E (Thermal)             CV                S
                      KCal/Mol        Cal/Mol-Kelvin    Cal/Mol-Kelvin
 Total                   11.549              4.968             50.083
 Electronic               0.000              0.000              1.377
 Translational            0.889              2.981             35.068
 Rotational               0.592              1.987             13.638
 Vibrational             10.068              0.000              0.000

 Normal termination of Gaussian 16 at Fri Aug 22 23:11:12 2025.
