 Gaussian 16, Revision C.01,
 Gaussian 16:  ES64L-G16RevC.01  3-Jul-2019

 -----------------------------------------
 # sp b3lyp/6-311g** Force nosymm scf=(qc)
 -----------------------------------------

 -------------------
 Title Card Required
 -------------------
 Symbolic Z-matrix:
 Charge =  0 Multiplicity = 2

                          Input orientation:
 ---------------------------------------------------------------------
 Center     Atomic      Atomic             Coordinates (Angstroms)
 Number     Number       Type             X           Y           Z
 ---------------------------------------------------------------------
      1          1           0        0.000000    0.000000    0.000000
      2          1           0       -3.700000    0.000000    0.000000
      3          9           0        2.750000    0.000000    0.000000
 ---------------------------------------------------------------------

 SCF Done:  E(UB3LYP) =  -100.763254340     a.u. after   22 cycles

 Alpha  occ. eigenvalues --  -24.73047  -1.19181  -0.52162  -0.43806  -0.43806
 Alpha  occ. eigenvalues --   -0.32642
 Alpha virt. eigenvalues --   -0.08914   0.23706   0.35885   0.89907   0.92888
 Alpha virt. eigenvalues --    0.92888   1.05310   1.24860   1.24860   1.24933
 Alpha virt. eigenvalues --    1.42656   1.42656   1.44022   2.14434   2.39159

  Beta  occ. eigenvalues --  -24.70095  -1.10745  -0.40856  -0.40856  -0.34440
  Beta virt. eigenvalues --   -0.24163  -0.06334   0.23856   0.38049   0.94320
  Beta virt. eigenvalues --    0.94320   0.97935   1.08539   1.22876   1.22876
  Beta virt. eigenvalues --    1.24998   1.46149   1.46378   1.46378   2.13828

 Mulliken charges and spin densities:
               1          2
     1  H    0.059073  -0.933036
     2  H    0.000385   0.998748
     3  F   -0.059458   0.934288
 Sum of Mulliken charges =  -0.00000   1.00000

 Dipole moment (field-independent basis, Debye):
    X=             -0.8441    Y=             -0.0000    Z=             -0.0000  Tot=              0.8441
 Quadrupole moment (field-independent basis, Debye-Ang):
   XX=             -8.8418   YY=             -7.5923   ZZ=             -7.5923
   XY=             -0.0000   XZ=             -0.0000   YZ=              0.0000

  Exact polarizability:      31.631      -0.000       2.024      -0.000      -0.000       2.024
 Approx polarizability:      36.511      -0.000       1.923      -0.000      -0.000       1.923

 ******    2 imaginary frequencies (negative Signs) ******

                      1                      2                      3
                      A                      A                      A
 Frequencies --   -476.4892               -96.6727               175.4420
 Red. masses --      1.0538                 1.0577                 1.0219
 Frc consts  --      0.1410                 0.0058                 0.0185
 IR Inten    --     58.9253                 0.1699                 3.3551

                      4
                      A
 Frequencies --    175.4420
 Red. masses --      1.0219
 Frc consts  --      0.0185
 IR Inten    --      3.3551

 - Thermochemistry -
 -------------------
 Temperature   298.150 Kelvin.  Pressure   1.00000 Atm.
 Atom     1 has atomic number  1 and mass   1.00783

 Molecular mass:    21.01405 amu.
 Principal axes and moments of inertia in atomic units:
                           1         2         3
     Eigenvalues --     0.00000 162.33581 162.33581
           X            1.00000  -0.00000   0.00000
           Y            0.00000   1.00000   0.00000
           Z            0.00000   0.00000   1.00000
 This molecule is a prolate symmetric top.
 Rotational symmetry number  1.
 Rotational temperature (Kelvin)      0.53355
 Rotational constant (GHZ):          11.117333
    2 imaginary frequencies ignored.
 Zero-point vibrational energy       2098.8 (Joules/Mol)
                                    0.50161 (Kcal/Mol)
 Warning -- explicit consideration of   2 degrees of freedom as
           vibrations may cause significant error
 Vibrational temperatures:    252.42   252.42
          (Kelvin)

 Zero-point correction=                           0.000799 (Hartree/Particle)
 Thermal correction to Energy=                    0.004360
 Thermal correction to Enthalpy=                  0.005304
 Thermal correction to Gibbs Free Energy=        -0.021187
 Sum of electronic and zero-point Energies=           -100.762455
 Sum of electronic and thermal Energies=              -100.758894
 Sum of electronic and thermal Enthalpies=            -100.757950
 Sum of electronic and thermal Free Energies=         -100.784441

                     E (Thermal)             CV                S
                      KCal/Mol        Cal/Mol-Kelvin    Cal/Mol-Kelvin
 Total                    2.736              8.713             55.756
 Electronic               0.000              0.000              1.377
 Translational            0.889              2.981             35.068
 Rotational               0.592              1.987             14.558
 Vibrational              1.255              3.745              4.753
 Vibration     1          0.627              1.873              2.376
 Vibration     2          0.627              1.873              2.376

 Normal termination of Gaussian 16 at Fri Aug 22 18:35:22 2025.
