 Gaussian 16, Revision C.01,
 Gaussian 16:  ES64L-G16RevC.01  3-Jul-2019

 -----------------------------------------
 # sp b3lyp/6-311g** Force nosymm scf=(qc)
 -----------------------------------------

 -------------------
 Title Card Required
 -------------------
 Symbolic Z-matrix:
 Charge =  0 Multiplicity = 2

                          Input orientation:
 ---------------------------------------------------------------------
 Center     Atomic      Atomic             Coordinates (Angstroms)
 Number     Number       Type             X           Y           Z
 ---------------------------------------------------------------------
      1          1           0        0.000000    0.000000    0.000000
      2          1           0       -3.300000    0.000000    0.000000
      3          9           0        3.700000    0.000000    0.000000
 ---------------------------------------------------------------------

 SCF Done:  E(UB3LYP) =  -100.759079114     a.u. after   31 cycles

 Alpha  occ. eigenvalues --  -24.75662  -1.21605  -0.54786  -0.45999  -0.45999
 Alpha  occ. eigenvalues --   -0.32325
 Alpha virt. eigenvalues --   -0.07172   0.24563   0.37026   0.87064   0.91308
 Alpha virt. eigenvalues --    0.91308   1.01402   1.25188   1.25188   1.25484
 Alpha virt. eigenvalues --    1.44900   1.45119   1.45119   2.15351   2.40573

  Beta  occ. eigenvalues --  -24.72531  -1.12603  -0.42860  -0.42860  -0.32642
  Beta virt. eigenvalues --   -0.25625  -0.06813   0.24361   0.37606   0.92803
  Beta virt. eigenvalues --    0.92803   0.96322   1.05477   1.24830   1.24830
  Beta virt. eigenvalues --    1.25106   1.45465   1.45688   1.45688   2.15463

 Mulliken charges and spin densities:
               1          2
     1  H    0.006213  -0.989382
     2  H    0.000204   0.996484
     3  F   -0.006416   0.992898
 Sum of Mulliken charges =   0.00000   1.00000

 Dipole moment (field-independent basis, Debye):
    X=             -0.1256    Y=             -0.0000    Z=              0.0000  Tot=              0.1256
 Quadrupole moment (field-independent basis, Debye-Ang):
   XX=             -7.1190   YY=             -7.6269   ZZ=             -7.6269
   XY=              0.0000   XZ=             -0.0000   YZ=             -0.0000

  Exact polarizability:      18.843      -0.000       2.027      -0.000      -0.000       2.027
 Approx polarizability:      14.061       0.000       1.934      -0.000       0.000       1.934

 ******    2 imaginary frequencies (negative Signs) ******

                      1                      2                      3
                      A                      A                      A
 Frequencies --   -253.8055               -99.0251                87.2088
 Red. masses --      1.0127                 1.1027                 1.0166
 Frc consts  --      0.0384                 0.0064                 0.0046
 IR Inten    --      3.6863                 1.5909                 0.0375

                      4
                      A
 Frequencies --     87.2088
 Red. masses --      1.0166
 Frc consts  --      0.0046
 IR Inten    --      0.0375

 - Thermochemistry -
 -------------------
 Temperature   298.150 Kelvin.  Pressure   1.00000 Atm.
 Atom     1 has atomic number  1 and mass   1.00783

 Molecular mass:    21.01405 amu.
 Principal axes and moments of inertia in atomic units:
                           1         2         3
     Eigenvalues --     0.00000 205.86008 205.86008
           X            1.00000  -0.00000   0.00000
           Y            0.00000   1.00000   0.00000
           Z            0.00000   0.00000   1.00000
 This molecule is a prolate symmetric top.
 Rotational symmetry number  1.
 Rotational temperature (Kelvin)      0.42074
 Rotational constant (GHZ):           8.766834
    2 imaginary frequencies ignored.
 Zero-point vibrational energy       1043.2 (Joules/Mol)
                                    0.24934 (Kcal/Mol)
 Warning -- explicit consideration of   2 degrees of freedom as
           vibrations may cause significant error
 Vibrational temperatures:    125.47   125.47
          (Kelvin)

 Zero-point correction=                           0.000397 (Hartree/Particle)
 Thermal correction to Energy=                    0.004277
 Thermal correction to Enthalpy=                  0.005221
 Thermal correction to Gibbs Free Energy=        -0.022773
 Sum of electronic and zero-point Energies=           -100.758682
 Sum of electronic and thermal Energies=              -100.754802
 Sum of electronic and thermal Enthalpies=            -100.753858
 Sum of electronic and thermal Free Energies=         -100.781853

                     E (Thermal)             CV                S
                      KCal/Mol        Cal/Mol-Kelvin    Cal/Mol-Kelvin
 Total                    2.684              8.884             58.919
 Electronic               0.000              0.000              1.377
 Translational            0.889              2.981             35.068
 Rotational               0.592              1.987             15.030
 Vibrational              1.202              3.916              7.443
 Vibration     1          0.601              1.958              3.722
 Vibration     2          0.601              1.958              3.722

 Normal termination of Gaussian 16 at Sat Aug 23 00:04:35 2025.
