 Gaussian 16, Revision C.01,
 Gaussian 16:  ES64L-G16RevC.01  3-Jul-2019

 -----------------------------------------
 # sp b3lyp/6-311g** Force nosymm scf=(qc)
 -----------------------------------------

 -------------------
 Title Card Required
 -------------------
 Symbolic Z-matrix:
 Charge =  0 Multiplicity = 2

                          Input orientation:
 ---------------------------------------------------------------------
 Center     Atomic      Atomic             Coordinates (Angstroms)
 Number     Number       Type             X           Y           Z
 ---------------------------------------------------------------------
      1          1           0        0.000000    0.000000    0.000000
      2          1           0       -2.200000    0.000000    0.000000
      3          9           0        1.950000    0.000000    0.000000
 ---------------------------------------------------------------------

 SCF Done:  E(UB3LYP) =  -100.798334858     a.u. after   12 cycles

 Alpha  occ. eigenvalues --  -24.67634  -1.13952  -0.46650  -0.39231  -0.39231
 Alpha  occ. eigenvalues --   -0.35893
 Alpha virt. eigenvalues --   -0.13881   0.24035   0.30488   0.89906   0.95056
 Alpha virt. eigenvalues --    0.95056   1.05817   1.21904   1.21904   1.27411
 Alpha virt. eigenvalues --    1.34191   1.34191   1.61922   2.11558   2.28759

  Beta  occ. eigenvalues --  -24.65345  -1.07570  -0.37831  -0.36979  -0.36979
  Beta virt. eigenvalues --   -0.20739  -0.10988   0.25530   0.33038   0.92130
  Beta virt. eigenvalues --    0.95609   0.95609   1.08724   1.23086   1.23086
  Beta virt. eigenvalues --    1.38309   1.38309   1.41956   1.56682   2.12346

 Mulliken charges and spin densities:
               1          2
     1  H    0.171848  -0.654116
     2  H    0.033463   0.934480
     3  F   -0.205311   0.719636
 Sum of Mulliken charges =   0.00000   1.00000

 Dipole moment (field-independent basis, Debye):
    X=             -2.3299    Y=              0.0000    Z=             -0.0000  Tot=              2.3299
 Quadrupole moment (field-independent basis, Debye-Ang):
   XX=             -9.0628   YY=             -7.5246   ZZ=             -7.5246
   XY=              0.0000   XZ=             -0.0000   YZ=             -0.0000

  Exact polarizability:      43.531      -0.000       2.068       0.000      -0.000       2.068
 Approx polarizability:      51.833      -0.000       1.967       0.000       0.000       1.967

 ******    2 imaginary frequencies (negative Signs) ******

                      1                      2                      3
                      A                      A                      A
 Frequencies --  -1424.9562              -520.5366               594.4396
 Red. masses --      1.0317                 1.0810                 1.0195
 Frc consts  --      1.2342                 0.1726                 0.2122
 IR Inten    --     90.2914                27.1008                21.5073

                      4
                      A
 Frequencies --    594.4396
 Red. masses --      1.0195
 Frc consts  --      0.2122
 IR Inten    --     21.5073

 - Thermochemistry -
 -------------------
 Temperature   298.150 Kelvin.  Pressure   1.00000 Atm.
 Atom     1 has atomic number  1 and mass   1.00783

 Molecular mass:    21.01405 amu.
 Principal axes and moments of inertia in atomic units:
                           1         2         3
     Eigenvalues --     0.00000  69.24645  69.24645
           X            1.00000  -0.00000   0.00000
           Y            0.00000   1.00000   0.00000
           Z            0.00000   0.00000   1.00000
 This molecule is a prolate symmetric top.
 Rotational symmetry number  1.
 Rotational temperature (Kelvin)      1.25081
 Rotational constant (GHZ):          26.062580
    2 imaginary frequencies ignored.
 Zero-point vibrational energy       7111.1 (Joules/Mol)
                                    1.69959 (Kcal/Mol)
 Warning -- explicit consideration of   2 degrees of freedom as
           vibrations may cause significant error
 Vibrational temperatures:    855.27   855.27
          (Kelvin)

 Zero-point correction=                           0.002708 (Hartree/Particle)
 Thermal correction to Energy=                    0.005395
 Thermal correction to Enthalpy=                  0.006339
 Thermal correction to Gibbs Free Energy=        -0.017526
 Sum of electronic and zero-point Energies=           -100.795626
 Sum of electronic and thermal Energies=              -100.792940
 Sum of electronic and thermal Enthalpies=            -100.791996
 Sum of electronic and thermal Free Energies=         -100.815861

                     E (Thermal)             CV                S
                      KCal/Mol        Cal/Mol-Kelvin    Cal/Mol-Kelvin
 Total                    3.385              7.055             50.229
 Electronic               0.000              0.000              1.377
 Translational            0.889              2.981             35.068
 Rotational               0.592              1.987             12.865
 Vibrational              1.904              2.087              0.919
 Vibration     1          0.952              1.044              0.459
 Vibration     2          0.952              1.044              0.459

 Normal termination of Gaussian 16 at Fri Aug 22 16:53:29 2025.
