 Gaussian 16, Revision C.01,
 Gaussian 16:  ES64L-G16RevC.01  3-Jul-2019

 -----------------------------------------
 # sp b3lyp/6-311g** Force nosymm scf=(qc)
 -----------------------------------------

 -------------------
 Title Card Required
 -------------------
 Symbolic Z-matrix:
 Charge =  0 Multiplicity = 2

                          Input orientation:
 ---------------------------------------------------------------------
 Center     Atomic      Atomic             Coordinates (Angstroms)
 Number     Number       Type             X           Y           Z
 ---------------------------------------------------------------------
      1          1           0        0.000000    0.000000    0.000000
      2          1           0       -0.800000    0.000000    0.000000
      3          9           0        3.500000    0.000000    0.000000
 ---------------------------------------------------------------------

 SCF Done:  E(UB3LYP) =  -100.932128205     a.u. after  303 cycles

 Alpha  occ. eigenvalues --  -24.76351  -1.22211  -0.55411  -0.46608  -0.46565
 Alpha  occ. eigenvalues --   -0.42154
 Alpha virt. eigenvalues --    0.04785   0.20122   0.44770   0.85997   0.90872
 Alpha virt. eigenvalues --    0.92742   1.01921   1.08312   1.08315   1.52329
 Alpha virt. eigenvalues --    1.78977   1.78981   2.04738   2.38090   3.05410

  Beta  occ. eigenvalues --  -24.73193  -1.13132  -0.43464  -0.43399  -0.42130
  Beta virt. eigenvalues --   -0.26050   0.04800   0.20133   0.44824   0.92372
  Beta virt. eigenvalues --    0.94271   0.95460   1.05967   1.08312   1.08315
  Beta virt. eigenvalues --    1.52335   1.78977   1.78980   2.04754   2.38092

 Mulliken charges and spin densities:
               1          2
     1  H   -0.001441  -0.000427
     2  H   -0.002454  -0.000023
     3  F    0.003895   1.000450
 Sum of Mulliken charges =   0.00000   1.00000

 Dipole moment (field-independent basis, Debye):
    X=              0.0479    Y=              0.0000    Z=             -0.0000  Tot=              0.0479
 Quadrupole moment (field-independent basis, Debye-Ang):
   XX=             -6.2108   YY=             -6.1579   ZZ=             -7.0219
   XY=              0.0000   XZ=              0.0000   YZ=              0.0079

  Exact polarizability:       8.988       0.000       2.447       0.000       0.004       1.983
 Approx polarizability:      10.585       0.000       2.637       0.000       0.005       2.055

 ******    1 imaginary frequencies (negative Signs) ******

                      1                      2                      3
                      A                      A                      A
 Frequencies --    -28.4152              1073.7514              1074.7376
 Red. masses --      1.1085                 1.0089                 1.0089
 Frc consts  --      0.0005                 0.6853                 0.6866
 IR Inten    --      0.1444                 0.0006                 0.0004

                      4
                      A
 Frequencies --   3694.5025
 Red. masses --      1.0078
 Frc consts  --      8.1049
 IR Inten    --      0.0892

 - Thermochemistry -
 -------------------
 Temperature   298.150 Kelvin.  Pressure   1.00000 Atm.
 Atom     1 has atomic number  1 and mass   1.00783

 Molecular mass:    21.01405 amu.
 Principal axes and moments of inertia in atomic units:
                           1         2         3
     Eigenvalues --     0.00000 100.13212 100.13212
           X            1.00000  -0.00000   0.00000
           Y            0.00000   1.00000   0.00000
           Z            0.00000   0.00000   1.00000
 This molecule is a prolate symmetric top.
 Rotational symmetry number  1.
 Rotational temperature (Kelvin)      0.86500
 Rotational constant (GHZ):          18.023600
    1 imaginary frequencies ignored.
 Zero-point vibrational energy      34948.9 (Joules/Mol)
                                    8.35298 (Kcal/Mol)
 Vibrational temperatures:   1544.89  1546.31  5315.57
          (Kelvin)

 Zero-point correction=                           0.013311 (Hartree/Particle)
 Thermal correction to Energy=                    0.015727
 Thermal correction to Enthalpy=                  0.016671
 Thermal correction to Gibbs Free Energy=        -0.007172
 Sum of electronic and zero-point Energies=           -100.918817
 Sum of electronic and thermal Energies=              -100.916401
 Sum of electronic and thermal Enthalpies=            -100.915457
 Sum of electronic and thermal Free Energies=         -100.939300

                     E (Thermal)             CV                S
                      KCal/Mol        Cal/Mol-Kelvin    Cal/Mol-Kelvin
 Total                    9.869              5.574             50.182
 Electronic               0.000              0.000              1.377
 Translational            0.889              2.981             35.068
 Rotational               0.592              1.987             13.598
 Vibrational              8.388              0.606              0.138

 Normal termination of Gaussian 16 at Fri Aug 22 21:49:59 2025.
