 Gaussian 16, Revision C.01,
 Gaussian 16:  ES64L-G16RevC.01  3-Jul-2019

 -----------------------------------------
 # sp b3lyp/6-311g** Force nosymm scf=(qc)
 -----------------------------------------

 -------------------
 Title Card Required
 -------------------
 Symbolic Z-matrix:
 Charge =  0 Multiplicity = 2

                          Input orientation:
 ---------------------------------------------------------------------
 Center     Atomic      Atomic             Coordinates (Angstroms)
 Number     Number       Type             X           Y           Z
 ---------------------------------------------------------------------
      1          1           0        0.000000    0.000000    0.000000
      2          1           0       -2.800000    0.000000    0.000000
      3          9           0        0.650000    0.000000    0.000000
 ---------------------------------------------------------------------

 SCF Done:  E(UB3LYP) =  -100.800804231     a.u. after    6 cycles

 Alpha  occ. eigenvalues --  -24.62917  -1.31290  -0.59793  -0.42334  -0.42334
 Alpha  occ. eigenvalues --   -0.33998
 Alpha virt. eigenvalues --    0.07644   0.25607   0.55601   0.92906   0.92906
 Alpha virt. eigenvalues --    0.94685   1.20957   1.23536   1.23536   1.38940
 Alpha virt. eigenvalues --    1.46934   1.46934   1.96239   2.14709   3.09621

  Beta  occ. eigenvalues --  -24.62913  -1.31279  -0.59784  -0.42332  -0.42332
  Beta virt. eigenvalues --   -0.06843   0.08808   0.38865   0.55679   0.92903
  Beta virt. eigenvalues --    0.92903   0.94718   1.31830   1.46934   1.46934
  Beta virt. eigenvalues --    1.49518   1.49518   1.52963   1.96006   2.44209

 Mulliken charges and spin densities:
               1          2
     1  H    0.252338   0.001871
     2  H    0.002692   0.996302
     3  F   -0.255031   0.001827
 Sum of Mulliken charges =   0.00000   1.00000

 Dipole moment (field-independent basis, Debye):
    X=             -1.5422    Y=             -0.0000    Z=              0.0000  Tot=              1.5422
 Quadrupole moment (field-independent basis, Debye-Ang):
   XX=             -7.0231   YY=             -6.6058   ZZ=             -6.6058
   XY=             -0.0000   XZ=              0.0000   YZ=             -0.0000

  Exact polarizability:       4.576      -0.000       2.459       0.000       0.000       2.459
 Approx polarizability:       4.735       0.000       2.442      -0.000       0.000       2.442

 ******    2 imaginary frequencies (negative Signs) ******

                      1                      2                      3
                      A                      A                      A
 Frequencies --  -4574.8361             -4574.8361                44.7775
 Red. masses --      1.0400                 1.0400                 1.0532
 Frc consts  --     12.8240                12.8240                 0.0012
 IR Inten    --    217.7984               217.7984                 0.1333

                      4
                      A
 Frequencies --  10873.4593
 Red. masses --      1.0583
 Frc consts  --     73.7225
 IR Inten    --    110.5546

 - Thermochemistry -
 -------------------
 Temperature   298.150 Kelvin.  Pressure   1.00000 Atm.
 Atom     1 has atomic number  1 and mass   1.00783

 Molecular mass:    21.01405 amu.
 Principal axes and moments of inertia in atomic units:
                           1         2         3
     Eigenvalues --     0.00000  41.45626  41.45626
           X            1.00000  -0.00000   0.00000
           Y            0.00000   1.00000   0.00000
           Z            0.00000   0.00000   1.00000
 This molecule is a prolate symmetric top.
 Rotational symmetry number  1.
 Rotational temperature (Kelvin)      2.08928
 Rotational constant (GHZ):          43.533625
    2 imaginary frequencies ignored.
 Zero-point vibrational energy      65305.6 (Joules/Mol)
                                   15.60840 (Kcal/Mol)
 Warning -- explicit consideration of   1 degrees of freedom as
           vibrations may cause significant error
 Vibrational temperatures:     64.42 15644.48
          (Kelvin)

 Zero-point correction=                           0.024874 (Hartree/Particle)
 Thermal correction to Energy=                    0.028080
 Thermal correction to Enthalpy=                  0.029024
 Thermal correction to Gibbs Free Energy=         0.003687
 Sum of electronic and zero-point Energies=           -100.775931
 Sum of electronic and thermal Energies=              -100.772724
 Sum of electronic and thermal Enthalpies=            -100.771780
 Sum of electronic and thermal Free Energies=         -100.797117

                     E (Thermal)             CV                S
                      KCal/Mol        Cal/Mol-Kelvin    Cal/Mol-Kelvin
 Total                   17.620              6.948             53.326
 Electronic               0.000              0.000              1.377
 Translational            0.889              2.981             35.068
 Rotational               0.592              1.987             11.845
 Vibrational             16.139              1.979              5.036
 Vibration     1          0.595              1.979              5.036

 Normal termination of Gaussian 16 at Fri Aug 22 15:44:36 2025.
