 Gaussian 16, Revision C.01,
 Gaussian 16:  ES64L-G16RevC.01  3-Jul-2019

 -----------------------------------------
 # sp b3lyp/6-311g** Force nosymm scf=(qc)
 -----------------------------------------

 -------------------
 Title Card Required
 -------------------
 Symbolic Z-matrix:
 Charge =  0 Multiplicity = 2

                          Input orientation:
 ---------------------------------------------------------------------
 Center     Atomic      Atomic             Coordinates (Angstroms)
 Number     Number       Type             X           Y           Z
 ---------------------------------------------------------------------
      1          1           0        0.000000    0.000000    0.000000
      2          1           0       -0.650000    0.000000    0.000000
      3          9           0        1.650000    0.000000    0.000000
 ---------------------------------------------------------------------

 SCF Done:  E(UB3LYP) =  -100.926891339     a.u. after    6 cycles

 Alpha  occ. eigenvalues --  -24.73169  -1.19743  -0.56250  -0.45272  -0.44196
 Alpha  occ. eigenvalues --   -0.44196
 Alpha virt. eigenvalues --    0.10204   0.19941   0.46879   0.89223   0.89223
 Alpha virt. eigenvalues --    0.96428   1.09165   1.09165   1.25049   1.69466
 Alpha virt. eigenvalues --    1.85438   1.88304   1.88304   2.46407   3.57986

  Beta  occ. eigenvalues --  -24.70280  -1.11668  -0.48489  -0.41353  -0.41353
  Beta virt. eigenvalues --   -0.24318   0.11078   0.20671   0.48424   0.90454
  Beta virt. eigenvalues --    0.90454   1.03353   1.10599   1.10599   1.28658
  Beta virt. eigenvalues --    1.71628   1.86252   1.89023   1.89023   2.48046

 Mulliken charges and spin densities:
               1          2
     1  H    0.070736  -0.032418
     2  H    0.016760   0.144466
     3  F   -0.087496   0.887951
 Sum of Mulliken charges =   0.00000   1.00000

 Dipole moment (field-independent basis, Debye):
    X=             -0.7369    Y=              0.0000    Z=              0.0000  Tot=              0.7369
 Quadrupole moment (field-independent basis, Debye-Ang):
   XX=             -6.4369   YY=             -6.7159   ZZ=             -6.7159
   XY=             -0.0000   XZ=              0.0000   YZ=              0.0000

  Exact polarizability:      16.680       0.000       2.185      -0.000       0.000       2.185
 Approx polarizability:      19.483      -0.000       2.242       0.000       0.000       2.242

 ******    2 imaginary frequencies (negative Signs) ******

                      1                      2                      3
                      A                      A                      A
 Frequencies --  -2111.5257             -2111.5257               237.6797
 Red. masses --      1.0105                 1.0105                 1.1085
 Frc consts  --      2.6545                 2.6545                 0.0369
 IR Inten    --      0.0017                 0.0017                54.8327

                      4
                      A
 Frequencies --   5837.8853
 Red. masses --      1.0079
 Frc consts  --     20.2375
 IR Inten    --    458.6331

 - Thermochemistry -
 -------------------
 Temperature   298.150 Kelvin.  Pressure   1.00000 Atm.
 Atom     1 has atomic number  1 and mass   1.00783

 Molecular mass:    21.01405 amu.
 Principal axes and moments of inertia in atomic units:
                           1         2         3
     Eigenvalues --     0.00000  26.14396  26.14396
           X            1.00000  -0.00000   0.00000
           Y            0.00000   1.00000   0.00000
           Z            0.00000   0.00000   1.00000
 This molecule is a prolate symmetric top.
 Rotational symmetry number  1.
 Rotational temperature (Kelvin)      3.31296
 Rotational constant (GHZ):          69.030914
    2 imaginary frequencies ignored.
 Zero-point vibrational energy      36339.9 (Joules/Mol)
                                    8.68546 (Kcal/Mol)
 Warning -- explicit consideration of   1 degrees of freedom as
           vibrations may cause significant error
 Vibrational temperatures:    341.97  8399.41
          (Kelvin)

 Zero-point correction=                           0.013841 (Hartree/Particle)
 Thermal correction to Energy=                    0.016706
 Thermal correction to Enthalpy=                  0.017650
 Thermal correction to Gibbs Free Energy=        -0.005724
 Sum of electronic and zero-point Energies=           -100.913050
 Sum of electronic and thermal Energies=              -100.910186
 Sum of electronic and thermal Enthalpies=            -100.909242
 Sum of electronic and thermal Free Energies=         -100.932616

                     E (Thermal)             CV                S
                      KCal/Mol        Cal/Mol-Kelvin    Cal/Mol-Kelvin
 Total                   10.483              6.751             49.195
 Electronic               0.000              0.000              1.377
 Translational            0.889              2.981             35.068
 Rotational               0.592              1.987             10.929
 Vibrational              9.002              1.783              1.820
 Vibration     1          0.656              1.783              1.820

 Normal termination of Gaussian 16 at Fri Aug 22 16:33:05 2025.
