 Gaussian 16, Revision C.01,
 Gaussian 16:  ES64L-G16RevC.01  3-Jul-2019

 -----------------------------------------
 # sp b3lyp/6-311g** Force nosymm scf=(qc)
 -----------------------------------------

 -------------------
 Title Card Required
 -------------------
 Symbolic Z-matrix:
 Charge =  0 Multiplicity = 2

                          Input orientation:
 ---------------------------------------------------------------------
 Center     Atomic      Atomic             Coordinates (Angstroms)
 Number     Number       Type             X           Y           Z
 ---------------------------------------------------------------------
      1          1           0        0.000000    0.000000    0.000000
      2          1           0       -0.800000    0.000000    0.000000
      3          9           0        1.150000    0.000000    0.000000
 ---------------------------------------------------------------------

 SCF Done:  E(UB3LYP) =  -100.945392839     a.u. after    6 cycles

 Alpha  occ. eigenvalues --  -24.67148  -1.17147  -0.59475  -0.40561  -0.40561
 Alpha  occ. eigenvalues --   -0.37804
 Alpha virt. eigenvalues --    0.11515   0.18858   0.46844   0.88010   0.88010
 Alpha virt. eigenvalues --    0.96651   1.08907   1.08907   1.44361   1.66104
 Alpha virt. eigenvalues --    1.74382   1.74382   2.09164   2.33603   3.13279

  Beta  occ. eigenvalues --  -24.65344  -1.12512  -0.51483  -0.38892  -0.38892
  Beta virt. eigenvalues --   -0.20289   0.13451   0.20211   0.51531   0.89597
  Beta virt. eigenvalues --    0.89597   1.00481   1.12944   1.12944   1.47250
  Beta virt. eigenvalues --    1.72364   1.77661   1.77661   2.09528   2.41119

 Mulliken charges and spin densities:
               1          2
     1  H    0.258465  -0.034729
     2  H   -0.000860   0.534863
     3  F   -0.257605   0.499866
 Sum of Mulliken charges =   0.00000   1.00000

 Dipole moment (field-independent basis, Debye):
    X=             -1.6989    Y=              0.0000    Z=             -0.0000  Tot=              1.6989
 Quadrupole moment (field-independent basis, Debye-Ang):
   XX=             -7.4379   YY=             -6.6593   ZZ=             -6.6593
   XY=              0.0000   XZ=             -0.0000   YZ=              0.0000

  Exact polarizability:      17.113       0.000       2.504       0.000      -0.000       2.504
 Approx polarizability:      22.071       0.000       2.537      -0.000      -0.000       2.537

 ******    2 imaginary frequencies (negative Signs) ******

                      1                      2                      3
                      A                      A                      A
 Frequencies --  -1039.0110             -1039.0110               555.4070
 Red. masses --      1.0141                 1.0141                 1.0984
 Frc consts  --      0.6450                 0.6450                 0.1996
 IR Inten    --     17.8206                17.8206                52.9452

                      4
                      A
 Frequencies --   2860.7673
 Red. masses --      1.0163
 Frc consts  --      4.9006
 IR Inten    --    342.7361

 - Thermochemistry -
 -------------------
 Temperature   298.150 Kelvin.  Pressure   1.00000 Atm.
 Atom     1 has atomic number  1 and mass   1.00783

 Molecular mass:    21.01405 amu.
 Principal axes and moments of inertia in atomic units:
                           1         2         3
     Eigenvalues --     0.00000  16.78617  16.78617
           X            1.00000  -0.00000   0.00000
           Y            0.00000   1.00000   0.00000
           Z            0.00000   0.00000   1.00000
 This molecule is a prolate symmetric top.
 Rotational symmetry number  1.
 Rotational temperature (Kelvin)      5.15984
 Rotational constant (GHZ):         107.513602
    2 imaginary frequencies ignored.
 Zero-point vibrational energy      20433.3 (Joules/Mol)
                                    4.88367 (Kcal/Mol)
 Warning -- explicit consideration of   1 degrees of freedom as
           vibrations may cause significant error
 Vibrational temperatures:    799.11  4116.01
          (Kelvin)

 Zero-point correction=                           0.007783 (Hartree/Particle)
 Thermal correction to Energy=                    0.010329
 Thermal correction to Enthalpy=                  0.011274
 Thermal correction to Gibbs Free Energy=        -0.011071
 Sum of electronic and zero-point Energies=           -100.937610
 Sum of electronic and thermal Energies=              -100.935064
 Sum of electronic and thermal Enthalpies=            -100.934119
 Sum of electronic and thermal Free Energies=         -100.956463

                     E (Thermal)             CV                S
                      KCal/Mol        Cal/Mol-Kelvin    Cal/Mol-Kelvin
 Total                    6.482              6.096             47.027
 Electronic               0.000              0.000              1.377
 Translational            0.889              2.981             35.068
 Rotational               0.592              1.987             10.049
 Vibrational              5.001              1.128              0.533
 Vibration     1          0.911              1.128              0.533

 Normal termination of Gaussian 16 at Fri Aug 22 16:06:53 2025.
