 Gaussian 16, Revision C.01,
 Gaussian 16:  ES64L-G16RevC.01  3-Jul-2019

 -----------------------------------------
 # sp b3lyp/6-311g** Force nosymm scf=(qc)
 -----------------------------------------

 -------------------
 Title Card Required
 -------------------
 Symbolic Z-matrix:
 Charge =  0 Multiplicity = 2

                          Input orientation:
 ---------------------------------------------------------------------
 Center     Atomic      Atomic             Coordinates (Angstroms)
 Number     Number       Type             X           Y           Z
 ---------------------------------------------------------------------
      1          1           0        0.000000    0.000000    0.000000
      2          1           0       -1.700000    0.000000    0.000000
      3          9           0        1.550000    0.000000    0.000000
 ---------------------------------------------------------------------

 SCF Done:  E(UB3LYP) =  -100.859569576     a.u. after   13 cycles

 Alpha  occ. eigenvalues --  -24.64566  -1.10959  -0.45540  -0.38183  -0.36765
 Alpha  occ. eigenvalues --   -0.36765
 Alpha virt. eigenvalues --   -0.09792   0.21894   0.28501   0.94213   0.94213
 Alpha virt. eigenvalues --    0.94338   1.03936   1.17906   1.17906   1.36121
 Alpha virt. eigenvalues --    1.36121   1.40705   1.77322   2.14044   2.35129

  Beta  occ. eigenvalues --  -24.63258  -1.07447  -0.40858  -0.35511  -0.35511
  Beta virt. eigenvalues --   -0.20751  -0.06493   0.25230   0.30111   0.94114
  Beta virt. eigenvalues --    0.94114   0.98602   1.06772   1.25985   1.25985
  Beta virt. eigenvalues --    1.37468   1.37468   1.47815   1.79646   2.17584

 Mulliken charges and spin densities:
               1          2
     1  H    0.254689  -0.253248
     2  H    0.066295   0.845099
     3  F   -0.320983   0.408149
 Sum of Mulliken charges =   0.00000   1.00000

 Dipole moment (field-independent basis, Debye):
    X=             -2.9851    Y=              0.0000    Z=             -0.0000  Tot=              2.9851
 Quadrupole moment (field-independent basis, Debye-Ang):
   XX=             -8.4730   YY=             -7.3026   ZZ=             -7.3026
   XY=              0.0000   XZ=             -0.0000   YZ=             -0.0000

  Exact polarizability:      36.298       0.000       2.239      -0.000      -0.000       2.239
 Approx polarizability:      50.510       0.000       2.170      -0.000       0.000       2.170

 ******    2 imaginary frequencies (negative Signs) ******

                      1                      2                      3
                      A                      A                      A
 Frequencies --  -2365.3589              -513.9431               980.8399
 Red. masses --      1.0270                 1.0862                 1.0191
 Frc consts  --      3.3853                 0.1690                 0.5776
 IR Inten    --    115.9920                 0.1961                37.2642

                      4
                      A
 Frequencies --    980.8399
 Red. masses --      1.0191
 Frc consts  --      0.5776
 IR Inten    --     37.2642

 - Thermochemistry -
 -------------------
 Temperature   298.150 Kelvin.  Pressure   1.00000 Atm.
 Atom     1 has atomic number  1 and mass   1.00783

 Molecular mass:    21.01405 amu.
 Principal axes and moments of inertia in atomic units:
                           1         2         3
     Eigenvalues --     0.00000  42.68428  42.68428
           X            1.00000  -0.00000   0.00000
           Y            0.00000   1.00000   0.00000
           Z            0.00000   0.00000   1.00000
 This molecule is a prolate symmetric top.
 Rotational symmetry number  1.
 Rotational temperature (Kelvin)      2.02918
 Rotational constant (GHZ):          42.281165
    2 imaginary frequencies ignored.
 Zero-point vibrational energy      11733.5 (Joules/Mol)
                                    2.80436 (Kcal/Mol)
 Vibrational temperatures:   1411.21  1411.21
          (Kelvin)

 Zero-point correction=                           0.004469 (Hartree/Particle)
 Thermal correction to Energy=                    0.006909
 Thermal correction to Enthalpy=                  0.007853
 Thermal correction to Gibbs Free Energy=        -0.015215
 Sum of electronic and zero-point Energies=           -100.855101
 Sum of electronic and thermal Energies=              -100.852661
 Sum of electronic and thermal Enthalpies=            -100.851717
 Sum of electronic and thermal Free Energies=         -100.874785

                     E (Thermal)             CV                S
                      KCal/Mol        Cal/Mol-Kelvin    Cal/Mol-Kelvin
 Total                    4.335              5.765             48.551
 Electronic               0.000              0.000              1.377
 Translational            0.889              2.981             35.068
 Rotational               0.592              1.987             11.903
 Vibrational              2.854              0.797              0.202

 Normal termination of Gaussian 16 at Fri Aug 22 16:28:00 2025.
