 Gaussian 16, Revision C.01,
 Gaussian 16:  ES64L-G16RevC.01  3-Jul-2019

 -----------------------------------------
 # sp b3lyp/6-311g** Force nosymm scf=(qc)
 -----------------------------------------

 -------------------
 Title Card Required
 -------------------
 Symbolic Z-matrix:
 Charge =  0 Multiplicity = 2

                          Input orientation:
 ---------------------------------------------------------------------
 Center     Atomic      Atomic             Coordinates (Angstroms)
 Number     Number       Type             X           Y           Z
 ---------------------------------------------------------------------
      1          1           0        0.000000    0.000000    0.000000
      2          1           0       -0.900000    0.000000    0.000000
      3          9           0        2.050000    0.000000    0.000000
 ---------------------------------------------------------------------

 SCF Done:  E(UB3LYP) =  -100.924019678     a.u. after    8 cycles

 Alpha  occ. eigenvalues --  -24.74434  -1.20540  -0.54162  -0.45034  -0.45034
 Alpha  occ. eigenvalues --   -0.42101
 Alpha virt. eigenvalues --    0.03322   0.20852   0.40762   0.90516   0.91077
 Alpha virt. eigenvalues --    0.91077   1.06871   1.06871   1.12082   1.53529
 Alpha virt. eigenvalues --    1.70636   1.70636   2.16366   2.36616   2.74716

  Beta  occ. eigenvalues --  -24.71442  -1.12016  -0.42149  -0.42051  -0.42051
  Beta virt. eigenvalues --   -0.25554   0.04287   0.21424   0.41225   0.92433
  Beta virt. eigenvalues --    0.92433   0.98389   1.07606   1.07606   1.15365
  Beta virt. eigenvalues --    1.55224   1.71094   1.71094   2.17183   2.37358

 Mulliken charges and spin densities:
               1          2
     1  H    0.010035  -0.035743
     2  H    0.033815   0.096105
     3  F   -0.043850   0.939638
 Sum of Mulliken charges =   0.00000   1.00000

 Dipole moment (field-independent basis, Debye):
    X=             -0.5771    Y=             -0.0000    Z=             -0.0000  Tot=              0.5771
 Quadrupole moment (field-independent basis, Debye-Ang):
   XX=             -6.2194   YY=             -7.1008   ZZ=             -7.1008
   XY=             -0.0000   XZ=             -0.0000   YZ=              0.0000

  Exact polarizability:      24.381      -0.000       2.131      -0.000       0.000       2.131
 Approx polarizability:      28.940      -0.000       2.174      -0.000      -0.000       2.174

 ******    1 imaginary frequencies (negative Signs) ******

                      1                      2                      3
                      A                      A                      A
 Frequencies --   -307.5019              1356.7497              1356.7497
 Red. masses --      1.1083                 1.0110                 1.0110
 Frc consts  --      0.0617                 1.0965                 1.0965
 IR Inten    --     50.4498                 0.0992                 0.0992

                      4
                      A
 Frequencies --   2503.6210
 Red. masses --      1.0080
 Frc consts  --      3.7227
 IR Inten    --    368.7545

 - Thermochemistry -
 -------------------
 Temperature   298.150 Kelvin.  Pressure   1.00000 Atm.
 Atom     1 has atomic number  1 and mass   1.00783

 Molecular mass:    21.01405 amu.
 Principal axes and moments of inertia in atomic units:
                           1         2         3
     Eigenvalues --     0.00000  42.13003  42.13003
           X            1.00000  -0.00000   0.00000
           Y            0.00000   1.00000   0.00000
           Z            0.00000   0.00000   1.00000
 This molecule is a prolate symmetric top.
 Rotational symmetry number  1.
 Rotational temperature (Kelvin)      2.05587
 Rotational constant (GHZ):          42.837404
    1 imaginary frequencies ignored.
 Zero-point vibrational energy      31205.3 (Joules/Mol)
                                    7.45825 (Kcal/Mol)
 Vibrational temperatures:   1952.06  1952.06  3602.15
          (Kelvin)

 Zero-point correction=                           0.011885 (Hartree/Particle)
 Thermal correction to Energy=                    0.014264
 Thermal correction to Enthalpy=                  0.015208
 Thermal correction to Gibbs Free Energy=        -0.007772
 Sum of electronic and zero-point Energies=           -100.912134
 Sum of electronic and thermal Energies=              -100.909756
 Sum of electronic and thermal Enthalpies=            -100.908812
 Sum of electronic and thermal Free Energies=         -100.931792

                     E (Thermal)             CV                S
                      KCal/Mol        Cal/Mol-Kelvin    Cal/Mol-Kelvin
 Total                    8.951              5.215             48.366
 Electronic               0.000              0.000              1.377
 Translational            0.889              2.981             35.068
 Rotational               0.592              1.987             11.877
 Vibrational              7.469              0.247              0.043

 Normal termination of Gaussian 16 at Fri Aug 22 16:59:07 2025.
