 Gaussian 16, Revision C.01,
 Gaussian 16:  ES64L-G16RevC.01  3-Jul-2019

 -----------------------------------------
 # sp b3lyp/6-311g** Force nosymm scf=(qc)
 -----------------------------------------

 -------------------
 Title Card Required
 -------------------
 Symbolic Z-matrix:
 Charge =  0 Multiplicity = 2

                          Input orientation:
 ---------------------------------------------------------------------
 Center     Atomic      Atomic             Coordinates (Angstroms)
 Number     Number       Type             X           Y           Z
 ---------------------------------------------------------------------
      1          1           0        0.000000    0.000000    0.000000
      2          1           0       -0.750000    0.000000    0.000000
      3          9           0        2.200000    0.000000    0.000000
 ---------------------------------------------------------------------

 SCF Done:  E(UB3LYP) =  -100.934242514     a.u. after    5 cycles

 Alpha  occ. eigenvalues --  -24.75535  -1.21513  -0.55032  -0.45919  -0.45919
 Alpha  occ. eigenvalues --   -0.44205
 Alpha virt. eigenvalues --    0.06634   0.20226   0.46306   0.90200   0.90925
 Alpha virt. eigenvalues --    0.90925   1.07489   1.07489   1.13968   1.57388
 Alpha virt. eigenvalues --    1.81309   1.81309   1.96206   2.39413   3.27146

  Beta  occ. eigenvalues --  -24.72450  -1.12678  -0.44290  -0.42834  -0.42834
  Beta virt. eigenvalues --   -0.25964   0.07283   0.20672   0.46589   0.92358
  Beta virt. eigenvalues --    0.92358   0.98393   1.07847   1.07847   1.17892
  Beta virt. eigenvalues --    1.58153   1.81501   1.81501   1.96517   2.39815

 Mulliken charges and spin densities:
               1          2
     1  H   -0.008707  -0.016707
     2  H    0.024567   0.044276
     3  F   -0.015860   0.972432
 Sum of Mulliken charges =   0.00000   1.00000

 Dipole moment (field-independent basis, Debye):
    X=             -0.2563    Y=             -0.0000    Z=              0.0000  Tot=              0.2563
 Quadrupole moment (field-independent basis, Debye-Ang):
   XX=             -5.7982   YY=             -6.9323   ZZ=             -6.9323
   XY=             -0.0000   XZ=              0.0000   YZ=             -0.0000

  Exact polarizability:      15.494       0.000       2.050      -0.000      -0.000       2.050
 Approx polarizability:      16.717      -0.000       2.104       0.000       0.000       2.104

 ******    3 imaginary frequencies (negative Signs) ******

                      1                      2                      3
                      A                      A                      A
 Frequencies --   -487.0264              -487.0264              -160.0832
 Red. masses --      1.0099                 1.0099                 1.1085
 Frc consts  --      0.1411                 0.1411                 0.0167
 IR Inten    --      0.0492                 0.0492                12.2219

                      4
                      A
 Frequencies --   4293.6380
 Red. masses --      1.0078
 Frc consts  --     10.9468
 IR Inten    --    117.5484

 - Thermochemistry -
 -------------------
 Temperature   298.150 Kelvin.  Pressure   1.00000 Atm.
 Atom     1 has atomic number  1 and mass   1.00783

 Molecular mass:    21.01405 amu.
 Principal axes and moments of inertia in atomic units:
                           1         2         3
     Eigenvalues --     0.00000  44.16161  44.16161
           X            1.00000  -0.00000   0.00000
           Y            0.00000   1.00000   0.00000
           Z            0.00000   0.00000   1.00000
 This molecule is a prolate symmetric top.
 Rotational symmetry number  1.
 Rotational temperature (Kelvin)      1.96129
 Rotational constant (GHZ):          40.866747
    3 imaginary frequencies ignored.
 Zero-point vibrational energy      25681.7 (Joules/Mol)
                                    6.13806 (Kcal/Mol)
 Vibrational temperatures:   6177.59
          (Kelvin)

 Zero-point correction=                           0.009782 (Hartree/Particle)
 Thermal correction to Energy=                    0.012142
 Thermal correction to Enthalpy=                  0.013086
 Thermal correction to Gibbs Free Energy=        -0.009918
 Sum of electronic and zero-point Energies=           -100.924461
 Sum of electronic and thermal Energies=              -100.922100
 Sum of electronic and thermal Enthalpies=            -100.921156
 Sum of electronic and thermal Free Energies=         -100.944160

                     E (Thermal)             CV                S
                      KCal/Mol        Cal/Mol-Kelvin    Cal/Mol-Kelvin
 Total                    7.619              4.968             48.416
 Electronic               0.000              0.000              1.377
 Translational            0.889              2.981             35.068
 Rotational               0.592              1.987             11.971
 Vibrational              6.138              0.000              0.000

 Normal termination of Gaussian 16 at Fri Aug 22 17:10:30 2025.
