 Gaussian 16, Revision C.01,
 Gaussian 16:  ES64L-G16RevC.01  3-Jul-2019

 -----------------------------------------
 # sp b3lyp/6-311g** Force nosymm scf=(qc)
 -----------------------------------------

 -------------------
 Title Card Required
 -------------------
 Symbolic Z-matrix:
 Charge =  0 Multiplicity = 2

                          Input orientation:
 ---------------------------------------------------------------------
 Center     Atomic      Atomic             Coordinates (Angstroms)
 Number     Number       Type             X           Y           Z
 ---------------------------------------------------------------------
      1          1           0        0.000000    0.000000    0.000000
      2          1           0       -0.950000    0.000000    0.000000
      3          9           0        0.950000    0.000000    0.000000
 ---------------------------------------------------------------------

 SCF Done:  E(UB3LYP) =  -100.954401067     a.u. after    6 cycles

 Alpha  occ. eigenvalues --  -24.65131  -1.19420  -0.59691  -0.40310  -0.40310
 Alpha  occ. eigenvalues --   -0.35881
 Alpha virt. eigenvalues --    0.13761   0.18573   0.49446   0.89451   0.89451
 Alpha virt. eigenvalues --    0.96589   1.08239   1.08239   1.44099   1.64436
 Alpha virt. eigenvalues --    1.64436   1.70034   2.16162   2.31353   3.15710

  Beta  occ. eigenvalues --  -24.64198  -1.17052  -0.54214  -0.39482  -0.39482
  Beta virt. eigenvalues --   -0.17712   0.15589   0.21458   0.55057   0.91202
  Beta virt. eigenvalues --    0.91202   0.98483   1.13788   1.13788   1.46159
  Beta virt. eigenvalues --    1.69376   1.69376   1.79169   2.16391   2.43696

 Mulliken charges and spin densities:
               1          2
     1  H    0.275712  -0.016494
     2  H    0.002906   0.786002
     3  F   -0.278618   0.230492
 Sum of Mulliken charges =   0.00000   1.00000

 Dipole moment (field-independent basis, Debye):
    X=             -1.8027    Y=              0.0000    Z=             -0.0000  Tot=              1.8027
 Quadrupole moment (field-independent basis, Debye-Ang):
   XX=             -7.5930   YY=             -6.6339   ZZ=             -6.6339
   XY=              0.0000   XZ=             -0.0000   YZ=             -0.0000

  Exact polarizability:      13.413      -0.000       2.579       0.000       0.000       2.579
 Approx polarizability:      15.377       0.000       2.615       0.000       0.000       2.615

 ******    2 imaginary frequencies (negative Signs) ******

                      1                      2                      3
                      A                      A                      A
 Frequencies --  -1094.5872             -1094.5872              1779.9597
 Red. masses --      1.0179                 1.0179                 1.0528
 Frc consts  --      0.7186                 0.7186                 1.9652
 IR Inten    --     61.8877                61.8877                86.4480

                      4
                      A
 Frequencies --   3108.2288
 Red. masses --      1.0588
 Frc consts  --      6.0267
 IR Inten    --      9.4743

 - Thermochemistry -
 -------------------
 Temperature   298.150 Kelvin.  Pressure   1.00000 Atm.
 Atom     1 has atomic number  1 and mass   1.00783

 Molecular mass:    21.01405 amu.
 Principal axes and moments of inertia in atomic units:
                           1         2         3
     Eigenvalues --     0.00000  14.83853  14.83853
           X            1.00000  -0.00000   0.00000
           Y            0.00000   1.00000   0.00000
           Z            0.00000   0.00000   1.00000
 This molecule is a prolate symmetric top.
 Rotational symmetry number  1.
 Rotational temperature (Kelvin)      5.83710
 Rotational constant (GHZ):         121.625366
    2 imaginary frequencies ignored.
 Zero-point vibrational energy      29237.9 (Joules/Mol)
                                    6.98802 (Kcal/Mol)
 Vibrational temperatures:   2560.96  4472.05
          (Kelvin)

 Zero-point correction=                           0.011136 (Hartree/Particle)
 Thermal correction to Energy=                    0.013498
 Thermal correction to Enthalpy=                  0.014442
 Thermal correction to Gibbs Free Energy=        -0.007534
 Sum of electronic and zero-point Energies=           -100.943265
 Sum of electronic and thermal Energies=              -100.940903
 Sum of electronic and thermal Enthalpies=            -100.939959
 Sum of electronic and thermal Free Energies=         -100.961935

                     E (Thermal)             CV                S
                      KCal/Mol        Cal/Mol-Kelvin    Cal/Mol-Kelvin
 Total                    8.470              4.995             46.253
 Electronic               0.000              0.000              1.377
 Translational            0.889              2.981             35.068
 Rotational               0.592              1.987              9.804
 Vibrational              6.989              0.027              0.004

 Normal termination of Gaussian 16 at Fri Aug 22 15:57:26 2025.
