 Gaussian 16, Revision C.01,
 Gaussian 16:  ES64L-G16RevC.01  3-Jul-2019

 -----------------------------------------
 # sp b3lyp/6-311g** Force nosymm scf=(qc)
 -----------------------------------------

 -------------------
 Title Card Required
 -------------------
 Symbolic Z-matrix:
 Charge =  0 Multiplicity = 2

                          Input orientation:
 ---------------------------------------------------------------------
 Center     Atomic      Atomic             Coordinates (Angstroms)
 Number     Number       Type             X           Y           Z
 ---------------------------------------------------------------------
      1          1           0        0.000000    0.000000    0.000000
      2          1           0       -2.800000    0.000000    0.000000
      3          9           0        1.900000    0.000000    0.000000
 ---------------------------------------------------------------------

 SCF Done:  E(UB3LYP) =  -100.796274696     a.u. after   14 cycles

 Alpha  occ. eigenvalues --  -24.67354  -1.13636  -0.46271  -0.39003  -0.39003
 Alpha  occ. eigenvalues --   -0.34449
 Alpha virt. eigenvalues --   -0.14300   0.23111   0.30451   0.90872   0.94936
 Alpha virt. eigenvalues --    0.94936   1.06073   1.23120   1.23120   1.24443
 Alpha virt. eigenvalues --    1.34417   1.34417   1.65386   2.14059   2.28065

  Beta  occ. eigenvalues --  -24.65177  -1.07589  -0.38494  -0.36866  -0.36866
  Beta virt. eigenvalues --   -0.20089  -0.08835   0.23652   0.35989   0.92144
  Beta virt. eigenvalues --    0.95277   0.95277   1.08402   1.22838   1.22838
  Beta virt. eigenvalues --    1.43182   1.43217   1.43217   1.59968   2.13099

 Mulliken charges and spin densities:
               1          2
     1  H    0.213261  -0.670409
     2  H    0.009922   0.985765
     3  F   -0.223183   0.684643
 Sum of Mulliken charges =   0.00000   1.00000

 Dipole moment (field-independent basis, Debye):
    X=             -2.2152    Y=              0.0000    Z=              0.0000  Tot=              2.2152
 Quadrupole moment (field-independent basis, Debye-Ang):
   XX=             -9.7515   YY=             -7.4826   ZZ=             -7.4826
   XY=             -0.0000   XZ=              0.0000   YZ=             -0.0000

  Exact polarizability:      30.737      -0.000       2.077      -0.000       0.000       2.077
 Approx polarizability:      40.955       0.000       1.966      -0.000       0.000       1.966

 ******    2 imaginary frequencies (negative Signs) ******

                      1                      2                      3
                      A                      A                      A
 Frequencies --  -1330.7442              -275.4298               562.2882
 Red. masses --      1.0530                 1.0586                 1.0233
 Frc consts  --      1.0987                 0.0473                 0.1906
 IR Inten    --    113.6092                 5.0405                39.7187

                      4
                      A
 Frequencies --    562.2882
 Red. masses --      1.0233
 Frc consts  --      0.1906
 IR Inten    --     39.7187

 - Thermochemistry -
 -------------------
 Temperature   298.150 Kelvin.  Pressure   1.00000 Atm.
 Atom     1 has atomic number  1 and mass   1.00783

 Molecular mass:    21.01405 amu.
 Principal axes and moments of inertia in atomic units:
                           1         2         3
     Eigenvalues --     0.00000  84.97576  84.97576
           X            1.00000  -0.00000   0.00000
           Y            0.00000   1.00000   0.00000
           Z            0.00000   0.00000   1.00000
 This molecule is a prolate symmetric top.
 Rotational symmetry number  1.
 Rotational temperature (Kelvin)      1.01928
 Rotational constant (GHZ):          21.238306
    2 imaginary frequencies ignored.
 Zero-point vibrational energy       6726.5 (Joules/Mol)
                                    1.60766 (Kcal/Mol)
 Warning -- explicit consideration of   2 degrees of freedom as
           vibrations may cause significant error
 Vibrational temperatures:    809.01   809.01
          (Kelvin)

 Zero-point correction=                           0.002562 (Hartree/Particle)
 Thermal correction to Energy=                    0.005286
 Thermal correction to Enthalpy=                  0.006231
 Thermal correction to Gibbs Free Energy=        -0.017885
 Sum of electronic and zero-point Energies=           -100.793713
 Sum of electronic and thermal Energies=              -100.790988
 Sum of electronic and thermal Enthalpies=            -100.790044
 Sum of electronic and thermal Free Energies=         -100.814160

                     E (Thermal)             CV                S
                      KCal/Mol        Cal/Mol-Kelvin    Cal/Mol-Kelvin
 Total                    3.317              7.194             50.756
 Electronic               0.000              0.000              1.377
 Translational            0.889              2.981             35.068
 Rotational               0.592              1.987             13.272
 Vibrational              1.836              2.226              1.039
 Vibration     1          0.918              1.113              0.519
 Vibration     2          0.918              1.113              0.519

 Normal termination of Gaussian 16 at Fri Aug 22 16:50:43 2025.
