 Gaussian 16, Revision C.01,
 Gaussian 16:  ES64L-G16RevC.01  3-Jul-2019

 -----------------------------------------
 # sp b3lyp/6-311g** Force nosymm scf=(qc)
 -----------------------------------------

 -------------------
 Title Card Required
 -------------------
 Symbolic Z-matrix:
 Charge =  0 Multiplicity = 2

                          Input orientation:
 ---------------------------------------------------------------------
 Center     Atomic      Atomic             Coordinates (Angstroms)
 Number     Number       Type             X           Y           Z
 ---------------------------------------------------------------------
      1          1           0        0.000000    0.000000    0.000000
      2          1           0       -0.600000    0.000000    0.000000
      3          9           0        2.050000    0.000000    0.000000
 ---------------------------------------------------------------------

 SCF Done:  E(UB3LYP) =  -100.914535350     a.u. after    6 cycles

 Alpha  occ. eigenvalues --  -24.75446  -1.21471  -0.55478  -0.47314  -0.45865
 Alpha  occ. eigenvalues --   -0.45865
 Alpha virt. eigenvalues --    0.09999   0.19809   0.49834   0.90590   0.90590
 Alpha virt. eigenvalues --    0.92217   1.09335   1.09335   1.16717   1.64081
 Alpha virt. eigenvalues --    1.81218   1.91843   1.91843   2.42202   3.67460

  Beta  occ. eigenvalues --  -24.72359  -1.12649  -0.47899  -0.42783  -0.42783
  Beta virt. eigenvalues --   -0.25770   0.10584   0.20359   0.50322   0.91999
  Beta virt. eigenvalues --    0.91999   1.00081   1.09762   1.09762   1.20602
  Beta virt. eigenvalues --    1.64946   1.81623   1.92012   1.92012   2.42730

 Mulliken charges and spin densities:
               1          2
     1  H   -0.006130  -0.016956
     2  H    0.024390   0.046867
     3  F   -0.018260   0.970089
 Sum of Mulliken charges =   0.00000   1.00000

 Dipole moment (field-independent basis, Debye):
    X=             -0.2415    Y=             -0.0000    Z=             -0.0000  Tot=              0.2415
 Quadrupole moment (field-independent basis, Debye-Ang):
   XX=             -5.7663   YY=             -6.7143   ZZ=             -6.7143
   XY=             -0.0000   XZ=             -0.0000   YZ=              0.0000

  Exact polarizability:      11.898      -0.000       1.998       0.000      -0.000       1.998
 Approx polarizability:      12.457      -0.000       2.074       0.000      -0.000       2.074

 ******    2 imaginary frequencies (negative Signs) ******

                      1                      2                      3
                      A                      A                      A
 Frequencies --  -2805.3376             -2805.3376               116.6762
 Red. masses --      1.0094                 1.0094                 1.1085
 Frc consts  --      4.6806                 4.6806                 0.0089
 IR Inten    --      0.4948                 0.4948                11.4423

                      4
                      A
 Frequencies --   7009.7143
 Red. masses --      1.0078
 Frc consts  --     29.1767
 IR Inten    --    103.4047

 - Thermochemistry -
 -------------------
 Temperature   298.150 Kelvin.  Pressure   1.00000 Atm.
 Atom     1 has atomic number  1 and mass   1.00783

 Molecular mass:    21.01405 amu.
 Principal axes and moments of inertia in atomic units:
                           1         2         3
     Eigenvalues --     0.00000  36.58598  36.58598
           X            1.00000  -0.00000   0.00000
           Y            0.00000   1.00000   0.00000
           Z            0.00000   0.00000   1.00000
 This molecule is a prolate symmetric top.
 Rotational symmetry number  1.
 Rotational temperature (Kelvin)      2.36741
 Rotational constant (GHZ):          49.328759
    2 imaginary frequencies ignored.
 Zero-point vibrational energy      42625.3 (Joules/Mol)
                                   10.18769 (Kcal/Mol)
 Warning -- explicit consideration of   1 degrees of freedom as
           vibrations may cause significant error
 Vibrational temperatures:    167.87 10085.42
          (Kelvin)

 Zero-point correction=                           0.016235 (Hartree/Particle)
 Thermal correction to Energy=                    0.019299
 Thermal correction to Enthalpy=                  0.020243
 Thermal correction to Gibbs Free Energy=        -0.004082
 Sum of electronic and zero-point Energies=           -100.898300
 Sum of electronic and thermal Energies=              -100.895237
 Sum of electronic and thermal Enthalpies=            -100.894292
 Sum of electronic and thermal Free Energies=         -100.918618

                     E (Thermal)             CV                S
                      KCal/Mol        Cal/Mol-Kelvin    Cal/Mol-Kelvin
 Total                   12.110              6.904             51.197
 Electronic               0.000              0.000              1.377
 Translational            0.889              2.981             35.068
 Rotational               0.592              1.987             11.597
 Vibrational             10.629              1.936              3.155
 Vibration     1          0.608              1.936              3.155

 Normal termination of Gaussian 16 at Fri Aug 22 16:58:54 2025.
