 Gaussian 16, Revision C.01,
 Gaussian 16:  ES64L-G16RevC.01  3-Jul-2019

 -----------------------------------------
 # sp b3lyp/6-311g** Force nosymm scf=(qc)
 -----------------------------------------

 -------------------
 Title Card Required
 -------------------
 Symbolic Z-matrix:
 Charge =  0 Multiplicity = 2

                          Input orientation:
 ---------------------------------------------------------------------
 Center     Atomic      Atomic             Coordinates (Angstroms)
 Number     Number       Type             X           Y           Z
 ---------------------------------------------------------------------
      1          1           0        0.000000    0.000000    0.000000
      2          1           0       -3.800000    0.000000    0.000000
      3          9           0        2.350000    0.000000    0.000000
 ---------------------------------------------------------------------

 SCF Done:  E(UB3LYP) =  -100.771130913     a.u. after   15 cycles

 Alpha  occ. eigenvalues --  -24.70802  -1.17070  -0.49889  -0.41928  -0.41928
 Alpha  occ. eigenvalues --   -0.32912
 Alpha virt. eigenvalues --   -0.11186   0.23178   0.34439   0.88942   0.94076
 Alpha virt. eigenvalues --    0.94076   1.06181   1.24592   1.24592   1.24624
 Alpha virt. eigenvalues --    1.39052   1.39052   1.47166   2.14043   2.34869

  Beta  occ. eigenvalues --  -24.68054  -1.09275  -0.39194  -0.39194  -0.36019
  Beta virt. eigenvalues --   -0.22704  -0.06337   0.23500   0.38088   0.93588
  Beta virt. eigenvalues --    0.95342   0.95342   1.08280   1.21695   1.21695
  Beta virt. eigenvalues --    1.34990   1.46233   1.46448   1.46448   2.11779

 Mulliken charges and spin densities:
               1          2
     1  H    0.114379  -0.866293
     2  H    0.000500   0.998993
     3  F   -0.114879   0.867300
 Sum of Mulliken charges =  -0.00000   1.00000

 Dipole moment (field-independent basis, Debye):
    X=             -1.3729    Y=              0.0000    Z=             -0.0000  Tot=              1.3729
 Quadrupole moment (field-independent basis, Debye-Ang):
   XX=             -9.6075   YY=             -7.5486   ZZ=             -7.5486
   XY=              0.0000   XZ=             -0.0000   YZ=              0.0000

  Exact polarizability:      28.831       0.000       2.031      -0.000       0.000       2.031
 Approx polarizability:      38.521       0.000       1.923      -0.000      -0.000       1.923

 ******    2 imaginary frequencies (negative Signs) ******

                      1                      2                      3
                      A                      A                      A
 Frequencies --   -722.4983               -85.6583               293.8010
 Red. masses --      1.0568                 1.0547                 1.0247
 Frc consts  --      0.3250                 0.0046                 0.0521
 IR Inten    --     93.5997                 0.0686                12.6765

                      4
                      A
 Frequencies --    293.8010
 Red. masses --      1.0247
 Frc consts  --      0.0521
 IR Inten    --     12.6765

 - Thermochemistry -
 -------------------
 Temperature   298.150 Kelvin.  Pressure   1.00000 Atm.
 Atom     1 has atomic number  1 and mass   1.00783

 Molecular mass:    21.01405 amu.
 Principal axes and moments of inertia in atomic units:
                           1         2         3
     Eigenvalues --     0.00000 143.52818 143.52818
           X            1.00000  -0.00000   0.00000
           Y            0.00000   1.00000   0.00000
           Z            0.00000   0.00000   1.00000
 This molecule is a prolate symmetric top.
 Rotational symmetry number  1.
 Rotational temperature (Kelvin)      0.60346
 Rotational constant (GHZ):          12.574125
    2 imaginary frequencies ignored.
 Zero-point vibrational energy       3514.6 (Joules/Mol)
                                    0.84002 (Kcal/Mol)
 Warning -- explicit consideration of   2 degrees of freedom as
           vibrations may cause significant error
 Vibrational temperatures:    422.71   422.71
          (Kelvin)

 Zero-point correction=                           0.001339 (Hartree/Particle)
 Thermal correction to Energy=                    0.004555
 Thermal correction to Enthalpy=                  0.005499
 Thermal correction to Gibbs Free Energy=        -0.019998
 Sum of electronic and zero-point Energies=           -100.769792
 Sum of electronic and thermal Energies=              -100.766576
 Sum of electronic and thermal Enthalpies=            -100.765632
 Sum of electronic and thermal Free Energies=         -100.791128

                     E (Thermal)             CV                S
                      KCal/Mol        Cal/Mol-Kelvin    Cal/Mol-Kelvin
 Total                    2.858              8.339             53.663
 Electronic               0.000              0.000              1.377
 Translational            0.889              2.981             35.068
 Rotational               0.592              1.987             14.313
 Vibrational              1.377              3.371              2.904
 Vibration     1          0.689              1.685              1.452
 Vibration     2          0.689              1.685              1.452

 Normal termination of Gaussian 16 at Fri Aug 22 17:27:59 2025.
