 Gaussian 16, Revision C.01,
 Gaussian 16:  ES64L-G16RevC.01  3-Jul-2019

 -----------------------------------------
 # sp b3lyp/6-311g** Force nosymm scf=(qc)
 -----------------------------------------

 -------------------
 Title Card Required
 -------------------
 Symbolic Z-matrix:
 Charge =  0 Multiplicity = 2

                          Input orientation:
 ---------------------------------------------------------------------
 Center     Atomic      Atomic             Coordinates (Angstroms)
 Number     Number       Type             X           Y           Z
 ---------------------------------------------------------------------
      1          1           0        0.000000    0.000000    0.000000
      2          1           0       -1.300000    0.000000    0.000000
      3          9           0        3.950000    0.000000    0.000000
 ---------------------------------------------------------------------

 SCF Done:  E(UB3LYP) =  -100.853638216     a.u. after   66 cycles

 Alpha  occ. eigenvalues --  -24.76217  -1.22119  -0.55322  -0.46497  -0.46479
 Alpha  occ. eigenvalues --   -0.35303
 Alpha virt. eigenvalues --   -0.06190   0.23551   0.32688   0.86044   0.90922
 Alpha virt. eigenvalues --    0.91313   1.00877   1.15354   1.15355   1.15679
 Alpha virt. eigenvalues --    1.49452   1.49454   1.98293   2.28596   2.52528

  Beta  occ. eigenvalues --  -24.73061  -1.13046  -0.43334  -0.43315  -0.35303
  Beta virt. eigenvalues --   -0.25973  -0.06189   0.23553   0.32698   0.92422
  Beta virt. eigenvalues --    0.92807   0.95511   1.05026   1.15354   1.15355
  Beta virt. eigenvalues --    1.15682   1.49452   1.49454   1.98295   2.28596

 Mulliken charges and spin densities:
               1          2
     1  H    0.001033  -0.000033
     2  H   -0.001899  -0.000063
     3  F    0.000865   1.000096
 Sum of Mulliken charges =   0.00000   1.00000

 Dipole moment (field-independent basis, Debye):
    X=              0.0214    Y=              0.0000    Z=             -0.0000  Tot=              0.0214
 Quadrupole moment (field-independent basis, Debye-Ang):
   XX=             -6.3337   YY=             -6.8972   ZZ=             -7.4208
   XY=              0.0000   XZ=              0.0000   YZ=              0.3440

  Exact polarizability:      17.910       0.000       2.451       0.000       0.187       2.165
 Approx polarizability:      29.300       0.000       2.554       0.000       0.232       2.201

 ******    2 imaginary frequencies (negative Signs) ******

                      1                      2                      3
                      A                      A                      A
 Frequencies --   -971.1657               -60.6173              1394.6885
 Red. masses --      1.0078                 1.1085                 1.0098
 Frc consts  --      0.5600                 0.0024                 1.1573
 IR Inten    --      0.0559                 0.0397                 0.0050

                      4
                      A
 Frequencies --   1397.2792
 Red. masses --      1.0098
 Frc consts  --      1.1616
 IR Inten    --      0.0013

 - Thermochemistry -
 -------------------
 Temperature   298.150 Kelvin.  Pressure   1.00000 Atm.
 Atom     1 has atomic number  1 and mass   1.00783

 Molecular mass:    21.01405 amu.
 Principal axes and moments of inertia in atomic units:
                           1         2         3
     Eigenvalues --     0.00000 140.74175 140.74175
           X            1.00000  -0.00000   0.00000
           Y            0.00000   1.00000   0.00000
           Z            0.00000   0.00000   1.00000
 This molecule is a prolate symmetric top.
 Rotational symmetry number  1.
 Rotational temperature (Kelvin)      0.61541
 Rotational constant (GHZ):          12.823069
    2 imaginary frequencies ignored.
 Zero-point vibrational energy      16699.7 (Joules/Mol)
                                    3.99132 (Kcal/Mol)
 Vibrational temperatures:   2006.65  2010.37
          (Kelvin)

 Zero-point correction=                           0.006361 (Hartree/Particle)
 Thermal correction to Energy=                    0.008736
 Thermal correction to Enthalpy=                  0.009680
 Thermal correction to Gibbs Free Energy=        -0.014436
 Sum of electronic and zero-point Energies=           -100.847278
 Sum of electronic and thermal Energies=              -100.844902
 Sum of electronic and thermal Enthalpies=            -100.843958
 Sum of electronic and thermal Free Energies=         -100.868074

                     E (Thermal)             CV                S
                      KCal/Mol        Cal/Mol-Kelvin    Cal/Mol-Kelvin
 Total                    5.482              5.183             50.756
 Electronic               0.000              0.000              1.377
 Translational            0.889              2.981             35.068
 Rotational               0.592              1.987             14.274
 Vibrational              4.001              0.215              0.037

 Normal termination of Gaussian 16 at Sat Aug 23 01:32:29 2025.
