 Gaussian 16, Revision C.01,
 Gaussian 16:  ES64L-G16RevC.01  3-Jul-2019

 -----------------------------------------
 # sp b3lyp/6-311g** Force nosymm scf=(qc)
 -----------------------------------------

 -------------------
 Title Card Required
 -------------------
 Symbolic Z-matrix:
 Charge =  0 Multiplicity = 2

                          Input orientation:
 ---------------------------------------------------------------------
 Center     Atomic      Atomic             Coordinates (Angstroms)
 Number     Number       Type             X           Y           Z
 ---------------------------------------------------------------------
      1          1           0        0.000000    0.000000    0.000000
      2          1           0       -2.200000    0.000000    0.000000
      3          9           0        2.600000    0.000000    0.000000
 ---------------------------------------------------------------------

 SCF Done:  E(UB3LYP) =  -100.774015361     a.u. after   18 cycles

 Alpha  occ. eigenvalues --  -24.72371  -1.18538  -0.51477  -0.43227  -0.43227
 Alpha  occ. eigenvalues --   -0.34153
 Alpha virt. eigenvalues --   -0.12290   0.25074   0.32576   0.90325   0.93292
 Alpha virt. eigenvalues --    0.93292   1.06203   1.23678   1.23678   1.24699
 Alpha virt. eigenvalues --    1.36553   1.36553   1.43623   2.12705   2.33870

  Beta  occ. eigenvalues --  -24.69475  -1.10279  -0.40337  -0.40337  -0.34882
  Beta virt. eigenvalues --   -0.23817  -0.10790   0.26286   0.33274   0.94694
  Beta virt. eigenvalues --    0.94694   0.97982   1.09519   1.22896   1.22896
  Beta virt. eigenvalues --    1.25993   1.39027   1.39027   1.44833   2.13357

 Mulliken charges and spin densities:
               1          2
     1  H    0.055153  -0.844294
     2  H    0.018611   0.928547
     3  F   -0.073764   0.915747
 Sum of Mulliken charges =  -0.00000   1.00000

 Dipole moment (field-independent basis, Debye):
    X=             -1.1747    Y=              0.0000    Z=             -0.0000  Tot=              1.1747
 Quadrupole moment (field-independent basis, Debye-Ang):
   XX=             -8.3184   YY=             -7.6512   ZZ=             -7.6512
   XY=              0.0000   XZ=             -0.0000   YZ=             -0.0000

  Exact polarizability:      53.873       0.000       2.008      -0.000      -0.000       2.008
 Approx polarizability:      54.190       0.000       1.920      -0.000      -0.000       1.920

 ******    2 imaginary frequencies (negative Signs) ******

                      1                      2                      3
                      A                      A                      A
 Frequencies --  -1080.6926              -353.4718               424.0480
 Red. masses --      1.0101                 1.1057                 1.0160
 Frc consts  --      0.6951                 0.0814                 0.1076
 IR Inten    --     42.7612                41.5554                 2.0280

                      4
                      A
 Frequencies --    424.0480
 Red. masses --      1.0160
 Frc consts  --      0.1076
 IR Inten    --      2.0280

 - Thermochemistry -
 -------------------
 Temperature   298.150 Kelvin.  Pressure   1.00000 Atm.
 Atom     1 has atomic number  1 and mass   1.00783

 Molecular mass:    21.01405 amu.
 Principal axes and moments of inertia in atomic units:
                           1         2         3
     Eigenvalues --     0.00000  97.79850  97.79850
           X            1.00000  -0.00000   0.00000
           Y            0.00000   1.00000   0.00000
           Z            0.00000   0.00000   1.00000
 This molecule is a prolate symmetric top.
 Rotational symmetry number  1.
 Rotational temperature (Kelvin)      0.88564
 Rotational constant (GHZ):          18.453670
    2 imaginary frequencies ignored.
 Zero-point vibrational energy       5072.7 (Joules/Mol)
                                    1.21241 (Kcal/Mol)
 Warning -- explicit consideration of   2 degrees of freedom as
           vibrations may cause significant error
 Vibrational temperatures:    610.11   610.11
          (Kelvin)

 Zero-point correction=                           0.001932 (Hartree/Particle)
 Thermal correction to Energy=                    0.004866
 Thermal correction to Enthalpy=                  0.005810
 Thermal correction to Gibbs Free Energy=        -0.018779
 Sum of electronic and zero-point Energies=           -100.772083
 Sum of electronic and thermal Energies=              -100.769149
 Sum of electronic and thermal Enthalpies=            -100.768205
 Sum of electronic and thermal Free Energies=         -100.792795

                     E (Thermal)             CV                S
                      KCal/Mol        Cal/Mol-Kelvin    Cal/Mol-Kelvin
 Total                    3.053              7.804             51.753
 Electronic               0.000              0.000              1.377
 Translational            0.889              2.981             35.068
 Rotational               0.592              1.987             13.551
 Vibrational              1.572              2.836              1.757
 Vibration     1          0.786              1.418              0.878
 Vibration     2          0.786              1.418              0.878

 Normal termination of Gaussian 16 at Fri Aug 22 18:03:56 2025.
