 Gaussian 16, Revision C.01,
 Gaussian 16:  ES64L-G16RevC.01  3-Jul-2019

 -----------------------------------------
 # sp b3lyp/6-311g** Force nosymm scf=(qc)
 -----------------------------------------

 -------------------
 Title Card Required
 -------------------
 Symbolic Z-matrix:
 Charge =  0 Multiplicity = 2

                          Input orientation:
 ---------------------------------------------------------------------
 Center     Atomic      Atomic             Coordinates (Angstroms)
 Number     Number       Type             X           Y           Z
 ---------------------------------------------------------------------
      1          1           0        0.000000    0.000000    0.000000
      2          1           0       -2.900000    0.000000    0.000000
      3          9           0        1.400000    0.000000    0.000000
 ---------------------------------------------------------------------

 SCF Done:  E(UB3LYP) =  -100.877701146     a.u. after    7 cycles

 Alpha  occ. eigenvalues --  -24.64263  -1.10217  -0.44533  -0.36620  -0.36620
 Alpha  occ. eigenvalues --   -0.34742
 Alpha virt. eigenvalues --   -0.11591   0.22044   0.27520   0.93213   0.93213
 Alpha virt. eigenvalues --    1.03197   1.15917   1.22778   1.22778   1.23587
 Alpha virt. eigenvalues --    1.32779   1.32779   1.72294   2.13725   2.21819

  Beta  occ. eigenvalues --  -24.64215  -1.10094  -0.44386  -0.36575  -0.36575
  Beta virt. eigenvalues --   -0.13038  -0.06750   0.24997   0.37142   0.93200
  Beta virt. eigenvalues --    0.93200   1.03323   1.16153   1.32611   1.32611
  Beta virt. eigenvalues --    1.44519   1.44747   1.44747   1.72415   2.21553

 Mulliken charges and spin densities:
               1          2
     1  H    0.351949  -0.007597
     2  H    0.006666   0.992565
     3  F   -0.358615   0.015032
 Sum of Mulliken charges =  -0.00000   1.00000

 Dipole moment (field-independent basis, Debye):
    X=             -2.5902    Y=             -0.0000    Z=              0.0000  Tot=              2.5902
 Quadrupole moment (field-independent basis, Debye-Ang):
   XX=             -9.3267   YY=             -7.2654   ZZ=             -7.2654
   XY=             -0.0000   XZ=             -0.0000   YZ=              0.0000

  Exact polarizability:      15.623      -0.000       2.240       0.000       0.000       2.240
 Approx polarizability:      24.635      -0.000       2.176      -0.000       0.000       2.176

 ******    2 imaginary frequencies (negative Signs) ******

                      1                      2                      3
                      A                      A                      A
 Frequencies --  -1047.3551              -143.4566              1079.8179
 Red. masses --      1.0544                 1.0572                 1.0286
 Frc consts  --      0.6815                 0.0128                 0.7067
 IR Inten    --     80.3392                 0.8862               119.0358

                      4
                      A
 Frequencies --   1079.8179
 Red. masses --      1.0286
 Frc consts  --      0.7067
 IR Inten    --    119.0358

 - Thermochemistry -
 -------------------
 Temperature   298.150 Kelvin.  Pressure   1.00000 Atm.
 Atom     1 has atomic number  1 and mass   1.00783

 Molecular mass:    21.01405 amu.
 Principal axes and moments of inertia in atomic units:
                           1         2         3
     Eigenvalues --     0.00000  67.99173  67.99173
           X            1.00000  -0.00000   0.00000
           Y            0.00000   1.00000   0.00000
           Z            0.00000   0.00000   1.00000
 This molecule is a prolate symmetric top.
 Rotational symmetry number  1.
 Rotational temperature (Kelvin)      1.27389
 Rotational constant (GHZ):          26.543542
    2 imaginary frequencies ignored.
 Zero-point vibrational energy      12917.5 (Joules/Mol)
                                    3.08735 (Kcal/Mol)
 Vibrational temperatures:   1553.62  1553.62
          (Kelvin)

 Zero-point correction=                           0.004920 (Hartree/Particle)
 Thermal correction to Energy=                    0.007334
 Thermal correction to Enthalpy=                  0.008279
 Thermal correction to Gibbs Free Energy=        -0.015197
 Sum of electronic and zero-point Energies=           -100.872781
 Sum of electronic and thermal Energies=              -100.870367
 Sum of electronic and thermal Enthalpies=            -100.869422
 Sum of electronic and thermal Free Energies=         -100.892898

                     E (Thermal)             CV                S
                      KCal/Mol        Cal/Mol-Kelvin    Cal/Mol-Kelvin
 Total                    4.602              5.563             49.409
 Electronic               0.000              0.000              1.377
 Translational            0.889              2.981             35.068
 Rotational               0.592              1.987             12.828
 Vibrational              3.121              0.595              0.135

 Normal termination of Gaussian 16 at Fri Aug 22 16:20:48 2025.
