 Gaussian 16, Revision C.01,
 Gaussian 16:  ES64L-G16RevC.01  3-Jul-2019

 -----------------------------------------
 # sp b3lyp/6-311g** Force nosymm scf=(qc)
 -----------------------------------------

 -------------------
 Title Card Required
 -------------------
 Symbolic Z-matrix:
 Charge =  0 Multiplicity = 2

                          Input orientation:
 ---------------------------------------------------------------------
 Center     Atomic      Atomic             Coordinates (Angstroms)
 Number     Number       Type             X           Y           Z
 ---------------------------------------------------------------------
      1          1           0        0.000000    0.000000    0.000000
      2          1           0       -1.300000    0.000000    0.000000
      3          9           0        1.450000    0.000000    0.000000
 ---------------------------------------------------------------------

 SCF Done:  E(UB3LYP) =  -100.898492621     a.u. after   11 cycles

 Alpha  occ. eigenvalues --  -24.65788  -1.12865  -0.49473  -0.38948  -0.38145
 Alpha  occ. eigenvalues --   -0.38145
 Alpha virt. eigenvalues --   -0.02627   0.20163   0.30204   0.92245   0.92245
 Alpha virt. eigenvalues --    1.00430   1.06342   1.11468   1.11468   1.47395
 Alpha virt. eigenvalues --    1.47395   1.54724   1.98516   2.22971   2.47340

  Beta  occ. eigenvalues --  -24.64154  -1.08489  -0.42709  -0.36582  -0.36582
  Beta virt. eigenvalues --   -0.22397   0.00665   0.22894   0.31812   0.92640
  Beta virt. eigenvalues --    0.92640   1.04932   1.10196   1.16790   1.16790
  Beta virt. eigenvalues --    1.49597   1.49597   1.58720   2.03269   2.27329

 Mulliken charges and spin densities:
               1          2
     1  H    0.226091  -0.164699
     2  H    0.069494   0.664463
     3  F   -0.295585   0.500236
 Sum of Mulliken charges =  -0.00000   1.00000

 Dipole moment (field-independent basis, Debye):
    X=             -2.5508    Y=             -0.0000    Z=             -0.0000  Tot=              2.5508
 Quadrupole moment (field-independent basis, Debye-Ang):
   XX=             -7.9101   YY=             -7.1389   ZZ=             -7.1389
   XY=             -0.0000   XZ=             -0.0000   YZ=             -0.0000

  Exact polarizability:      32.381      -0.000       2.366      -0.000      -0.000       2.366
 Approx polarizability:      48.169      -0.000       2.324      -0.000       0.000       2.324

 ******    1 imaginary frequencies (negative Signs) ******

                      1                      2                      3
                      A                      A                      A
 Frequencies --  -2705.0419               195.8216              1157.4295
 Red. masses --      1.0228                 1.0909                 1.0167
 Frc consts  --      4.4096                 0.0246                 0.8025
 IR Inten    --    581.6888                19.8564                20.0402

                      4
                      A
 Frequencies --   1157.4295
 Red. masses --      1.0167
 Frc consts  --      0.8025
 IR Inten    --     20.0402

 - Thermochemistry -
 -------------------
 Temperature   298.150 Kelvin.  Pressure   1.00000 Atm.
 Atom     1 has atomic number  1 and mass   1.00783

 Molecular mass:    21.01405 amu.
 Principal axes and moments of inertia in atomic units:
                           1         2         3
     Eigenvalues --     0.00000  31.73963  31.73963
           X            1.00000  -0.00000   0.00000
           Y            0.00000   1.00000   0.00000
           Z            0.00000   0.00000   1.00000
 This molecule is a prolate symmetric top.
 Rotational symmetry number  1.
 Rotational temperature (Kelvin)      2.72889
 Rotational constant (GHZ):          56.860811
    1 imaginary frequencies ignored.
 Zero-point vibrational energy      15017.2 (Joules/Mol)
                                    3.58920 (Kcal/Mol)
 Warning -- explicit consideration of   1 degrees of freedom as
           vibrations may cause significant error
 Vibrational temperatures:    281.74  1665.28  1665.28
          (Kelvin)

 Zero-point correction=                           0.005720 (Hartree/Particle)
 Thermal correction to Energy=                    0.008687
 Thermal correction to Enthalpy=                  0.009631
 Thermal correction to Gibbs Free Energy=        -0.014140
 Sum of electronic and zero-point Energies=           -100.892773
 Sum of electronic and thermal Energies=              -100.889805
 Sum of electronic and thermal Enthalpies=            -100.888861
 Sum of electronic and thermal Free Energies=         -100.912632

                     E (Thermal)             CV                S
                      KCal/Mol        Cal/Mol-Kelvin    Cal/Mol-Kelvin
 Total                    5.451              7.282             50.031
 Electronic               0.000              0.000              1.377
 Translational            0.889              2.981             35.068
 Rotational               0.592              1.987             11.315
 Vibrational              3.970              2.314              2.271
 Vibration     1          0.636              1.846              2.172

 Normal termination of Gaussian 16 at Fri Aug 22 16:22:11 2025.
