 Gaussian 16, Revision C.01,
 Gaussian 16:  ES64L-G16RevC.01  3-Jul-2019

 -----------------------------------------
 # sp b3lyp/6-311g** Force nosymm scf=(qc)
 -----------------------------------------

 -------------------
 Title Card Required
 -------------------
 Symbolic Z-matrix:
 Charge =  0 Multiplicity = 2

                          Input orientation:
 ---------------------------------------------------------------------
 Center     Atomic      Atomic             Coordinates (Angstroms)
 Number     Number       Type             X           Y           Z
 ---------------------------------------------------------------------
      1          1           0        0.000000    0.000000    0.000000
      2          1           0       -2.100000    0.000000    0.000000
      3          9           0        0.900000    0.000000    0.000000
 ---------------------------------------------------------------------

 SCF Done:  E(UB3LYP) =  -100.971914381     a.u. after    5 cycles

 Alpha  occ. eigenvalues --  -24.63759  -1.18863  -0.53862  -0.39454  -0.39454
 Alpha  occ. eigenvalues --   -0.35636
 Alpha virt. eigenvalues --    0.06091   0.24564   0.38812   0.94513   0.94513
 Alpha virt. eigenvalues --    0.97536   1.15331   1.21822   1.21822   1.37533
 Alpha virt. eigenvalues --    1.37533   1.48682   1.96905   2.18183   2.37463

  Beta  occ. eigenvalues --  -24.63713  -1.18747  -0.53624  -0.39416  -0.39416
  Beta virt. eigenvalues --   -0.11302   0.08034   0.35600   0.38716   0.94520
  Beta virt. eigenvalues --    0.94520   0.97915   1.24852   1.37108   1.37108
  Beta virt. eigenvalues --    1.42345   1.42345   1.58139   1.99648   2.37119

 Mulliken charges and spin densities:
               1          2
     1  H    0.284532   0.006337
     2  H    0.011918   0.981529
     3  F   -0.296450   0.012133
 Sum of Mulliken charges =   0.00000   1.00000

 Dipole moment (field-independent basis, Debye):
    X=             -2.0173    Y=              0.0000    Z=             -0.0000  Tot=              2.0173
 Quadrupole moment (field-independent basis, Debye-Ang):
   XX=             -7.5663   YY=             -6.8400   ZZ=             -6.8400
   XY=              0.0000   XZ=             -0.0000   YZ=              0.0000

  Exact polarizability:       8.623       0.000       2.478      -0.000      -0.000       2.478
 Approx polarizability:       9.126      -0.000       2.464       0.000      -0.000       2.464

 ******    2 imaginary frequencies (negative Signs) ******

                      1                      2                      3
                      A                      A                      A
 Frequencies --   -635.1485              -635.1485               175.5249
 Red. masses --      1.0306                 1.0306                 1.0530
 Frc consts  --      0.2449                 0.2449                 0.0191
 IR Inten    --    152.8211               152.8211                 1.2685

                      4
                      A
 Frequencies --   4411.5419
 Red. masses --      1.0586
 Frc consts  --     12.1382
 IR Inten    --    162.5856

 - Thermochemistry -
 -------------------
 Temperature   298.150 Kelvin.  Pressure   1.00000 Atm.
 Atom     1 has atomic number  1 and mass   1.00783

 Molecular mass:    21.01405 amu.
 Principal axes and moments of inertia in atomic units:
                           1         2         3
     Eigenvalues --     0.00000  32.68092  32.68092
           X            1.00000  -0.00000   0.00000
           Y            0.00000   1.00000   0.00000
           Z            0.00000   0.00000   1.00000
 This molecule is a prolate symmetric top.
 Rotational symmetry number  1.
 Rotational temperature (Kelvin)      2.65029
 Rotational constant (GHZ):          55.223080
    2 imaginary frequencies ignored.
 Zero-point vibrational energy      27436.8 (Joules/Mol)
                                    6.55754 (Kcal/Mol)
 Warning -- explicit consideration of   1 degrees of freedom as
           vibrations may cause significant error
 Vibrational temperatures:    252.54  6347.22
          (Kelvin)

 Zero-point correction=                           0.010450 (Hartree/Particle)
 Thermal correction to Energy=                    0.013411
 Thermal correction to Enthalpy=                  0.014355
 Thermal correction to Gibbs Free Energy=        -0.009494
 Sum of electronic and zero-point Energies=           -100.961464
 Sum of electronic and thermal Energies=              -100.958504
 Sum of electronic and thermal Enthalpies=            -100.957560
 Sum of electronic and thermal Free Energies=         -100.981408

                     E (Thermal)             CV                S
                      KCal/Mol        Cal/Mol-Kelvin    Cal/Mol-Kelvin
 Total                    8.415              6.841             50.194
 Electronic               0.000              0.000              1.377
 Translational            0.889              2.981             35.068
 Rotational               0.592              1.987             11.373
 Vibrational              6.934              1.873              2.375
 Vibration     1          0.627              1.873              2.375

 Normal termination of Gaussian 16 at Fri Aug 22 15:55:53 2025.
