 Gaussian 16, Revision C.01,
 Gaussian 16:  ES64L-G16RevC.01  3-Jul-2019

 -----------------------------------------
 # sp b3lyp/6-311g** Force nosymm scf=(qc)
 -----------------------------------------

 -------------------
 Title Card Required
 -------------------
 Symbolic Z-matrix:
 Charge =  0 Multiplicity = 2

                          Input orientation:
 ---------------------------------------------------------------------
 Center     Atomic      Atomic             Coordinates (Angstroms)
 Number     Number       Type             X           Y           Z
 ---------------------------------------------------------------------
      1          1           0        0.000000    0.000000    0.000000
      2          1           0       -1.550000    0.000000    0.000000
      3          9           0        1.800000    0.000000    0.000000
 ---------------------------------------------------------------------

 SCF Done:  E(UB3LYP) =  -100.841419172     a.u. after   14 cycles

 Alpha  occ. eigenvalues --  -24.67617  -1.14056  -0.47495  -0.39307  -0.39307
 Alpha  occ. eigenvalues --   -0.38501
 Alpha virt. eigenvalues --   -0.10310   0.21952   0.30171   0.87263   0.94087
 Alpha virt. eigenvalues --    0.94087   1.03195   1.16748   1.16748   1.35436
 Alpha virt. eigenvalues --    1.37967   1.37967   1.83175   2.18653   2.41472

  Beta  occ. eigenvalues --  -24.65393  -1.07889  -0.38713  -0.37127  -0.37127
  Beta virt. eigenvalues --   -0.22642  -0.08104   0.24544   0.30221   0.90847
  Beta virt. eigenvalues --    0.94614   0.94614   1.07275   1.20382   1.20382
  Beta virt. eigenvalues --    1.38726   1.38726   1.40665   1.85424   2.19483

 Mulliken charges and spin densities:
               1          2
     1  H    0.145423  -0.365927
     2  H    0.069259   0.670021
     3  F   -0.214682   0.695905
 Sum of Mulliken charges =  -0.00000   1.00000

 Dipole moment (field-independent basis, Debye):
    X=             -2.4111    Y=              0.0000    Z=             -0.0000  Tot=              2.4111
 Quadrupole moment (field-independent basis, Debye-Ang):
   XX=             -8.0541   YY=             -7.4410   ZZ=             -7.4410
   XY=              0.0000   XZ=             -0.0000   YZ=              0.0000

  Exact polarizability:      47.273       0.000       2.164      -0.000      -0.000       2.164
 Approx polarizability:      70.608      -0.000       2.100       0.000      -0.000       2.100

 ******    2 imaginary frequencies (negative Signs) ******

                      1                      2                      3
                      A                      A                      A
 Frequencies --  -2295.7894              -557.0767              1012.6933
 Red. masses --      1.0164                 1.0983                 1.0162
 Frc consts  --      3.1563                 0.2008                 0.6140
 IR Inten    --    608.0407                 4.8814                 8.0797

                      4
                      A
 Frequencies --   1012.6933
 Red. masses --      1.0162
 Frc consts  --      0.6140
 IR Inten    --      8.0797

 - Thermochemistry -
 -------------------
 Temperature   298.150 Kelvin.  Pressure   1.00000 Atm.
 Atom     1 has atomic number  1 and mass   1.00783

 Molecular mass:    21.01405 amu.
 Principal axes and moments of inertia in atomic units:
                           1         2         3
     Eigenvalues --     0.00000  47.47269  47.47269
           X            1.00000  -0.00000   0.00000
           Y            0.00000   1.00000   0.00000
           Z            0.00000   0.00000   1.00000
 This molecule is a prolate symmetric top.
 Rotational symmetry number  1.
 Rotational temperature (Kelvin)      1.82450
 Rotational constant (GHZ):          38.016406
    2 imaginary frequencies ignored.
 Zero-point vibrational energy      12114.5 (Joules/Mol)
                                    2.89544 (Kcal/Mol)
 Vibrational temperatures:   1457.04  1457.04
          (Kelvin)

 Zero-point correction=                           0.004614 (Hartree/Particle)
 Thermal correction to Energy=                    0.007045
 Thermal correction to Enthalpy=                  0.007989
 Thermal correction to Gibbs Free Energy=        -0.015168
 Sum of electronic and zero-point Energies=           -100.836805
 Sum of electronic and thermal Energies=              -100.834374
 Sum of electronic and thermal Enthalpies=            -100.833430
 Sum of electronic and thermal Free Energies=         -100.856587

                     E (Thermal)             CV                S
                      KCal/Mol        Cal/Mol-Kelvin    Cal/Mol-Kelvin
 Total                    4.421              5.695             48.738
 Electronic               0.000              0.000              1.377
 Translational            0.889              2.981             35.068
 Rotational               0.592              1.987             12.115
 Vibrational              2.939              0.727              0.178

 Normal termination of Gaussian 16 at Fri Aug 22 16:43:06 2025.
