 Gaussian 16, Revision C.01,
 Gaussian 16:  ES64L-G16RevC.01  3-Jul-2019

 -----------------------------------------
 # sp b3lyp/6-311g** Force nosymm scf=(qc)
 -----------------------------------------

 -------------------
 Title Card Required
 -------------------
 Symbolic Z-matrix:
 Charge =  0 Multiplicity = 2

                          Input orientation:
 ---------------------------------------------------------------------
 Center     Atomic      Atomic             Coordinates (Angstroms)
 Number     Number       Type             X           Y           Z
 ---------------------------------------------------------------------
      1          1           0        0.000000    0.000000    0.000000
      2          1           0       -3.650000    0.000000    0.000000
      3          9           0        1.250000    0.000000    0.000000
 ---------------------------------------------------------------------

 SCF Done:  E(UB3LYP) =  -100.913431666     a.u. after    6 cycles

 Alpha  occ. eigenvalues --  -24.64369  -1.11648  -0.46882  -0.37290  -0.37290
 Alpha  occ. eigenvalues --   -0.33744
 Alpha virt. eigenvalues --   -0.07374   0.21750   0.28766   0.93052   0.93052
 Alpha virt. eigenvalues --    1.01434   1.23621   1.23768   1.23768   1.24178
 Alpha virt. eigenvalues --    1.34244   1.34244   1.71041   2.13597   2.26598

  Beta  occ. eigenvalues --  -24.64365  -1.11639  -0.46873  -0.37286  -0.37286
  Beta virt. eigenvalues --   -0.08281  -0.05253   0.25777   0.38641   0.93051
  Beta virt. eigenvalues --    0.93051   1.01444   1.24073   1.34234   1.34234
  Beta virt. eigenvalues --    1.47326   1.47326   1.47428   1.71067   2.26046

 Mulliken charges and spin densities:
               1          2
     1  H    0.356668  -0.000134
     2  H    0.000951   0.998967
     3  F   -0.357619   0.001167
 Sum of Mulliken charges =   0.00000   1.00000

 Dipole moment (field-independent basis, Debye):
    X=             -2.3493    Y=              0.0000    Z=             -0.0000  Tot=              2.3493
 Quadrupole moment (field-independent basis, Debye-Ang):
   XX=             -9.0541   YY=             -7.1645   ZZ=             -7.1645
   XY=              0.0000   XZ=             -0.0000   YZ=             -0.0000

  Exact polarizability:      10.231       0.000       2.301      -0.000      -0.000       2.301
 Approx polarizability:      15.199       0.000       2.250       0.000       0.000       2.250

 ******    1 imaginary frequencies (negative Signs) ******

                      1                      2                      3
                      A                      A                      A
 Frequencies --    -52.6256               447.2159              1189.6321
 Red. masses --      1.0511                 1.0605                 1.0342
 Frc consts  --      0.0017                 0.1250                 0.8623
 IR Inten    --      0.1769                61.3358               141.9895

                      4
                      A
 Frequencies --   1189.6321
 Red. masses --      1.0342
 Frc consts  --      0.8623
 IR Inten    --    141.9895

 - Thermochemistry -
 -------------------
 Temperature   298.150 Kelvin.  Pressure   1.00000 Atm.
 Atom     1 has atomic number  1 and mass   1.00783

 Molecular mass:    21.01405 amu.
 Principal axes and moments of inertia in atomic units:
                           1         2         3
     Eigenvalues --     0.00000  85.50722  85.50722
           X            1.00000  -0.00000   0.00000
           Y            0.00000   1.00000   0.00000
           Z            0.00000   0.00000   1.00000
 This molecule is a prolate symmetric top.
 Rotational symmetry number  1.
 Rotational temperature (Kelvin)      1.01294
 Rotational constant (GHZ):          21.106302
    1 imaginary frequencies ignored.
 Zero-point vibrational energy      16906.1 (Joules/Mol)
                                    4.04066 (Kcal/Mol)
 Warning -- explicit consideration of   1 degrees of freedom as
           vibrations may cause significant error
 Vibrational temperatures:    643.44  1711.62  1711.62
          (Kelvin)

 Zero-point correction=                           0.006439 (Hartree/Particle)
 Thermal correction to Energy=                    0.009101
 Thermal correction to Enthalpy=                  0.010045
 Thermal correction to Gibbs Free Energy=        -0.014006
 Sum of electronic and zero-point Energies=           -100.906992
 Sum of electronic and thermal Energies=              -100.904331
 Sum of electronic and thermal Enthalpies=            -100.903387
 Sum of electronic and thermal Free Energies=         -100.927438

                     E (Thermal)             CV                S
                      KCal/Mol        Cal/Mol-Kelvin    Cal/Mol-Kelvin
 Total                    5.711              6.759             50.620
 Electronic               0.000              0.000              1.377
 Translational            0.889              2.981             35.068
 Rotational               0.592              1.987             13.284
 Vibrational              4.230              1.791              0.891
 Vibration     1          0.806              1.367              0.804

 Normal termination of Gaussian 16 at Fri Aug 22 16:13:42 2025.
