 Gaussian 16, Revision C.01,
 Gaussian 16:  ES64L-G16RevC.01  3-Jul-2019

 -----------------------------------------
 # sp b3lyp/6-311g** Force nosymm scf=(qc)
 -----------------------------------------

 -------------------
 Title Card Required
 -------------------
 Symbolic Z-matrix:
 Charge =  0 Multiplicity = 2

                          Input orientation:
 ---------------------------------------------------------------------
 Center     Atomic      Atomic             Coordinates (Angstroms)
 Number     Number       Type             X           Y           Z
 ---------------------------------------------------------------------
      1          1           0        0.000000    0.000000    0.000000
      2          1           0       -0.600000    0.000000    0.000000
      3          9           0        3.500000    0.000000    0.000000
 ---------------------------------------------------------------------

 SCF Done:  E(UB3LYP) =  -100.914776939     a.u. after  210 cycles

 Alpha  occ. eigenvalues --  -24.76341  -1.22192  -0.55393  -0.46746  -0.46546
 Alpha  occ. eigenvalues --   -0.46394
 Alpha virt. eigenvalues --    0.08472   0.18899   0.51674   0.86020   0.90896
 Alpha virt. eigenvalues --    0.93158   1.02421   1.10237   1.10241   1.60725
 Alpha virt. eigenvalues --    1.82430   1.92782   1.92786   2.37104   3.64836

  Beta  occ. eigenvalues --  -24.73183  -1.13112  -0.46571  -0.43401  -0.43380
  Beta virt. eigenvalues --   -0.26030   0.08496   0.18911   0.51750   0.92395
  Beta virt. eigenvalues --    0.94720   0.95483   1.06394   1.10237   1.10241
  Beta virt. eigenvalues --    1.60734   1.82458   1.92782   1.92786   2.37105

 Mulliken charges and spin densities:
               1          2
     1  H   -0.003009  -0.000645
     2  H   -0.001579   0.000111
     3  F    0.004588   1.000535
 Sum of Mulliken charges =   0.00000   1.00000

 Dipole moment (field-independent basis, Debye):
    X=              0.0499    Y=              0.0000    Z=              0.0000  Tot=              0.0499
 Quadrupole moment (field-independent basis, Debye-Ang):
   XX=             -6.1305   YY=             -6.7400   ZZ=             -5.8760
   XY=             -0.0000   XZ=             -0.0000   YZ=              0.0083

  Exact polarizability:       6.498       0.000       1.868      -0.000       0.004       2.332
 Approx polarizability:       7.059      -0.000       1.950      -0.000       0.006       2.531

 ******    2 imaginary frequencies (negative Signs) ******

                      1                      2                      3
                      A                      A                      A
 Frequencies --  -2762.4126             -2761.9982                20.2268
 Red. masses --      1.0085                 1.0085                 1.1085
 Frc consts  --      4.5340                 4.5327                 0.0003
 IR Inten    --      0.0062                 0.0054                 0.1310

                      4
                      A
 Frequencies --   7042.4876
 Red. masses --      1.0078
 Frc consts  --     29.4502
 IR Inten    --      0.0567

 - Thermochemistry -
 -------------------
 Temperature   298.150 Kelvin.  Pressure   1.00000 Atm.
 Atom     1 has atomic number  1 and mass   1.00783

 Molecular mass:    21.01405 amu.
 Principal axes and moments of inertia in atomic units:
                           1         2         3
     Eigenvalues --     0.00000  94.61741  94.61741
           X            1.00000  -0.00000   0.00000
           Y            0.00000   1.00000   0.00000
           Z            0.00000   0.00000   1.00000
 This molecule is a prolate symmetric top.
 Rotational symmetry number  1.
 Rotational temperature (Kelvin)      0.91541
 Rotational constant (GHZ):          19.074092
    2 imaginary frequencies ignored.
 Zero-point vibrational energy      42244.4 (Joules/Mol)
                                   10.09666 (Kcal/Mol)
 Warning -- explicit consideration of   1 degrees of freedom as
           vibrations may cause significant error
 Vibrational temperatures:     29.10 10132.57
          (Kelvin)

 Zero-point correction=                           0.016090 (Hartree/Particle)
 Thermal correction to Energy=                    0.019349
 Thermal correction to Enthalpy=                  0.020294
 Thermal correction to Gibbs Free Energy=        -0.006572
 Sum of electronic and zero-point Energies=           -100.898687
 Sum of electronic and thermal Energies=              -100.895428
 Sum of electronic and thermal Enthalpies=            -100.894483
 Sum of electronic and thermal Free Energies=         -100.921348

                     E (Thermal)             CV                S
                      KCal/Mol        Cal/Mol-Kelvin    Cal/Mol-Kelvin
 Total                   12.142              6.954             56.542
 Electronic               0.000              0.000              1.377
 Translational            0.889              2.981             35.068
 Rotational               0.592              1.987             13.485
 Vibrational             10.661              1.986              6.612
 Vibration     1          0.593              1.986              6.612

 Normal termination of Gaussian 16 at Fri Aug 22 21:47:56 2025.
