 Gaussian 16, Revision C.01,
 Gaussian 16:  ES64L-G16RevC.01  3-Jul-2019

 -----------------------------------------
 # sp b3lyp/6-311g** Force nosymm scf=(qc)
 -----------------------------------------

 -------------------
 Title Card Required
 -------------------
 Symbolic Z-matrix:
 Charge =  0 Multiplicity = 2

                          Input orientation:
 ---------------------------------------------------------------------
 Center     Atomic      Atomic             Coordinates (Angstroms)
 Number     Number       Type             X           Y           Z
 ---------------------------------------------------------------------
      1          1           0        0.000000    0.000000    0.000000
      2          1           0       -0.650000    0.000000    0.000000
      3          9           0        4.000000    0.000000    0.000000
 ---------------------------------------------------------------------

 SCF Done:  E(UB3LYP) =  -100.926357547     a.u. after   52 cycles

 Alpha  occ. eigenvalues --  -24.76160  -1.22056  -0.55260  -0.46436  -0.46416
 Alpha  occ. eigenvalues --   -0.45395
 Alpha virt. eigenvalues --    0.07564   0.19177   0.50136   0.86110   0.90987
 Alpha virt. eigenvalues --    0.91705   1.01078   1.09464   1.09466   1.59148
 Alpha virt. eigenvalues --    1.83803   1.89262   1.89264   2.37349   3.64962

  Beta  occ. eigenvalues --  -24.73005  -1.12981  -0.45402  -0.43264  -0.43253
  Beta virt. eigenvalues --   -0.25909   0.07570   0.19180   0.50160   0.92487
  Beta virt. eigenvalues --    0.93192   0.95576   1.05214   1.09464   1.09466
  Beta virt. eigenvalues --    1.59150   1.83811   1.89262   1.89264   2.37350

 Mulliken charges and spin densities:
               1          2
     1  H    0.000143  -0.000157
     2  H   -0.001427   0.000021
     3  F    0.001283   1.000136
 Sum of Mulliken charges =   0.00000   1.00000

 Dipole moment (field-independent basis, Debye):
    X=              0.0194    Y=              0.0000    Z=              0.0000  Tot=              0.0194
 Quadrupole moment (field-independent basis, Debye-Ang):
   XX=             -6.2767   YY=             -6.3763   ZZ=             -6.3764
   XY=              0.0000   XZ=              0.0000   YZ=              0.4323

  Exact polarizability:       6.778       0.000       2.132       0.000       0.233       2.132
 Approx polarizability:       7.556       0.000       2.271       0.000       0.291       2.271

 ******    3 imaginary frequencies (negative Signs) ******

                      1                      2                      3
                      A                      A                      A
 Frequencies --  -1959.7160             -1959.6284               -64.8555
 Red. masses --      1.0084                 1.0084                 1.1085
 Frc consts  --      2.2817                 2.2815                 0.0027
 IR Inten    --      0.0000                 0.0000                 0.0410

                      4
                      A
 Frequencies --   5975.9431
 Red. masses --      1.0078
 Frc consts  --     21.2055
 IR Inten    --      0.0149

 - Thermochemistry -
 -------------------
 Temperature   298.150 Kelvin.  Pressure   1.00000 Atm.
 Atom     1 has atomic number  1 and mass   1.00783

 Molecular mass:    21.01405 amu.
 Principal axes and moments of inertia in atomic units:
                           1         2         3
     Eigenvalues --     0.00000 122.48882 122.48882
           X            1.00000  -0.00000   0.00000
           Y            0.00000   1.00000   0.00000
           Z            0.00000   0.00000   1.00000
 This molecule is a prolate symmetric top.
 Rotational symmetry number  1.
 Rotational temperature (Kelvin)      0.70712
 Rotational constant (GHZ):          14.733926
    3 imaginary frequencies ignored.
 Zero-point vibrational energy      35744.1 (Joules/Mol)
                                    8.54304 (Kcal/Mol)
 Vibrational temperatures:   8598.05
          (Kelvin)

 Zero-point correction=                           0.013614 (Hartree/Particle)
 Thermal correction to Energy=                    0.015975
 Thermal correction to Enthalpy=                  0.016919
 Thermal correction to Gibbs Free Energy=        -0.007049
 Sum of electronic and zero-point Energies=           -100.912743
 Sum of electronic and thermal Energies=              -100.910383
 Sum of electronic and thermal Enthalpies=            -100.909439
 Sum of electronic and thermal Free Energies=         -100.933406

                     E (Thermal)             CV                S
                      KCal/Mol        Cal/Mol-Kelvin    Cal/Mol-Kelvin
 Total                   10.024              4.968             50.444
 Electronic               0.000              0.000              1.377
 Translational            0.889              2.981             35.068
 Rotational               0.592              1.987             13.998
 Vibrational              8.543              0.000              0.000

 Normal termination of Gaussian 16 at Sat Aug 23 01:43:39 2025.
