 Gaussian 16, Revision C.01,
 Gaussian 16:  ES64L-G16RevC.01  3-Jul-2019

 -----------------------------------------
 # sp b3lyp/6-311g** Force nosymm scf=(qc)
 -----------------------------------------

 -------------------
 Title Card Required
 -------------------
 Symbolic Z-matrix:
 Charge =  0 Multiplicity = 2

                          Input orientation:
 ---------------------------------------------------------------------
 Center     Atomic      Atomic             Coordinates (Angstroms)
 Number     Number       Type             X           Y           Z
 ---------------------------------------------------------------------
      1          1           0        0.000000    0.000000    0.000000
      2          1           0       -3.950000    0.000000    0.000000
      3          9           0        3.850000    0.000000    0.000000
 ---------------------------------------------------------------------

 SCF Done:  E(UB3LYP) =  -100.758466120     a.u. after   29 cycles

 Alpha  occ. eigenvalues --  -24.75788  -1.21722  -0.54912  -0.46105  -0.46105
 Alpha  occ. eigenvalues --   -0.32238
 Alpha virt. eigenvalues --   -0.05961   0.24187   0.37795   0.86765   0.91229
 Alpha virt. eigenvalues --    0.91229   1.01209   1.25256   1.25256   1.25282
 Alpha virt. eigenvalues --    1.46522   1.46522   1.47017   2.14611   2.42506

  Beta  occ. eigenvalues --  -24.72648  -1.12694  -0.42957  -0.42957  -0.32500
  Beta virt. eigenvalues --   -0.25685  -0.05839   0.23985   0.38217   0.92726
  Beta virt. eigenvalues --    0.92726   0.96092   1.05314   1.24969   1.24969
  Beta virt. eigenvalues --    1.24979   1.46677   1.46773   1.46773   2.14612

 Mulliken charges and spin densities:
               1          2
     1  H    0.004031  -0.994802
     2  H    0.000026   0.999289
     3  F   -0.004057   0.995512
 Sum of Mulliken charges =  -0.00000   1.00000

 Dipole moment (field-independent basis, Debye):
    X=             -0.0812    Y=             -0.0000    Z=              0.0000  Tot=              0.0812
 Quadrupole moment (field-independent basis, Debye-Ang):
   XX=             -7.0278   YY=             -7.6190   ZZ=             -7.6190
   XY=             -0.0000   XZ=              0.0000   YZ=             -0.0000

  Exact polarizability:      13.403      -0.000       2.034       0.000       0.000       2.034
 Approx polarizability:       9.867      -0.000       1.937       0.000       0.000       1.937

 ******    2 imaginary frequencies (negative Signs) ******

                      1                      2                      3
                      A                      A                      A
 Frequencies --   -150.7844               -62.8644                46.3730
 Red. masses --      1.0294                 1.0835                 1.0183
 Frc consts  --      0.0138                 0.0025                 0.0013
 IR Inten    --      2.4019                 0.2466                 0.0160

                      4
                      A
 Frequencies --     46.3730
 Red. masses --      1.0183
 Frc consts  --      0.0013
 IR Inten    --      0.0160

 - Thermochemistry -
 -------------------
 Temperature   298.150 Kelvin.  Pressure   1.00000 Atm.
 Atom     1 has atomic number  1 and mass   1.00783

 Molecular mass:    21.01405 amu.
 Principal axes and moments of inertia in atomic units:
                           1         2         3
     Eigenvalues --     0.00000 248.88334 248.88334
           X            1.00000  -0.00000   0.00000
           Y            0.00000   1.00000   0.00000
           Z            0.00000   0.00000   1.00000
 This molecule is a prolate symmetric top.
 Rotational symmetry number  1.
 Rotational temperature (Kelvin)      0.34801
 Rotational constant (GHZ):           7.251354
    2 imaginary frequencies ignored.
 Zero-point vibrational energy        554.7 (Joules/Mol)
                                    0.13259 (Kcal/Mol)
 Warning -- explicit consideration of   2 degrees of freedom as
           vibrations may cause significant error
 Vibrational temperatures:     66.72    66.72
          (Kelvin)

 Zero-point correction=                           0.000211 (Hartree/Particle)
 Thermal correction to Energy=                    0.004257
 Thermal correction to Enthalpy=                  0.005201
 Thermal correction to Gibbs Free Energy=        -0.024155
 Sum of electronic and zero-point Energies=           -100.758255
 Sum of electronic and thermal Energies=              -100.754209
 Sum of electronic and thermal Enthalpies=            -100.753265
 Sum of electronic and thermal Free Energies=         -100.782621

                     E (Thermal)             CV                S
                      KCal/Mol        Cal/Mol-Kelvin    Cal/Mol-Kelvin
 Total                    2.671              8.926             61.785
 Electronic               0.000              0.000              1.377
 Translational            0.889              2.981             35.068
 Rotational               0.592              1.987             15.407
 Vibrational              1.190              3.958              9.933
 Vibration     1          0.595              1.979              4.966
 Vibration     2          0.595              1.979              4.966

 Normal termination of Gaussian 16 at Sat Aug 23 01:12:01 2025.
