 Gaussian 16, Revision C.01,
 Gaussian 16:  ES64L-G16RevC.01  3-Jul-2019

 -----------------------------------------
 # sp b3lyp/6-311g** Force nosymm scf=(qc)
 -----------------------------------------

 -------------------
 Title Card Required
 -------------------
 Symbolic Z-matrix:
 Charge =  0 Multiplicity = 2

                          Input orientation:
 ---------------------------------------------------------------------
 Center     Atomic      Atomic             Coordinates (Angstroms)
 Number     Number       Type             X           Y           Z
 ---------------------------------------------------------------------
      1          1           0        0.000000    0.000000    0.000000
      2          1           0       -1.950000    0.000000    0.000000
      3          9           0        0.500000    0.000000    0.000000
 ---------------------------------------------------------------------

 SCF Done:  E(UB3LYP) =  -100.267752535     a.u. after    6 cycles

 Alpha  occ. eigenvalues --  -24.63024  -1.42381  -0.63610  -0.44325  -0.44325
 Alpha  occ. eigenvalues --   -0.34965
 Alpha virt. eigenvalues --    0.11951   0.24031   0.57867   0.89605   0.90130
 Alpha virt. eigenvalues --    0.90130   1.22455   1.22455   1.25919   1.58608
 Alpha virt. eigenvalues --    1.58608   1.59646   2.04631   2.22218   3.76646

  Beta  occ. eigenvalues --  -24.62997  -1.42295  -0.63530  -0.44313  -0.44313
  Beta virt. eigenvalues --   -0.09579   0.13238   0.34968   0.59966   0.89717
  Beta virt. eigenvalues --    0.90117   0.90117   1.34679   1.42978   1.42978
  Beta virt. eigenvalues --    1.58698   1.58698   1.67465   2.09509   2.46635

 Mulliken charges and spin densities:
               1          2
     1  H    0.095236   0.011756
     2  H    0.009633   0.987792
     3  F   -0.104869   0.000452
 Sum of Mulliken charges =   0.00000   1.00000

 Dipole moment (field-independent basis, Debye):
    X=             -1.3531    Y=             -0.0000    Z=             -0.0000  Tot=              1.3531
 Quadrupole moment (field-independent basis, Debye-Ang):
   XX=             -6.4583   YY=             -6.4071   ZZ=             -6.4071
   XY=             -0.0000   XZ=             -0.0000   YZ=              0.0000

  Exact polarizability:       5.229       0.000       2.451      -0.000       0.000       2.451
 Approx polarizability:       5.000       0.000       2.445      -0.000       0.000       2.445

 ******    2 imaginary frequencies (negative Signs) ******

                      1                      2                      3
                      A                      A                      A
 Frequencies --  -9479.7793             -9479.7793               448.6993
 Red. masses --      1.0386                 1.0386                 1.0533
 Frc consts  --     54.9894                54.9894                 0.1249
 IR Inten    --    238.2654               238.2654                 0.0842

                      4
                      A
 Frequencies --  19157.6871
 Red. masses --      1.0583
 Frc consts  --    228.8429
 IR Inten    --     86.2273

 - Thermochemistry -
 -------------------
 Temperature   298.150 Kelvin.  Pressure   1.00000 Atm.
 Atom     1 has atomic number  1 and mass   1.00783

 Molecular mass:    21.01405 amu.
 Principal axes and moments of inertia in atomic units:
                           1         2         3
     Eigenvalues --     0.00000  21.00069  21.00069
           X            1.00000  -0.00000   0.00000
           Y            0.00000   1.00000   0.00000
           Z            0.00000   0.00000   1.00000
 This molecule is a prolate symmetric top.
 Rotational symmetry number  1.
 Rotational temperature (Kelvin)      4.12434
 Rotational constant (GHZ):          85.937237
    2 imaginary frequencies ignored.
 Zero-point vibrational energy     117272.2 (Joules/Mol)
                                   28.02874 (Kcal/Mol)
 Warning -- explicit consideration of   1 degrees of freedom as
           vibrations may cause significant error
 Vibrational temperatures:    645.58 27563.64
          (Kelvin)

 Zero-point correction=                           0.044667 (Hartree/Particle)
 Thermal correction to Energy=                    0.047292
 Thermal correction to Enthalpy=                  0.048236
 Thermal correction to Gibbs Free Energy=         0.025554
 Sum of electronic and zero-point Energies=           -100.223086
 Sum of electronic and thermal Energies=              -100.220461
 Sum of electronic and thermal Enthalpies=            -100.219516
 Sum of electronic and thermal Free Energies=         -100.242199

                     E (Thermal)             CV                S
                      KCal/Mol        Cal/Mol-Kelvin    Cal/Mol-Kelvin
 Total                   29.676              6.332             47.739
 Electronic               0.000              0.000              1.377
 Translational            0.889              2.981             35.068
 Rotational               0.592              1.987             10.494
 Vibrational             28.195              1.364              0.800
 Vibration     1          0.808              1.364              0.800

 Normal termination of Gaussian 16 at Fri Aug 22 15:36:52 2025.
