 Gaussian 16, Revision C.01,
 Gaussian 16:  ES64L-G16RevC.01  3-Jul-2019

 -----------------------------------------
 # sp b3lyp/6-311g** Force nosymm scf=(qc)
 -----------------------------------------

 -------------------
 Title Card Required
 -------------------
 Symbolic Z-matrix:
 Charge =  0 Multiplicity = 2

                          Input orientation:
 ---------------------------------------------------------------------
 Center     Atomic      Atomic             Coordinates (Angstroms)
 Number     Number       Type             X           Y           Z
 ---------------------------------------------------------------------
      1          1           0        0.000000    0.000000    0.000000
      2          1           0       -3.700000    0.000000    0.000000
      3          9           0        0.800000    0.000000    0.000000
 ---------------------------------------------------------------------

 SCF Done:  E(UB3LYP) =  -100.950292239     a.u. after    6 cycles

 Alpha  occ. eigenvalues --  -24.63679  -1.23045  -0.56191  -0.40654  -0.40654
 Alpha  occ. eigenvalues --   -0.33384
 Alpha virt. eigenvalues --    0.05069   0.24430   0.45938   0.94201   0.94201
 Alpha virt. eigenvalues --    0.96999   1.23978   1.24124   1.24124   1.29566
 Alpha virt. eigenvalues --    1.39812   1.39812   2.02293   2.14432   2.53065

  Beta  occ. eigenvalues --  -24.63679  -1.23043  -0.56190  -0.40653  -0.40653
  Beta virt. eigenvalues --   -0.05133   0.05393   0.39144   0.45954   0.94201
  Beta virt. eigenvalues --    0.94201   0.96994   1.29344   1.39812   1.39812
  Beta virt. eigenvalues --    1.50694   1.50918   1.50918   2.02409   2.44638

 Mulliken charges and spin densities:
               1          2
     1  H    0.274884   0.000434
     2  H    0.000549   0.999356
     3  F   -0.275432   0.000210
 Sum of Mulliken charges =   0.00000   1.00000

 Dipole moment (field-independent basis, Debye):
    X=             -1.7389    Y=              0.0000    Z=             -0.0000  Tot=              1.7389
 Quadrupole moment (field-independent basis, Debye-Ang):
   XX=             -7.6182   YY=             -6.7692   ZZ=             -6.7692
   XY=              0.0000   XZ=             -0.0000   YZ=             -0.0000

  Exact polarizability:       4.541      -0.000       2.440       0.000       0.000       2.440
 Approx polarizability:       5.122       0.000       2.421       0.000       0.000       2.421

 ******    3 imaginary frequencies (negative Signs) ******

                      1                      2                      3
                      A                      A                      A
 Frequencies --  -1982.9858             -1982.9858               -37.4775
 Red. masses --      1.0409                 1.0409                 1.0532
 Frc consts  --      2.4117                 2.4117                 0.0009
 IR Inten    --    197.2135               197.2135                 0.0187

                      4
                      A
 Frequencies --   6349.8578
 Red. masses --      1.0583
 Frc consts  --     25.1416
 IR Inten    --    104.4388

 - Thermochemistry -
 -------------------
 Temperature   298.150 Kelvin.  Pressure   1.00000 Atm.
 Atom     1 has atomic number  1 and mass   1.00783

 Molecular mass:    21.01405 amu.
 Principal axes and moments of inertia in atomic units:
                           1         2         3
     Eigenvalues --     0.00000  70.33476  70.33476
           X            1.00000  -0.00000   0.00000
           Y            0.00000   1.00000   0.00000
           Z            0.00000   0.00000   1.00000
 This molecule is a prolate symmetric top.
 Rotational symmetry number  1.
 Rotational temperature (Kelvin)      1.23145
 Rotational constant (GHZ):          25.659307
    3 imaginary frequencies ignored.
 Zero-point vibrational energy      37980.6 (Joules/Mol)
                                    9.07758 (Kcal/Mol)
 Vibrational temperatures:   9136.03
          (Kelvin)

 Zero-point correction=                           0.014466 (Hartree/Particle)
 Thermal correction to Energy=                    0.016827
 Thermal correction to Enthalpy=                  0.017771
 Thermal correction to Gibbs Free Energy=        -0.005673
 Sum of electronic and zero-point Energies=           -100.935826
 Sum of electronic and thermal Energies=              -100.933466
 Sum of electronic and thermal Enthalpies=            -100.932522
 Sum of electronic and thermal Free Energies=         -100.955965

                     E (Thermal)             CV                S
                      KCal/Mol        Cal/Mol-Kelvin    Cal/Mol-Kelvin
 Total                   10.559              4.968             49.341
 Electronic               0.000              0.000              1.377
 Translational            0.889              2.981             35.068
 Rotational               0.592              1.987             12.896
 Vibrational              9.078              0.000              0.000

 Normal termination of Gaussian 16 at Fri Aug 22 15:52:12 2025.
