 Gaussian 16, Revision C.01,
 Gaussian 16:  ES64L-G16RevC.01  3-Jul-2019

 -----------------------------------------
 # sp b3lyp/6-311g** Force nosymm scf=(qc)
 -----------------------------------------

 -------------------
 Title Card Required
 -------------------
 Symbolic Z-matrix:
 Charge =  0 Multiplicity = 2

                          Input orientation:
 ---------------------------------------------------------------------
 Center     Atomic      Atomic             Coordinates (Angstroms)
 Number     Number       Type             X           Y           Z
 ---------------------------------------------------------------------
      1          1           0        0.000000    0.000000    0.000000
      2          1           0       -2.150000    0.000000    0.000000
      3          9           0        3.150000    0.000000    0.000000
 ---------------------------------------------------------------------

 SCF Done:  E(UB3LYP) =  -100.770271100     a.u. after   23 cycles

 Alpha  occ. eigenvalues --  -24.74752  -1.20759  -0.53871  -0.45232  -0.45232
 Alpha  occ. eigenvalues --   -0.33293
 Alpha virt. eigenvalues --   -0.11159   0.25661   0.32615   0.88984   0.91869
 Alpha virt. eigenvalues --    0.91869   1.03104   1.22001   1.24588   1.24588
 Alpha virt. eigenvalues --    1.38122   1.38122   1.45772   2.13314   2.35691

  Beta  occ. eigenvalues --  -24.71683  -1.11953  -0.42159  -0.42159  -0.33552
  Beta virt. eigenvalues --   -0.25185  -0.10520   0.25793   0.33372   0.93343
  Beta virt. eigenvalues --    0.93343   0.97903   1.07068   1.21712   1.24240
  Beta virt. eigenvalues --    1.24240   1.39120   1.39120   1.46606   2.14406

 Mulliken charges and spin densities:
               1          2
     1  H    0.014984  -0.886231
     2  H    0.009180   0.913547
     3  F   -0.024164   0.972684
 Sum of Mulliken charges =   0.00000   1.00000

 Dipole moment (field-independent basis, Debye):
    X=             -0.4845    Y=             -0.0000    Z=              0.0000  Tot=              0.4845
 Quadrupole moment (field-independent basis, Debye-Ang):
   XX=             -7.3041   YY=             -7.6966   ZZ=             -7.6966
   XY=             -0.0000   XZ=              0.0000   YZ=             -0.0000

  Exact polarizability:      51.834      -0.000       2.009       0.000      -0.000       2.009
 Approx polarizability:      43.685      -0.000       1.927       0.000      -0.000       1.927

 ******    2 imaginary frequencies (negative Signs) ******

                      1                      2                      3
                      A                      A                      A
 Frequencies --  -1110.0786              -205.0746               432.2038
 Red. masses --      1.0080                 1.1083                 1.0140
 Frc consts  --      0.7318                 0.0275                 0.1116
 IR Inten    --     20.7112                19.6985                 0.1104

                      4
                      A
 Frequencies --    432.2038
 Red. masses --      1.0140
 Frc consts  --      0.1116
 IR Inten    --      0.1104

 - Thermochemistry -
 -------------------
 Temperature   298.150 Kelvin.  Pressure   1.00000 Atm.
 Atom     1 has atomic number  1 and mass   1.00783

 Molecular mass:    21.01405 amu.
 Principal axes and moments of inertia in atomic units:
                           1         2         3
     Eigenvalues --     0.00000 124.48275 124.48275
           X            1.00000  -0.00000   0.00000
           Y            0.00000   1.00000   0.00000
           Z            0.00000   0.00000   1.00000
 This molecule is a prolate symmetric top.
 Rotational symmetry number  1.
 Rotational temperature (Kelvin)      0.69579
 Rotational constant (GHZ):          14.497922
    2 imaginary frequencies ignored.
 Zero-point vibrational energy       5170.3 (Joules/Mol)
                                    1.23573 (Kcal/Mol)
 Warning -- explicit consideration of   2 degrees of freedom as
           vibrations may cause significant error
 Vibrational temperatures:    621.84   621.84
          (Kelvin)

 Zero-point correction=                           0.001969 (Hartree/Particle)
 Thermal correction to Energy=                    0.004888
 Thermal correction to Enthalpy=                  0.005833
 Thermal correction to Gibbs Free Energy=        -0.018959
 Sum of electronic and zero-point Energies=           -100.768302
 Sum of electronic and thermal Energies=              -100.765383
 Sum of electronic and thermal Enthalpies=            -100.764439
 Sum of electronic and thermal Free Energies=         -100.789230

                     E (Thermal)             CV                S
                      KCal/Mol        Cal/Mol-Kelvin    Cal/Mol-Kelvin
 Total                    3.068              7.768             52.179
 Electronic               0.000              0.000              1.377
 Translational            0.889              2.981             35.068
 Rotational               0.592              1.987             14.030
 Vibrational              1.586              2.800              1.703
 Vibration     1          0.793              1.400              0.851
 Vibration     2          0.793              1.400              0.851

 Normal termination of Gaussian 16 at Fri Aug 22 20:10:05 2025.
