 Gaussian 16, Revision C.01,
 Gaussian 16:  ES64L-G16RevC.01  3-Jul-2019

 -----------------------------------------
 # sp b3lyp/6-311g** Force nosymm scf=(qc)
 -----------------------------------------

 -------------------
 Title Card Required
 -------------------
 Symbolic Z-matrix:
 Charge =  0 Multiplicity = 2

                          Input orientation:
 ---------------------------------------------------------------------
 Center     Atomic      Atomic             Coordinates (Angstroms)
 Number     Number       Type             X           Y           Z
 ---------------------------------------------------------------------
      1          1           0        0.000000    0.000000    0.000000
      2          1           0       -2.700000    0.000000    0.000000
      3          9           0        2.450000    0.000000    0.000000
 ---------------------------------------------------------------------

 SCF Done:  E(UB3LYP) =  -100.770681971     a.u. after   25 cycles

 Alpha  occ. eigenvalues --  -24.71443  -1.17670  -0.50537  -0.42456  -0.42456
 Alpha  occ. eigenvalues --   -0.33583
 Alpha virt. eigenvalues --   -0.11667   0.24490   0.33518   0.89821   0.93778
 Alpha virt. eigenvalues --    0.93778   1.06618   1.24008   1.24008   1.26019
 Alpha virt. eigenvalues --    1.38685   1.38685   1.44256   2.15035   2.33722

  Beta  occ. eigenvalues --  -24.68629  -1.09671  -0.39654  -0.39654  -0.35539
  Beta virt. eigenvalues --   -0.23169  -0.08859   0.25332   0.35530   0.95117
  Beta virt. eigenvalues --    0.95117   0.96141   1.09134   1.22083   1.22083
  Beta virt. eigenvalues --    1.31499   1.42946   1.42946   1.43810   2.14126

 Mulliken charges and spin densities:
               1          2
     1  H    0.089908  -0.871805
     2  H    0.007171   0.983184
     3  F   -0.097079   0.888621
 Sum of Mulliken charges =  -0.00000   1.00000

 Dipole moment (field-independent basis, Debye):
    X=             -1.3001    Y=              0.0000    Z=             -0.0000  Tot=              1.3001
 Quadrupole moment (field-independent basis, Debye-Ang):
   XX=             -9.0722   YY=             -7.5913   ZZ=             -7.5913
   XY=              0.0000   XZ=             -0.0000   YZ=              0.0000

  Exact polarizability:      38.501       0.000       2.020      -0.000       0.000       2.020
 Approx polarizability:      44.095       0.000       1.919      -0.000      -0.000       1.919

 ******    2 imaginary frequencies (negative Signs) ******

                      1                      2                      3
                      A                      A                      A
 Frequencies --   -745.8598              -295.8134               297.8193
 Red. masses --      1.0332                 1.0793                 1.0192
 Frc consts  --      0.3387                 0.0556                 0.0533
 IR Inten    --     70.0829                11.7025                 7.0237

                      4
                      A
 Frequencies --    297.8193
 Red. masses --      1.0192
 Frc consts  --      0.0533
 IR Inten    --      7.0237

 - Thermochemistry -
 -------------------
 Temperature   298.150 Kelvin.  Pressure   1.00000 Atm.
 Atom     1 has atomic number  1 and mass   1.00783

 Molecular mass:    21.01405 amu.
 Principal axes and moments of inertia in atomic units:
                           1         2         3
     Eigenvalues --     0.00000 107.08798 107.08798
           X            1.00000  -0.00000   0.00000
           Y            0.00000   1.00000   0.00000
           Z            0.00000   0.00000   1.00000
 This molecule is a prolate symmetric top.
 Rotational symmetry number  1.
 Rotational temperature (Kelvin)      0.80881
 Rotational constant (GHZ):          16.852883
    2 imaginary frequencies ignored.
 Zero-point vibrational energy       3562.7 (Joules/Mol)
                                    0.85151 (Kcal/Mol)
 Warning -- explicit consideration of   2 degrees of freedom as
           vibrations may cause significant error
 Vibrational temperatures:    428.50   428.50
          (Kelvin)

 Zero-point correction=                           0.001357 (Hartree/Particle)
 Thermal correction to Energy=                    0.004563
 Thermal correction to Enthalpy=                  0.005507
 Thermal correction to Gibbs Free Energy=        -0.019691
 Sum of electronic and zero-point Energies=           -100.769325
 Sum of electronic and thermal Energies=              -100.766119
 Sum of electronic and thermal Enthalpies=            -100.765175
 Sum of electronic and thermal Free Energies=         -100.790373

                     E (Thermal)             CV                S
                      KCal/Mol        Cal/Mol-Kelvin    Cal/Mol-Kelvin
 Total                    2.863              8.324             53.035
 Electronic               0.000              0.000              1.377
 Translational            0.889              2.981             35.068
 Rotational               0.592              1.987             13.731
 Vibrational              1.382              3.356              2.858
 Vibration     1          0.691              1.678              1.429
 Vibration     2          0.691              1.678              1.429

 Normal termination of Gaussian 16 at Fri Aug 22 17:39:00 2025.
