 Gaussian 16, Revision C.01,
 Gaussian 16:  ES64L-G16RevC.01  3-Jul-2019

 -----------------------------------------
 # sp b3lyp/6-311g** Force nosymm scf=(qc)
 -----------------------------------------

 -------------------
 Title Card Required
 -------------------
 Symbolic Z-matrix:
 Charge =  0 Multiplicity = 2

                          Input orientation:
 ---------------------------------------------------------------------
 Center     Atomic      Atomic             Coordinates (Angstroms)
 Number     Number       Type             X           Y           Z
 ---------------------------------------------------------------------
      1          1           0        0.000000    0.000000    0.000000
      2          1           0       -2.200000    0.000000    0.000000
      3          9           0        1.350000    0.000000    0.000000
 ---------------------------------------------------------------------

 SCF Done:  E(UB3LYP) =  -100.891401104     a.u. after    8 cycles

 Alpha  occ. eigenvalues --  -24.63852  -1.10370  -0.45362  -0.36460  -0.36460
 Alpha  occ. eigenvalues --   -0.36323
 Alpha virt. eigenvalues --   -0.08765   0.23897   0.27110   0.93472   0.93472
 Alpha virt. eigenvalues --    1.02845   1.13454   1.21070   1.21070   1.32468
 Alpha virt. eigenvalues --    1.33984   1.33984   1.71877   2.11055   2.25781

  Beta  occ. eigenvalues --  -24.63666  -1.09888  -0.44579  -0.36286  -0.36286
  Beta virt. eigenvalues --   -0.15000  -0.04822   0.26760   0.34601   0.93439
  Beta virt. eigenvalues --    0.93439   1.03306   1.18014   1.33320   1.33320
  Beta virt. eigenvalues --    1.40678   1.40678   1.46437   1.72006   2.21759

 Mulliken charges and spin densities:
               1          2
     1  H    0.338810  -0.024980
     2  H    0.025420   0.967430
     3  F   -0.364230   0.057550
 Sum of Mulliken charges =  -0.00000   1.00000

 Dipole moment (field-independent basis, Debye):
    X=             -2.7474    Y=             -0.0000    Z=              0.0000  Tot=              2.7474
 Quadrupole moment (field-independent basis, Debye-Ang):
   XX=             -8.7378   YY=             -7.2166   ZZ=             -7.2166
   XY=             -0.0000   XZ=              0.0000   YZ=              0.0000

  Exact polarizability:      19.059       0.000       2.291       0.000      -0.000       2.291
 Approx polarizability:      26.409      -0.000       2.236       0.000      -0.000       2.236

 ******    2 imaginary frequencies (negative Signs) ******

                      1                      2                      3
                      A                      A                      A
 Frequencies --  -1124.7109              -237.0947              1095.3424
 Red. masses --      1.0388                 1.0733                 1.0248
 Frc consts  --      0.7742                 0.0355                 0.7244
 IR Inten    --    187.7011                 0.0802               101.5021

                      4
                      A
 Frequencies --   1095.3424
 Red. masses --      1.0248
 Frc consts  --      0.7244
 IR Inten    --    101.5021

 - Thermochemistry -
 -------------------
 Temperature   298.150 Kelvin.  Pressure   1.00000 Atm.
 Atom     1 has atomic number  1 and mass   1.00783

 Molecular mass:    21.01405 amu.
 Principal axes and moments of inertia in atomic units:
                           1         2         3
     Eigenvalues --     0.00000  47.77141  47.77141
           X            1.00000  -0.00000   0.00000
           Y            0.00000   1.00000   0.00000
           Z            0.00000   0.00000   1.00000
 This molecule is a prolate symmetric top.
 Rotational symmetry number  1.
 Rotational temperature (Kelvin)      1.81309
 Rotational constant (GHZ):          37.778691
    2 imaginary frequencies ignored.
 Zero-point vibrational energy      13103.2 (Joules/Mol)
                                    3.13174 (Kcal/Mol)
 Vibrational temperatures:   1575.95  1575.95
          (Kelvin)

 Zero-point correction=                           0.004991 (Hartree/Particle)
 Thermal correction to Energy=                    0.007402
 Thermal correction to Enthalpy=                  0.008346
 Thermal correction to Gibbs Free Energy=        -0.014793
 Sum of electronic and zero-point Energies=           -100.886410
 Sum of electronic and thermal Energies=              -100.883999
 Sum of electronic and thermal Enthalpies=            -100.883055
 Sum of electronic and thermal Free Energies=         -100.906194

                     E (Thermal)             CV                S
                      KCal/Mol        Cal/Mol-Kelvin    Cal/Mol-Kelvin
 Total                    4.645              5.536             48.700
 Electronic               0.000              0.000              1.377
 Translational            0.889              2.981             35.068
 Rotational               0.592              1.987             12.127
 Vibrational              3.164              0.568              0.127

 Normal termination of Gaussian 16 at Fri Aug 22 16:17:44 2025.
