 Gaussian 16, Revision C.01,
 Gaussian 16:  ES64L-G16RevC.01  3-Jul-2019

 -----------------------------------------
 # sp b3lyp/6-311g** Force nosymm scf=(qc)
 -----------------------------------------

 -------------------
 Title Card Required
 -------------------
 Symbolic Z-matrix:
 Charge =  0 Multiplicity = 2

                          Input orientation:
 ---------------------------------------------------------------------
 Center     Atomic      Atomic             Coordinates (Angstroms)
 Number     Number       Type             X           Y           Z
 ---------------------------------------------------------------------
      1          1           0        0.000000    0.000000    0.000000
      2          1           0       -1.750000    0.000000    0.000000
      3          9           0        0.600000    0.000000    0.000000
 ---------------------------------------------------------------------

 SCF Done:  E(UB3LYP) =  -100.685463318     a.u. after    7 cycles

 Alpha  occ. eigenvalues --  -24.62718  -1.34802  -0.61306  -0.42979  -0.42979
 Alpha  occ. eigenvalues --   -0.35459
 Alpha virt. eigenvalues --    0.12483   0.23086   0.55389   0.92047   0.92047
 Alpha virt. eigenvalues --    0.93468   1.21208   1.21208   1.29078   1.51037
 Alpha virt. eigenvalues --    1.51037   1.60368   2.00379   2.18122   3.40804

  Beta  occ. eigenvalues --  -24.62665  -1.34639  -0.61068  -0.42945  -0.42945
  Beta virt. eigenvalues --   -0.10747   0.13786   0.32862   0.58421   0.92074
  Beta virt. eigenvalues --    0.92074   0.93594   1.36429   1.39392   1.39392
  Beta virt. eigenvalues --    1.52436   1.52436   1.68948   2.02193   2.42960

 Mulliken charges and spin densities:
               1          2
     1  H    0.216169   0.014074
     2  H    0.011358   0.981160
     3  F   -0.227527   0.004766
 Sum of Mulliken charges =   0.00000   1.00000

 Dipole moment (field-independent basis, Debye):
    X=             -1.4974    Y=             -0.0000    Z=             -0.0000  Tot=              1.4974
 Quadrupole moment (field-independent basis, Debye-Ang):
   XX=             -6.7628   YY=             -6.5000   ZZ=             -6.5000
   XY=             -0.0000   XZ=             -0.0000   YZ=             -0.0000

  Exact polarizability:       6.066       0.000       2.496      -0.000       0.000       2.496
 Approx polarizability:       5.828      -0.000       2.497       0.000       0.000       2.497

 ******    2 imaginary frequencies (negative Signs) ******

                      1                      2                      3
                      A                      A                      A
 Frequencies --  -5771.9456             -5771.9456               587.1159
 Red. masses --      1.0341                 1.0341                 1.0533
 Frc consts  --     20.2990                20.2990                 0.2139
 IR Inten    --    189.5526               189.5526                 0.5539

                      4
                      A
 Frequencies --  13069.6852
 Red. masses --      1.0582
 Frc consts  --    106.5021
 IR Inten    --    118.3036

 - Thermochemistry -
 -------------------
 Temperature   298.150 Kelvin.  Pressure   1.00000 Atm.
 Atom     1 has atomic number  1 and mass   1.00783

 Molecular mass:    21.01405 amu.
 Principal axes and moments of inertia in atomic units:
                           1         2         3
     Eigenvalues --     0.00000  19.66906  19.66906
           X            1.00000  -0.00000   0.00000
           Y            0.00000   1.00000   0.00000
           Z            0.00000   0.00000   1.00000
 This molecule is a prolate symmetric top.
 Rotational symmetry number  1.
 Rotational temperature (Kelvin)      4.40356
 Rotational constant (GHZ):          91.755354
    2 imaginary frequencies ignored.
 Zero-point vibrational energy      81685.8 (Joules/Mol)
                                   19.52338 (Kcal/Mol)
 Warning -- explicit consideration of   1 degrees of freedom as
           vibrations may cause significant error
 Vibrational temperatures:    844.73 18804.36
          (Kelvin)

 Zero-point correction=                           0.031112 (Hartree/Particle)
 Thermal correction to Energy=                    0.033640
 Thermal correction to Enthalpy=                  0.034584
 Thermal correction to Gibbs Free Energy=         0.012119
 Sum of electronic and zero-point Energies=           -100.654351
 Sum of electronic and thermal Energies=              -100.651823
 Sum of electronic and thermal Enthalpies=            -100.650879
 Sum of electronic and thermal Free Energies=         -100.673344

                     E (Thermal)             CV                S
                      KCal/Mol        Cal/Mol-Kelvin    Cal/Mol-Kelvin
 Total                   21.110              6.027             47.281
 Electronic               0.000              0.000              1.377
 Translational            0.889              2.981             35.068
 Rotational               0.592              1.987             10.364
 Vibrational             19.628              1.059              0.472
 Vibration     1          0.944              1.059              0.472

 Normal termination of Gaussian 16 at Fri Aug 22 15:41:32 2025.
