 Gaussian 16, Revision C.01,
 Gaussian 16:  ES64L-G16RevC.01  3-Jul-2019

 -----------------------------------------
 # sp b3lyp/6-311g** Force nosymm scf=(qc)
 -----------------------------------------

 -------------------
 Title Card Required
 -------------------
 Symbolic Z-matrix:
 Charge =  0 Multiplicity = 2

                          Input orientation:
 ---------------------------------------------------------------------
 Center     Atomic      Atomic             Coordinates (Angstroms)
 Number     Number       Type             X           Y           Z
 ---------------------------------------------------------------------
      1          1           0        0.000000    0.000000    0.000000
      2          1           0       -1.200000    0.000000    0.000000
      3          9           0        1.200000    0.000000    0.000000
 ---------------------------------------------------------------------

 SCF Done:  E(UB3LYP) =  -100.940023995     a.u. after    7 cycles

 Alpha  occ. eigenvalues --  -24.64522  -1.13424  -0.52661  -0.37914  -0.37914
 Alpha  occ. eigenvalues --   -0.37845
 Alpha virt. eigenvalues --    0.05107   0.19459   0.32676   0.91680   0.91680
 Alpha virt. eigenvalues --    0.99928   1.09688   1.09688   1.22092   1.51880
 Alpha virt. eigenvalues --    1.51880   1.57631   2.11364   2.31714   2.46975

  Beta  occ. eigenvalues --  -24.63460  -1.10701  -0.47005  -0.36932  -0.36932
  Beta virt. eigenvalues --   -0.20650   0.08076   0.22451   0.36243   0.92431
  Beta virt. eigenvalues --    0.92431   1.02309   1.16070   1.16070   1.28021
  Beta virt. eigenvalues --    1.55666   1.55666   1.60826   2.22623   2.30861

 Mulliken charges and spin densities:
               1          2
     1  H    0.278831  -0.065858
     2  H    0.053066   0.757591
     3  F   -0.331896   0.308267
 Sum of Mulliken charges =   0.00000   1.00000

 Dipole moment (field-independent basis, Debye):
    X=             -2.4507    Y=              0.0000    Z=             -0.0000  Tot=              2.4507
 Quadrupole moment (field-independent basis, Debye-Ang):
   XX=             -7.8196   YY=             -6.9087   ZZ=             -6.9087
   XY=              0.0000   XZ=              0.0000   YZ=             -0.0000

  Exact polarizability:      21.630       0.000       2.497       0.000       0.000       2.497
 Approx polarizability:      28.474      -0.000       2.486       0.000       0.000       2.486

 ******    1 imaginary frequencies (negative Signs) ******

                      1                      2                      3
                      A                      A                      A
 Frequencies --  -2229.3959               870.7755              1082.7915
 Red. masses --      1.0203                 1.0938                 1.0179
 Frc consts  --      2.9878                 0.4887                 0.7032
 IR Inten    --     72.2407                42.8302                42.2990

                      4
                      A
 Frequencies --   1082.7915
 Red. masses --      1.0179
 Frc consts  --      0.7032
 IR Inten    --     42.2990

 - Thermochemistry -
 -------------------
 Temperature   298.150 Kelvin.  Pressure   1.00000 Atm.
 Atom     1 has atomic number  1 and mass   1.00783

 Molecular mass:    21.01405 amu.
 Principal axes and moments of inertia in atomic units:
                           1         2         3
     Eigenvalues --     0.00000  23.67588  23.67588
           X            1.00000  -0.00000   0.00000
           Y            0.00000   1.00000   0.00000
           Z            0.00000   0.00000   1.00000
 This molecule is a prolate symmetric top.
 Rotational symmetry number  1.
 Rotational temperature (Kelvin)      3.65832
 Rotational constant (GHZ):          76.227009
    1 imaginary frequencies ignored.
 Zero-point vibrational energy      18161.5 (Joules/Mol)
                                    4.34069 (Kcal/Mol)
 Vibrational temperatures:   1252.85  1557.90  1557.90
          (Kelvin)

 Zero-point correction=                           0.006917 (Hartree/Particle)
 Thermal correction to Energy=                    0.009391
 Thermal correction to Enthalpy=                  0.010336
 Thermal correction to Gibbs Free Energy=        -0.012218
 Sum of electronic and zero-point Energies=           -100.933107
 Sum of electronic and thermal Energies=              -100.930633
 Sum of electronic and thermal Enthalpies=            -100.929688
 Sum of electronic and thermal Free Energies=         -100.952242

                     E (Thermal)             CV                S
                      KCal/Mol        Cal/Mol-Kelvin    Cal/Mol-Kelvin
 Total                    5.893              6.099             47.468
 Electronic               0.000              0.000              1.377
 Translational            0.889              2.981             35.068
 Rotational               0.592              1.987             10.732
 Vibrational              4.412              1.131              0.291

 Normal termination of Gaussian 16 at Fri Aug 22 16:09:35 2025.
