 Gaussian 16, Revision C.01,
 Gaussian 16:  ES64L-G16RevC.01  3-Jul-2019

 -----------------------------------------
 # sp b3lyp/6-311g** Force nosymm scf=(qc)
 -----------------------------------------

 -------------------
 Title Card Required
 -------------------
 Symbolic Z-matrix:
 Charge =  0 Multiplicity = 2

                          Input orientation:
 ---------------------------------------------------------------------
 Center     Atomic      Atomic             Coordinates (Angstroms)
 Number     Number       Type             X           Y           Z
 ---------------------------------------------------------------------
      1          1           0        0.000000    0.000000    0.000000
      2          1           0       -3.550000    0.000000    0.000000
      3          9           0        1.700000    0.000000    0.000000
 ---------------------------------------------------------------------

 SCF Done:  E(UB3LYP) =  -100.814524034     a.u. after   10 cycles

 Alpha  occ. eigenvalues --  -24.64225  -1.08840  -0.40955  -0.35993  -0.35993
 Alpha  occ. eigenvalues --   -0.34000
 Alpha virt. eigenvalues --   -0.18782   0.19809   0.27403   0.94870   0.94870
 Alpha virt. eigenvalues --    0.96482   1.07350   1.23505   1.23505   1.23527
 Alpha virt. eigenvalues --    1.27607   1.27607   1.70226   2.12778   2.16463

  Beta  occ. eigenvalues --  -24.64239  -1.08879  -0.40972  -0.36007  -0.36007
  Beta virt. eigenvalues --   -0.18845  -0.06861   0.22682   0.38047   0.94879
  Beta virt. eigenvalues --    0.94879   0.96520   1.07356   1.27722   1.27722
  Beta virt. eigenvalues --    1.45525   1.45984   1.45984   1.70312   2.15709

 Mulliken charges and spin densities:
               1          2
     1  H    0.325949   0.006749
     2  H    0.002276   0.997636
     3  F   -0.328224  -0.004385
 Sum of Mulliken charges =  -0.00000   1.00000

 Dipole moment (field-independent basis, Debye):
    X=             -2.7878    Y=              0.0000    Z=              0.0000  Tot=              2.7878
 Quadrupole moment (field-independent basis, Debye-Ang):
   XX=            -10.6231   YY=             -7.4189   ZZ=             -7.4189
   XY=              0.0000   XZ=              0.0000   YZ=              0.0000

  Exact polarizability:      20.391       0.000       2.103      -0.000      -0.000       2.103
 Approx polarizability:      47.092      -0.000       2.015       0.000       0.000       2.015

 ******    2 imaginary frequencies (negative Signs) ******

                      1                      2                      3
                      A                      A                      A
 Frequencies --  -1185.7134               -88.3441               866.8722
 Red. masses --      1.0574                 1.0541                 1.0288
 Frc consts  --      0.8759                 0.0048                 0.4555
 IR Inten    --     38.0923                 0.3829               101.5253

                      4
                      A
 Frequencies --    866.8722
 Red. masses --      1.0288
 Frc consts  --      0.4555
 IR Inten    --    101.5253

 - Thermochemistry -
 -------------------
 Temperature   298.150 Kelvin.  Pressure   1.00000 Atm.
 Atom     1 has atomic number  1 and mass   1.00783

 Molecular mass:    21.01405 amu.
 Principal axes and moments of inertia in atomic units:
                           1         2         3
     Eigenvalues --     0.00000 101.26146 101.26146
           X            1.00000  -0.00000   0.00000
           Y            0.00000   1.00000   0.00000
           Z            0.00000   0.00000   1.00000
 This molecule is a prolate symmetric top.
 Rotational symmetry number  1.
 Rotational temperature (Kelvin)      0.85535
 Rotational constant (GHZ):          17.822587
    2 imaginary frequencies ignored.
 Zero-point vibrational energy      10370.1 (Joules/Mol)
                                    2.47851 (Kcal/Mol)
 Vibrational temperatures:   1247.24  1247.24
          (Kelvin)

 Zero-point correction=                           0.003950 (Hartree/Particle)
 Thermal correction to Energy=                    0.006433
 Thermal correction to Enthalpy=                  0.007377
 Thermal correction to Gibbs Free Energy=        -0.016562
 Sum of electronic and zero-point Energies=           -100.810574
 Sum of electronic and thermal Energies=              -100.808091
 Sum of electronic and thermal Enthalpies=            -100.807147
 Sum of electronic and thermal Free Energies=         -100.831086

                     E (Thermal)             CV                S
                      KCal/Mol        Cal/Mol-Kelvin    Cal/Mol-Kelvin
 Total                    4.036              6.062             50.384
 Electronic               0.000              0.000              1.377
 Translational            0.889              2.981             35.068
 Rotational               0.592              1.987             13.620
 Vibrational              2.555              1.094              0.319

 Normal termination of Gaussian 16 at Fri Aug 22 16:38:48 2025.
