 Gaussian 16, Revision C.01,
 Gaussian 16:  ES64L-G16RevC.01  3-Jul-2019

 -----------------------------------------
 # sp b3lyp/6-311g** Force nosymm scf=(qc)
 -----------------------------------------

 -------------------
 Title Card Required
 -------------------
 Symbolic Z-matrix:
 Charge =  0 Multiplicity = 2

                          Input orientation:
 ---------------------------------------------------------------------
 Center     Atomic      Atomic             Coordinates (Angstroms)
 Number     Number       Type             X           Y           Z
 ---------------------------------------------------------------------
      1          1           0        0.000000    0.000000    0.000000
      2          1           0       -3.800000    0.000000    0.000000
      3          9           0        1.150000    0.000000    0.000000
 ---------------------------------------------------------------------

 SCF Done:  E(UB3LYP) =  -100.937330293     a.u. after    6 cycles

 Alpha  occ. eigenvalues --  -24.64336  -1.13011  -0.48660  -0.37806  -0.37806
 Alpha  occ. eigenvalues --   -0.33575
 Alpha virt. eigenvalues --   -0.04132   0.22527   0.30057   0.93345   0.93345
 Alpha virt. eigenvalues --    1.00184   1.23881   1.23934   1.23934   1.27509
 Alpha virt. eigenvalues --    1.34921   1.34921   1.75427   2.13661   2.30188

  Beta  occ. eigenvalues --  -24.64334  -1.13006  -0.48656  -0.37805  -0.37805
  Beta virt. eigenvalues --   -0.06229  -0.03328   0.27903   0.39111   0.93345
  Beta virt. eigenvalues --    0.93345   1.00188   1.27501   1.34918   1.34918
  Beta virt. eigenvalues --    1.49063   1.49063   1.49341   1.75448   2.29602

 Mulliken charges and spin densities:
               1          2
     1  H    0.348040   0.000118
     2  H    0.000604   0.999341
     3  F   -0.348644   0.000541
 Sum of Mulliken charges =   0.00000   1.00000

 Dipole moment (field-independent basis, Debye):
    X=             -2.2258    Y=             -0.0000    Z=             -0.0000  Tot=              2.2258
 Quadrupole moment (field-independent basis, Debye-Ang):
   XX=             -8.7429   YY=             -7.0891   ZZ=             -7.0891
   XY=             -0.0000   XZ=              0.0000   YZ=              0.0000

  Exact polarizability:       8.458       0.000       2.343      -0.000      -0.000       2.343
 Approx polarizability:      11.639       0.000       2.302       0.000      -0.000       2.302

 ******    1 imaginary frequencies (negative Signs) ******

                      1                      2                      3
                      A                      A                      A
 Frequencies --    -38.1242              1211.0554              1211.0554
 Red. masses --      1.0531                 1.0361                 1.0361
 Frc consts  --      0.0009                 0.8953                 0.8953
 IR Inten    --      0.0315               153.3551               153.3551

                      4
                      A
 Frequencies --   1468.0975
 Red. masses --      1.0584
 Frc consts  --      1.3440
 IR Inten    --     69.9344

 - Thermochemistry -
 -------------------
 Temperature   298.150 Kelvin.  Pressure   1.00000 Atm.
 Atom     1 has atomic number  1 and mass   1.00783

 Molecular mass:    21.01405 amu.
 Principal axes and moments of inertia in atomic units:
                           1         2         3
     Eigenvalues --     0.00000  86.52169  86.52169
           X            1.00000  -0.00000   0.00000
           Y            0.00000   1.00000   0.00000
           Z            0.00000   0.00000   1.00000
 This molecule is a prolate symmetric top.
 Rotational symmetry number  1.
 Rotational temperature (Kelvin)      1.00107
 Rotational constant (GHZ):          20.858829
    1 imaginary frequencies ignored.
 Zero-point vibrational energy      23268.6 (Joules/Mol)
                                    5.56133 (Kcal/Mol)
 Vibrational temperatures:   1742.44  1742.44  2112.26
          (Kelvin)

 Zero-point correction=                           0.008863 (Hartree/Particle)
 Thermal correction to Energy=                    0.011261
 Thermal correction to Enthalpy=                  0.012205
 Thermal correction to Gibbs Free Energy=        -0.011478
 Sum of electronic and zero-point Energies=           -100.928468
 Sum of electronic and thermal Energies=              -100.926070
 Sum of electronic and thermal Enthalpies=            -100.925125
 Sum of electronic and thermal Free Energies=         -100.948809

                     E (Thermal)             CV                S
                      KCal/Mol        Cal/Mol-Kelvin    Cal/Mol-Kelvin
 Total                    7.066              5.447             49.845
 Electronic               0.000              0.000              1.377
 Translational            0.889              2.981             35.068
 Rotational               0.592              1.987             13.307
 Vibrational              5.585              0.479              0.092

 Normal termination of Gaussian 16 at Fri Aug 22 16:08:55 2025.
