 Gaussian 16, Revision C.01,
 Gaussian 16:  ES64L-G16RevC.01  3-Jul-2019

 -----------------------------------------
 # sp b3lyp/6-311g** Force nosymm scf=(qc)
 -----------------------------------------

 -------------------
 Title Card Required
 -------------------
 Symbolic Z-matrix:
 Charge =  0 Multiplicity = 2

                          Input orientation:
 ---------------------------------------------------------------------
 Center     Atomic      Atomic             Coordinates (Angstroms)
 Number     Number       Type             X           Y           Z
 ---------------------------------------------------------------------
      1          1           0        0.000000    0.000000    0.000000
      2          1           0       -1.250000    0.000000    0.000000
      3          9           0        3.000000    0.000000    0.000000
 ---------------------------------------------------------------------

 SCF Done:  E(UB3LYP) =  -100.863237276     a.u. after  135 cycles

 Alpha  occ. eigenvalues --  -24.76696  -1.22518  -0.55706  -0.46958  -0.46856
 Alpha  occ. eigenvalues --   -0.35641
 Alpha virt. eigenvalues --   -0.04918   0.23368   0.33751   0.85751   0.90623
 Alpha virt. eigenvalues --    0.93304   1.03814   1.14238   1.14244   1.18919
 Alpha virt. eigenvalues --    1.51994   1.52001   2.03920   2.30853   2.54794

  Beta  occ. eigenvalues --  -24.73535  -1.13432  -0.43798  -0.43687  -0.35628
  Beta virt. eigenvalues --   -0.26332  -0.04902   0.23389   0.33826   0.92122
  Beta virt. eigenvalues --    0.94985   0.95209   1.07686   1.14237   1.14243
  Beta virt. eigenvalues --    1.18924   1.51993   1.52000   2.03930   2.30856

 Mulliken charges and spin densities:
               1          2
     1  H   -0.001204  -0.000105
     2  H   -0.006578  -0.000931
     3  F    0.007782   1.001035
 Sum of Mulliken charges =   0.00000   1.00000

 Dipole moment (field-independent basis, Debye):
    X=              0.1074    Y=             -0.0000    Z=             -0.0000  Tot=              0.1074
 Quadrupole moment (field-independent basis, Debye-Ang):
   XX=             -6.1492   YY=             -7.3583   ZZ=             -6.8822
   XY=             -0.0000   XZ=             -0.0000   YZ=              0.3603

  Exact polarizability:      17.595       0.000       2.183      -0.000       0.192       2.437
 Approx polarizability:      27.121      -0.000       2.232      -0.000       0.242       2.552

 ******    1 imaginary frequencies (negative Signs) ******

                      1                      2                      3
                      A                      A                      A
 Frequencies --   -789.0291                36.3224              1430.7846
 Red. masses --      1.0078                 1.1085                 1.0107
 Frc consts  --      0.3697                 0.0009                 1.2191
 IR Inten    --      1.0761                 0.5860                 0.0034

                      4
                      A
 Frequencies --   1432.5138
 Red. masses --      1.0107
 Frc consts  --      1.2221
 IR Inten    --      0.0031

 - Thermochemistry -
 -------------------
 Temperature   298.150 Kelvin.  Pressure   1.00000 Atm.
 Atom     1 has atomic number  1 and mass   1.00783

 Molecular mass:    21.01405 amu.
 Principal axes and moments of inertia in atomic units:
                           1         2         3
     Eigenvalues --     0.00000  88.32552  88.32552
           X            1.00000  -0.00000   0.00000
           Y            0.00000   1.00000   0.00000
           Z            0.00000   0.00000   1.00000
 This molecule is a prolate symmetric top.
 Rotational symmetry number  1.
 Rotational temperature (Kelvin)      0.98062
 Rotational constant (GHZ):          20.432840
    1 imaginary frequencies ignored.
 Zero-point vibrational energy      17343.6 (Joules/Mol)
                                    4.14522 (Kcal/Mol)
 Warning -- explicit consideration of   1 degrees of freedom as
           vibrations may cause significant error
 Vibrational temperatures:     52.26  2058.58  2061.07
          (Kelvin)

 Zero-point correction=                           0.006606 (Hartree/Particle)
 Thermal correction to Energy=                    0.009843
 Thermal correction to Enthalpy=                  0.010787
 Thermal correction to Gibbs Free Energy=        -0.015476
 Sum of electronic and zero-point Energies=           -100.856631
 Sum of electronic and thermal Energies=              -100.853394
 Sum of electronic and thermal Enthalpies=            -100.852450
 Sum of electronic and thermal Free Energies=         -100.878713

                     E (Thermal)             CV                S
                      KCal/Mol        Cal/Mol-Kelvin    Cal/Mol-Kelvin
 Total                    6.177              7.140             55.275
 Electronic               0.000              0.000              1.377
 Translational            0.889              2.981             35.068
 Rotational               0.592              1.987             13.348
 Vibrational              4.695              2.172              5.482
 Vibration     1          0.594              1.982              5.450

 Normal termination of Gaussian 16 at Fri Aug 22 19:27:24 2025.
