 Gaussian 16, Revision C.01,
 Gaussian 16:  ES64L-G16RevC.01  3-Jul-2019

 -----------------------------------------
 # sp b3lyp/6-311g** Force nosymm scf=(qc)
 -----------------------------------------

 -------------------
 Title Card Required
 -------------------
 Symbolic Z-matrix:
 Charge =  0 Multiplicity = 2

                          Input orientation:
 ---------------------------------------------------------------------
 Center     Atomic      Atomic             Coordinates (Angstroms)
 Number     Number       Type             X           Y           Z
 ---------------------------------------------------------------------
      1          1           0        0.000000    0.000000    0.000000
      2          1           0       -1.150000    0.000000    0.000000
      3          9           0        1.000000    0.000000    0.000000
 ---------------------------------------------------------------------

 SCF Done:  E(UB3LYP) =  -100.963972512     a.u. after    6 cycles

 Alpha  occ. eigenvalues --  -24.64183  -1.16761  -0.55940  -0.38975  -0.38975
 Alpha  occ. eigenvalues --   -0.36870
 Alpha virt. eigenvalues --    0.11295   0.19209   0.39809   0.91824   0.91824
 Alpha virt. eigenvalues --    0.98099   1.09204   1.09204   1.35187   1.54003
 Alpha virt. eigenvalues --    1.54003   1.58734   2.17451   2.29208   2.76354

  Beta  occ. eigenvalues --  -24.63498  -1.15039  -0.51626  -0.38366  -0.38366
  Beta virt. eigenvalues --   -0.18128   0.13373   0.22849   0.44832   0.92884
  Beta virt. eigenvalues --    0.92884   0.99526   1.16187   1.16187   1.40085
  Beta virt. eigenvalues --    1.59063   1.59063   1.64378   2.22900   2.38799

 Mulliken charges and spin densities:
               1          2
     1  H    0.282975  -0.017137
     2  H    0.029829   0.838764
     3  F   -0.312803   0.178373
 Sum of Mulliken charges =   0.00000   1.00000

 Dipole moment (field-independent basis, Debye):
    X=             -2.1325    Y=              0.0000    Z=             -0.0000  Tot=              2.1325
 Quadrupole moment (field-independent basis, Debye-Ang):
   XX=             -7.6577   YY=             -6.7420   ZZ=             -6.7420
   XY=             -0.0000   XZ=             -0.0000   YZ=             -0.0000

  Exact polarizability:      14.613      -0.000       2.566       0.000       0.000       2.566
 Approx polarizability:      16.772      -0.000       2.580       0.000       0.000       2.580

                      1                      2                      3
                      A                      A                      A
 Frequencies --    542.3904               542.3904               781.5786
 Red. masses --      1.0197                 1.0197                 1.0329
 Frc consts  --      0.1767                 0.1767                 0.3717
 IR Inten    --     70.2024                70.2024                23.3811

                      4
                      A
 Frequencies --   2412.7953
 Red. masses --      1.0797
 Frc consts  --      3.7033
 IR Inten    --     58.1166

 - Thermochemistry -
 -------------------
 Temperature   298.150 Kelvin.  Pressure   1.00000 Atm.
 Atom     1 has atomic number  1 and mass   1.00783

 Molecular mass:    21.01405 amu.
 Principal axes and moments of inertia in atomic units:
                           1         2         3
     Eigenvalues --     0.00000  18.52273  18.52273
           X            1.00000  -0.00000   0.00000
           Y            0.00000   1.00000   0.00000
           Z            0.00000   0.00000   1.00000
 This molecule is a prolate symmetric top.
 Rotational symmetry number  1.
 Rotational temperature (Kelvin)      4.67609
 Rotational constant (GHZ):          97.433849
 Zero-point vibrational energy      25595.0 (Joules/Mol)
                                    6.11736 (Kcal/Mol)
 Warning -- explicit consideration of   2 degrees of freedom as
           vibrations may cause significant error
 Vibrational temperatures:    780.38   780.38  1124.52  3471.47
          (Kelvin)

 Zero-point correction=                           0.009749 (Hartree/Particle)
 Thermal correction to Energy=                    0.012582
 Thermal correction to Enthalpy=                  0.013526
 Thermal correction to Gibbs Free Energy=        -0.009296
 Sum of electronic and zero-point Energies=           -100.954224
 Sum of electronic and thermal Energies=              -100.951390
 Sum of electronic and thermal Enthalpies=            -100.950446
 Sum of electronic and thermal Free Energies=         -100.973268

                     E (Thermal)             CV                S
                      KCal/Mol        Cal/Mol-Kelvin    Cal/Mol-Kelvin
 Total                    7.895              7.965             48.033
 Electronic               0.000              0.000              1.377
 Translational            0.889              2.981             35.068
 Rotational               0.592              1.987             10.244
 Vibrational              6.414              2.997              1.343
 Vibration     1          0.897              1.156              0.560
 Vibration     2          0.897              1.156              0.560

 Normal termination of Gaussian 16 at Fri Aug 22 15:59:57 2025.
