 Gaussian 16, Revision C.01,
 Gaussian 16:  ES64L-G16RevC.01  3-Jul-2019

 -----------------------------------------
 # sp b3lyp/6-311g** Force nosymm scf=(qc)
 -----------------------------------------

 -------------------
 Title Card Required
 -------------------
 Symbolic Z-matrix:
 Charge =  0 Multiplicity = 2

                          Input orientation:
 ---------------------------------------------------------------------
 Center     Atomic      Atomic             Coordinates (Angstroms)
 Number     Number       Type             X           Y           Z
 ---------------------------------------------------------------------
      1          1           0        0.000000    0.000000    0.000000
      2          1           0       -1.050000    0.000000    0.000000
      3          9           0        2.200000    0.000000    0.000000
 ---------------------------------------------------------------------

 SCF Done:  E(UB3LYP) =  -100.900704639     a.u. after   13 cycles

 Alpha  occ. eigenvalues --  -24.74462  -1.20530  -0.53893  -0.45036  -0.45036
 Alpha  occ. eigenvalues --   -0.39899
 Alpha virt. eigenvalues --   -0.00848   0.21543   0.37676   0.89075   0.91528
 Alpha virt. eigenvalues --    0.91528   1.08246   1.08246   1.10042   1.39389
 Alpha virt. eigenvalues --    1.61131   1.61131   2.18930   2.33789   2.56096

  Beta  occ. eigenvalues --  -24.71463  -1.11966  -0.42041  -0.42041  -0.39696
  Beta virt. eigenvalues --   -0.25621   0.00072   0.22054   0.38114   0.92922
  Beta virt. eigenvalues --    0.92922   0.96960   1.08858   1.08858   1.13270
  Beta virt. eigenvalues --    1.41191   1.61576   1.61576   2.19769   2.34431

 Mulliken charges and spin densities:
               1          2
     1  H    0.006307  -0.043922
     2  H    0.034195   0.099199
     3  F   -0.040502   0.944723
 Sum of Mulliken charges =  -0.00000   1.00000

 Dipole moment (field-independent basis, Debye):
    X=             -0.6089    Y=             -0.0000    Z=             -0.0000  Tot=              0.6089
 Quadrupole moment (field-independent basis, Debye-Ang):
   XX=             -6.2570   YY=             -7.2848   ZZ=             -7.2848
   XY=              0.0000   XZ=             -0.0000   YZ=              0.0000

  Exact polarizability:      31.020       0.000       2.137      -0.000       0.000       2.137
 Approx polarizability:      38.454       0.000       2.158       0.000      -0.000       2.158

 ******    1 imaginary frequencies (negative Signs) ******

                      1                      2                      3
                      A                      A                      A
 Frequencies --   -374.7437              1190.5838              1474.5627
 Red. masses --      1.1052                 1.0106                 1.0114
 Frc consts  --      0.0914                 0.8440                 1.2957
 IR Inten    --     94.6779               348.2828                 0.0500

                      4
                      A
 Frequencies --   1474.5627
 Red. masses --      1.0114
 Frc consts  --      1.2957
 IR Inten    --      0.0500

 - Thermochemistry -
 -------------------
 Temperature   298.150 Kelvin.  Pressure   1.00000 Atm.
 Atom     1 has atomic number  1 and mass   1.00783

 Molecular mass:    21.01405 amu.
 Principal axes and moments of inertia in atomic units:
                           1         2         3
     Eigenvalues --     0.00000  50.30687  50.30687
           X            1.00000  -0.00000   0.00000
           Y            0.00000   1.00000   0.00000
           Z            0.00000   0.00000   1.00000
 This molecule is a prolate symmetric top.
 Rotational symmetry number  1.
 Rotational temperature (Kelvin)      1.72171
 Rotational constant (GHZ):          35.874645
    1 imaginary frequencies ignored.
 Zero-point vibrational energy      24761.0 (Joules/Mol)
                                    5.91801 (Kcal/Mol)
 Vibrational temperatures:   1712.98  2121.57  2121.57
          (Kelvin)

 Zero-point correction=                           0.009431 (Hartree/Particle)
 Thermal correction to Energy=                    0.011820
 Thermal correction to Enthalpy=                  0.012764
 Thermal correction to Gibbs Free Energy=        -0.010396
 Sum of electronic and zero-point Energies=           -100.891274
 Sum of electronic and thermal Energies=              -100.888885
 Sum of electronic and thermal Enthalpies=            -100.887941
 Sum of electronic and thermal Free Energies=         -100.911101

                     E (Thermal)             CV                S
                      KCal/Mol        Cal/Mol-Kelvin    Cal/Mol-Kelvin
 Total                    7.417              5.343             48.744
 Electronic               0.000              0.000              1.377
 Translational            0.889              2.981             35.068
 Rotational               0.592              1.987             12.230
 Vibrational              5.936              0.375              0.069

 Normal termination of Gaussian 16 at Fri Aug 22 17:10:44 2025.
