 Gaussian 16, Revision C.01,
 Gaussian 16:  ES64L-G16RevC.01  3-Jul-2019

 -----------------------------------------
 # sp b3lyp/6-311g** Force nosymm scf=(qc)
 -----------------------------------------

 -------------------
 Title Card Required
 -------------------
 Symbolic Z-matrix:
 Charge =  0 Multiplicity = 2

                          Input orientation:
 ---------------------------------------------------------------------
 Center     Atomic      Atomic             Coordinates (Angstroms)
 Number     Number       Type             X           Y           Z
 ---------------------------------------------------------------------
      1          1           0        0.000000    0.000000    0.000000
      2          1           0       -1.600000    0.000000    0.000000
      3          9           0        0.800000    0.000000    0.000000
 ---------------------------------------------------------------------

 SCF Done:  E(UB3LYP) =  -100.948018991     a.u. after    6 cycles

 Alpha  occ. eigenvalues --  -24.63417  -1.22960  -0.56779  -0.40465  -0.40465
 Alpha  occ. eigenvalues --   -0.36301
 Alpha virt. eigenvalues --    0.11501   0.22050   0.44590   0.94211   0.94211
 Alpha virt. eigenvalues --    0.97175   1.18418   1.18418   1.24184   1.42788
 Alpha virt. eigenvalues --    1.42788   1.54804   2.05412   2.17142   2.72952

  Beta  occ. eigenvalues --  -24.63292  -1.22627  -0.56000  -0.40363  -0.40363
  Beta virt. eigenvalues --   -0.12997   0.13113   0.30011   0.47818   0.94303
  Beta virt. eigenvalues --    0.94303   0.97445   1.31719   1.31719   1.32322
  Beta virt. eigenvalues --    1.47486   1.47486   1.60772   2.10790   2.32076

 Mulliken charges and spin densities:
               1          2
     1  H    0.256109   0.011602
     2  H    0.018072   0.962396
     3  F   -0.274180   0.026002
 Sum of Mulliken charges =   0.00000   1.00000

 Dipole moment (field-independent basis, Debye):
    X=             -1.8687    Y=              0.0000    Z=              0.0000  Tot=              1.8687
 Quadrupole moment (field-independent basis, Debye-Ang):
   XX=             -7.2612   YY=             -6.6822   ZZ=             -6.6822
   XY=              0.0000   XZ=              0.0000   YZ=              0.0000

  Exact polarizability:       8.512      -0.000       2.534      -0.000      -0.000       2.534
 Approx polarizability:       8.527      -0.000       2.537      -0.000      -0.000       2.537

 ******    2 imaginary frequencies (negative Signs) ******

                      1                      2                      3
                      A                      A                      A
 Frequencies --  -1952.5496             -1952.5496               602.8785
 Red. masses --      1.0281                 1.0281                 1.0532
 Frc consts  --      2.3092                 2.3092                 0.2255
 IR Inten    --    139.3174               139.3174                 0.2704

                      4
                      A
 Frequencies --   6307.2516
 Red. masses --      1.0584
 Frc consts  --     24.8065
 IR Inten    --    180.2575

 - Thermochemistry -
 -------------------
 Temperature   298.150 Kelvin.  Pressure   1.00000 Atm.
 Atom     1 has atomic number  1 and mass   1.00783

 Molecular mass:    21.01405 amu.
 Principal axes and moments of inertia in atomic units:
                           1         2         3
     Eigenvalues --     0.00000  21.26616  21.26616
           X            1.00000  -0.00000   0.00000
           Y            0.00000   1.00000   0.00000
           Z            0.00000   0.00000   1.00000
 This molecule is a prolate symmetric top.
 Rotational symmetry number  1.
 Rotational temperature (Kelvin)      4.07285
 Rotational constant (GHZ):          84.864461
    2 imaginary frequencies ignored.
 Zero-point vibrational energy      41331.8 (Joules/Mol)
                                    9.87853 (Kcal/Mol)
 Warning -- explicit consideration of   1 degrees of freedom as
           vibrations may cause significant error
 Vibrational temperatures:    867.41  9074.73
          (Kelvin)

 Zero-point correction=                           0.015742 (Hartree/Particle)
 Thermal correction to Energy=                    0.018261
 Thermal correction to Enthalpy=                  0.019205
 Thermal correction to Gibbs Free Energy=        -0.003320
 Sum of electronic and zero-point Energies=           -100.932277
 Sum of electronic and thermal Energies=              -100.929758
 Sum of electronic and thermal Enthalpies=            -100.928814
 Sum of electronic and thermal Free Energies=         -100.951339

                     E (Thermal)             CV                S
                      KCal/Mol        Cal/Mol-Kelvin    Cal/Mol-Kelvin
 Total                   11.459              5.994             47.409
 Electronic               0.000              0.000              1.377
 Translational            0.889              2.981             35.068
 Rotational               0.592              1.987             10.519
 Vibrational              9.978              1.026              0.445
 Vibration     1          0.961              1.026              0.445

 Normal termination of Gaussian 16 at Fri Aug 22 15:50:49 2025.
