 Gaussian 16, Revision C.01,
 Gaussian 16:  ES64L-G16RevC.01  3-Jul-2019

 -----------------------------------------
 # sp b3lyp/6-311g** Force nosymm scf=(qc)
 -----------------------------------------

 -------------------
 Title Card Required
 -------------------
 Symbolic Z-matrix:
 Charge =  0 Multiplicity = 2

                          Input orientation:
 ---------------------------------------------------------------------
 Center     Atomic      Atomic             Coordinates (Angstroms)
 Number     Number       Type             X           Y           Z
 ---------------------------------------------------------------------
      1          1           0        0.000000    0.000000    0.000000
      2          1           0       -0.950000    0.000000    0.000000
      3          9           0        3.000000    0.000000    0.000000
 ---------------------------------------------------------------------

 SCF Done:  E(UB3LYP) =  -100.914616362     a.u. after    6 cycles

 Alpha  occ. eigenvalues --  -24.76169  -1.22066  -0.55298  -0.46434  -0.46434
 Alpha  occ. eigenvalues --   -0.40022
 Alpha virt. eigenvalues --    0.01235   0.20869   0.39879   0.89612   0.90952
 Alpha virt. eigenvalues --    0.90952   1.04805   1.08298   1.08298   1.41211
 Alpha virt. eigenvalues --    1.68610   1.68610   2.22326   2.37193   2.64288

  Beta  occ. eigenvalues --  -24.73029  -1.13034  -0.43285  -0.43285  -0.39997
  Beta virt. eigenvalues --   -0.26158   0.01407   0.20998   0.40254   0.92442
  Beta virt. eigenvalues --    0.92442   0.98348   1.08341   1.08341   1.09103
  Beta virt. eigenvalues --    1.41268   1.68643   1.68643   2.22429   2.37255

 Mulliken charges and spin densities:
               1          2
     1  H   -0.009684  -0.003955
     2  H    0.009613   0.008841
     3  F    0.000071   0.995114
 Sum of Mulliken charges =   0.00000   1.00000

 Dipole moment (field-independent basis, Debye):
    X=             -0.0519    Y=              0.0000    Z=              0.0000  Tot=              0.0519
 Quadrupole moment (field-independent basis, Debye-Ang):
   XX=             -5.5233   YY=             -7.2106   ZZ=             -7.2106
   XY=              0.0000   XZ=              0.0000   YZ=             -0.0000

  Exact polarizability:      14.239       0.000       2.047       0.000      -0.000       2.047
 Approx polarizability:      17.044       0.000       2.105       0.000      -0.000       2.105

 ******    1 imaginary frequencies (negative Signs) ******

                      1                      2                      3
                      A                      A                      A
 Frequencies --    -79.7978              1507.8646              1507.8646
 Red. masses --      1.1085                 1.0097                 1.0097
 Frc consts  --      0.0042                 1.3526                 1.3526
 IR Inten    --      0.5601                 0.0960                 0.0960

                      4
                      A
 Frequencies --   2189.6406
 Red. masses --      1.0078
 Frc consts  --      2.8470
 IR Inten    --      6.9483

 - Thermochemistry -
 -------------------
 Temperature   298.150 Kelvin.  Pressure   1.00000 Atm.
 Atom     1 has atomic number  1 and mass   1.00783

 Molecular mass:    21.01405 amu.
 Principal axes and moments of inertia in atomic units:
                           1         2         3
     Eigenvalues --     0.00000  80.20726  80.20726
           X            1.00000  -0.00000   0.00000
           Y            0.00000   1.00000   0.00000
           Z            0.00000   0.00000   1.00000
 This molecule is a prolate symmetric top.
 Rotational symmetry number  1.
 Rotational temperature (Kelvin)      1.07988
 Rotational constant (GHZ):          22.500970
    1 imaginary frequencies ignored.
 Zero-point vibrational energy      31135.0 (Joules/Mol)
                                    7.44145 (Kcal/Mol)
 Vibrational temperatures:   2169.48  2169.48  3150.40
          (Kelvin)

 Zero-point correction=                           0.011859 (Hartree/Particle)
 Thermal correction to Energy=                    0.014229
 Thermal correction to Enthalpy=                  0.015173
 Thermal correction to Gibbs Free Energy=        -0.008406
 Sum of electronic and zero-point Energies=           -100.902758
 Sum of electronic and thermal Energies=              -100.900387
 Sum of electronic and thermal Enthalpies=            -100.899443
 Sum of electronic and thermal Free Energies=         -100.923022

                     E (Thermal)             CV                S
                      KCal/Mol        Cal/Mol-Kelvin    Cal/Mol-Kelvin
 Total                    8.929              5.119             49.626
 Electronic               0.000              0.000              1.377
 Translational            0.889              2.981             35.068
 Rotational               0.592              1.987             13.157
 Vibrational              7.448              0.151              0.023

 Normal termination of Gaussian 16 at Fri Aug 22 19:23:58 2025.
