 Gaussian 16, Revision C.01,
 Gaussian 16:  ES64L-G16RevC.01  3-Jul-2019

 -----------------------------------------
 # sp b3lyp/6-311g** Force nosymm scf=(qc)
 -----------------------------------------

 -------------------
 Title Card Required
 -------------------
 Symbolic Z-matrix:
 Charge =  0 Multiplicity = 2

                          Input orientation:
 ---------------------------------------------------------------------
 Center     Atomic      Atomic             Coordinates (Angstroms)
 Number     Number       Type             X           Y           Z
 ---------------------------------------------------------------------
      1          1           0        0.000000    0.000000    0.000000
      2          1           0       -3.800000    0.000000    0.000000
      3          9           0        1.700000    0.000000    0.000000
 ---------------------------------------------------------------------

 SCF Done:  E(UB3LYP) =  -100.814458288     a.u. after    9 cycles

 Alpha  occ. eigenvalues --  -24.64256  -1.08873  -0.40977  -0.36019  -0.36019
 Alpha  occ. eigenvalues --   -0.33773
 Alpha virt. eigenvalues --   -0.18806   0.19905   0.27003   0.94851   0.94851
 Alpha virt. eigenvalues --    0.96419   1.07291   1.23705   1.23733   1.23733
 Alpha virt. eigenvalues --    1.27609   1.27609   1.70123   2.12279   2.16806

  Beta  occ. eigenvalues --  -24.64264  -1.08895  -0.40989  -0.36027  -0.36027
  Beta virt. eigenvalues --   -0.18843  -0.06478   0.22518   0.38134   0.94856
  Beta virt. eigenvalues --    0.94856   0.96438   1.07292   1.27674   1.27674
  Beta virt. eigenvalues --    1.46015   1.46388   1.46388   1.70176   2.15420

 Mulliken charges and spin densities:
               1          2
     1  H    0.326812   0.003742
     2  H    0.001173   0.998777
     3  F   -0.327985  -0.002519
 Sum of Mulliken charges =  -0.00000   1.00000

 Dipole moment (field-independent basis, Debye):
    X=             -2.7682    Y=             -0.0000    Z=             -0.0000  Tot=              2.7682
 Quadrupole moment (field-independent basis, Debye-Ang):
   XX=            -10.6875   YY=             -7.4181   ZZ=             -7.4181
   XY=             -0.0000   XZ=             -0.0000   YZ=              0.0000

  Exact polarizability:      19.468       0.000       2.103      -0.000      -0.000       2.103
 Approx polarizability:      46.261      -0.000       2.015       0.000      -0.000       2.015

 ******    2 imaginary frequencies (negative Signs) ******

                      1                      2                      3
                      A                      A                      A
 Frequencies --  -1182.0987               -63.8744               870.5038
 Red. masses --      1.0579                 1.0537                 1.0299
 Frc consts  --      0.8709                 0.0025                 0.4598
 IR Inten    --     31.9914                 0.1340               103.2378

                      4
                      A
 Frequencies --    870.5038
 Red. masses --      1.0299
 Frc consts  --      0.4598
 IR Inten    --    103.2378

 - Thermochemistry -
 -------------------
 Temperature   298.150 Kelvin.  Pressure   1.00000 Atm.
 Atom     1 has atomic number  1 and mass   1.00783

 Molecular mass:    21.01405 amu.
 Principal axes and moments of inertia in atomic units:
                           1         2         3
     Eigenvalues --     0.00000 110.32320 110.32320
           X            1.00000  -0.00000   0.00000
           Y            0.00000   1.00000   0.00000
           Z            0.00000   0.00000   1.00000
 This molecule is a prolate symmetric top.
 Rotational symmetry number  1.
 Rotational temperature (Kelvin)      0.78509
 Rotational constant (GHZ):          16.358673
    2 imaginary frequencies ignored.
 Zero-point vibrational energy      10413.5 (Joules/Mol)
                                    2.48890 (Kcal/Mol)
 Vibrational temperatures:   1252.46  1252.46
          (Kelvin)

 Zero-point correction=                           0.003966 (Hartree/Particle)
 Thermal correction to Energy=                    0.006447
 Thermal correction to Enthalpy=                  0.007392
 Thermal correction to Gibbs Free Energy=        -0.016626
 Sum of electronic and zero-point Energies=           -100.810492
 Sum of electronic and thermal Energies=              -100.808011
 Sum of electronic and thermal Enthalpies=            -100.807067
 Sum of electronic and thermal Free Energies=         -100.831084

                     E (Thermal)             CV                S
                      KCal/Mol        Cal/Mol-Kelvin    Cal/Mol-Kelvin
 Total                    4.046              6.051             50.550
 Electronic               0.000              0.000              1.377
 Translational            0.889              2.981             35.068
 Rotational               0.592              1.987             13.790
 Vibrational              2.565              1.083              0.314

 Normal termination of Gaussian 16 at Fri Aug 22 16:38:59 2025.
