 Gaussian 16, Revision C.01,
 Gaussian 16:  ES64L-G16RevC.01  3-Jul-2019

 -----------------------------------------
 # sp b3lyp/6-311g** Force nosymm scf=(qc)
 -----------------------------------------

 -------------------
 Title Card Required
 -------------------
 Symbolic Z-matrix:
 Charge =  0 Multiplicity = 2

                          Input orientation:
 ---------------------------------------------------------------------
 Center     Atomic      Atomic             Coordinates (Angstroms)
 Number     Number       Type             X           Y           Z
 ---------------------------------------------------------------------
      1          1           0        0.000000    0.000000    0.000000
      2          1           0       -3.350000    0.000000    0.000000
      3          9           0        1.000000    0.000000    0.000000
 ---------------------------------------------------------------------

 SCF Done:  E(UB3LYP) =  -100.966171929     a.u. after    6 cycles

 Alpha  occ. eigenvalues --  -24.64179  -1.16054  -0.51651  -0.38799  -0.38799
 Alpha  occ. eigenvalues --   -0.33831
 Alpha virt. eigenvalues --    0.00629   0.24142   0.34532   0.94042   0.94042
 Alpha virt. eigenvalues --    0.98577   1.23510   1.23688   1.23688   1.29922
 Alpha virt. eigenvalues --    1.35931   1.35931   1.90288   2.14267   2.33935

  Beta  occ. eigenvalues --  -24.64177  -1.16047  -0.51643  -0.38797  -0.38797
  Beta virt. eigenvalues --   -0.06336   0.01441   0.33629   0.39192   0.94042
  Beta virt. eigenvalues --    0.94042   0.98578   1.29561   1.35928   1.35928
  Beta virt. eigenvalues --    1.49721   1.49756   1.49756   1.90322   2.33842

 Mulliken charges and spin densities:
               1          2
     1  H    0.319514   0.000705
     2  H    0.001350   0.998376
     3  F   -0.320863   0.000918
 Sum of Mulliken charges =   0.00000   1.00000

 Dipole moment (field-independent basis, Debye):
    X=             -2.0435    Y=              0.0000    Z=              0.0000  Tot=              2.0435
 Quadrupole moment (field-independent basis, Debye-Ang):
   XX=             -8.1981   YY=             -6.9620   ZZ=             -6.9620
   XY=              0.0000   XZ=              0.0000   YZ=             -0.0000

  Exact polarizability:       6.894       0.000       2.401      -0.000      -0.000       2.401
 Approx polarizability:       8.387      -0.000       2.374       0.000      -0.000       2.374

 ******    1 imaginary frequencies (negative Signs) ******

                      1                      2                      3
                      A                      A                      A
 Frequencies --    -58.1070               981.9073               981.9073
 Red. masses --      1.0532                 1.0363                 1.0363
 Frc consts  --      0.0021                 0.5887                 0.5887
 IR Inten    --      0.0871               167.6057               167.6057

                      4
                      A
 Frequencies --   3026.1542
 Red. masses --      1.0584
 Frc consts  --      5.7104
 IR Inten    --     91.9437

 - Thermochemistry -
 -------------------
 Temperature   298.150 Kelvin.  Pressure   1.00000 Atm.
 Atom     1 has atomic number  1 and mass   1.00783

 Molecular mass:    21.01405 amu.
 Principal axes and moments of inertia in atomic units:
                           1         2         3
     Eigenvalues --     0.00000  66.76081  66.76081
           X            1.00000  -0.00000   0.00000
           Y            0.00000   1.00000   0.00000
           Z            0.00000   0.00000   1.00000
 This molecule is a prolate symmetric top.
 Rotational symmetry number  1.
 Rotational temperature (Kelvin)      1.29738
 Rotational constant (GHZ):          27.032945
    1 imaginary frequencies ignored.
 Zero-point vibrational energy      29846.6 (Joules/Mol)
                                    7.13352 (Kcal/Mol)
 Vibrational temperatures:   1412.75  1412.75  4353.96
          (Kelvin)

 Zero-point correction=                           0.011368 (Hartree/Particle)
 Thermal correction to Energy=                    0.013807
 Thermal correction to Enthalpy=                  0.014752
 Thermal correction to Gibbs Free Energy=        -0.008738
 Sum of electronic and zero-point Energies=           -100.954804
 Sum of electronic and thermal Energies=              -100.952364
 Sum of electronic and thermal Enthalpies=            -100.951420
 Sum of electronic and thermal Free Energies=         -100.974910

                     E (Thermal)             CV                S
                      KCal/Mol        Cal/Mol-Kelvin    Cal/Mol-Kelvin
 Total                    8.664              5.763             49.439
 Electronic               0.000              0.000              1.377
 Translational            0.889              2.981             35.068
 Rotational               0.592              1.987             12.792
 Vibrational              7.183              0.795              0.201

 Normal termination of Gaussian 16 at Fri Aug 22 16:01:26 2025.
