 Gaussian 16, Revision C.01,
 Gaussian 16:  ES64L-G16RevC.01  3-Jul-2019

 -----------------------------------------
 # sp b3lyp/6-311g** Force nosymm scf=(qc)
 -----------------------------------------

 -------------------
 Title Card Required
 -------------------
 Symbolic Z-matrix:
 Charge =  0 Multiplicity = 2

                          Input orientation:
 ---------------------------------------------------------------------
 Center     Atomic      Atomic             Coordinates (Angstroms)
 Number     Number       Type             X           Y           Z
 ---------------------------------------------------------------------
      1          1           0        0.000000    0.000000    0.000000
      2          1           0       -3.000000    0.000000    0.000000
      3          9           0        1.700000    0.000000    0.000000
 ---------------------------------------------------------------------

 SCF Done:  E(UB3LYP) =  -100.818059668     a.u. after   16 cycles

 Alpha  occ. eigenvalues --  -24.65686  -1.11694  -0.44357  -0.37531  -0.37531
 Alpha  occ. eigenvalues --   -0.34489
 Alpha virt. eigenvalues --   -0.15072   0.21963   0.29067   0.94594   0.94594
 Alpha virt. eigenvalues --    0.96503   1.06419   1.23051   1.23051   1.23689
 Alpha virt. eigenvalues --    1.33100   1.33100   1.73264   2.13752   2.23958

  Beta  occ. eigenvalues --  -24.64182  -1.07598  -0.40160  -0.36075  -0.36075
  Beta virt. eigenvalues --   -0.18420  -0.08178   0.22754   0.36778   0.94350
  Beta virt. eigenvalues --    0.94350   0.97301   1.07832   1.25424   1.25424
  Beta virt. eigenvalues --    1.43936   1.44251   1.44251   1.69764   2.13220

 Mulliken charges and spin densities:
               1          2
     1  H    0.286693  -0.465158
     2  H    0.007023   0.991331
     3  F   -0.293716   0.473827
 Sum of Mulliken charges =   0.00000   1.00000

 Dipole moment (field-independent basis, Debye):
    X=             -2.5336    Y=              0.0000    Z=              0.0000  Tot=              2.5336
 Quadrupole moment (field-independent basis, Debye-Ang):
   XX=             -9.9459   YY=             -7.4151   ZZ=             -7.4151
   XY=              0.0000   XZ=              0.0000   YZ=             -0.0000

  Exact polarizability:      25.116       0.000       2.122       0.000       0.000       2.122
 Approx polarizability:      37.979       0.000       2.022       0.000      -0.000       2.022

 ******    2 imaginary frequencies (negative Signs) ******

                      1                      2                      3
                      A                      A                      A
 Frequencies --  -1737.4544              -200.5550               766.6148
 Red. masses --      1.0562                 1.0554                 1.0260
 Frc consts  --      1.8785                 0.0250                 0.3553
 IR Inten    --     99.3151                 2.3174                73.9182

                      4
                      A
 Frequencies --    766.6148
 Red. masses --      1.0260
 Frc consts  --      0.3553
 IR Inten    --     73.9182

 - Thermochemistry -
 -------------------
 Temperature   298.150 Kelvin.  Pressure   1.00000 Atm.
 Atom     1 has atomic number  1 and mass   1.00783

 Molecular mass:    21.01405 amu.
 Principal axes and moments of inertia in atomic units:
                           1         2         3
     Eigenvalues --     0.00000  82.83325  82.83325
           X            1.00000  -0.00000   0.00000
           Y            0.00000   1.00000   0.00000
           Z            0.00000   0.00000   1.00000
 This molecule is a prolate symmetric top.
 Rotational symmetry number  1.
 Rotational temperature (Kelvin)      1.04564
 Rotational constant (GHZ):          21.787641
    2 imaginary frequencies ignored.
 Zero-point vibrational energy       9170.8 (Joules/Mol)
                                    2.19186 (Kcal/Mol)
 Vibrational temperatures:   1102.99  1102.99
          (Kelvin)

 Zero-point correction=                           0.003493 (Hartree/Particle)
 Thermal correction to Energy=                    0.006031
 Thermal correction to Enthalpy=                  0.006975
 Thermal correction to Gibbs Free Energy=        -0.016848
 Sum of electronic and zero-point Energies=           -100.814567
 Sum of electronic and thermal Energies=              -100.812029
 Sum of electronic and thermal Enthalpies=            -100.811085
 Sum of electronic and thermal Free Energies=         -100.834907

                     E (Thermal)             CV                S
                      KCal/Mol        Cal/Mol-Kelvin    Cal/Mol-Kelvin
 Total                    3.784              6.383             50.139
 Electronic               0.000              0.000              1.377
 Translational            0.889              2.981             35.068
 Rotational               0.592              1.987             13.221
 Vibrational              2.303              1.415              0.472

 Normal termination of Gaussian 16 at Fri Aug 22 16:38:22 2025.
