 Gaussian 16, Revision C.01,
 Gaussian 16:  ES64L-G16RevC.01  3-Jul-2019

 -----------------------------------------
 # sp b3lyp/6-311g** Force nosymm scf=(qc)
 -----------------------------------------

 -------------------
 Title Card Required
 -------------------
 Symbolic Z-matrix:
 Charge =  0 Multiplicity = 2

                          Input orientation:
 ---------------------------------------------------------------------
 Center     Atomic      Atomic             Coordinates (Angstroms)
 Number     Number       Type             X           Y           Z
 ---------------------------------------------------------------------
      1          1           0        0.000000    0.000000    0.000000
      2          1           0       -2.850000    0.000000    0.000000
      3          9           0        3.750000    0.000000    0.000000
 ---------------------------------------------------------------------

 SCF Done:  E(UB3LYP) =  -100.760198943     a.u. after   29 cycles

 Alpha  occ. eigenvalues --  -24.75729  -1.21667  -0.54853  -0.46056  -0.46056
 Alpha  occ. eigenvalues --   -0.32421
 Alpha virt. eigenvalues --   -0.08206   0.25274   0.35814   0.86952   0.91265
 Alpha virt. eigenvalues --    0.91265   1.01316   1.25135   1.25135   1.26147
 Alpha virt. eigenvalues --    1.43597   1.43597   1.43814   2.15954   2.38929

  Beta  occ. eigenvalues --  -24.72594  -1.12653  -0.42913  -0.42913  -0.32669
  Beta virt. eigenvalues --   -0.25663  -0.07882   0.25081   0.36288   0.92760
  Beta virt. eigenvalues --    0.92760   0.96244   1.05409   1.24855   1.24855
  Beta virt. eigenvalues --    1.25837   1.44094   1.44094   1.44310   2.16109

 Mulliken charges and spin densities:
               1          2
     1  H    0.004705  -0.982730
     2  H    0.000587   0.988646
     3  F   -0.005292   0.994084
 Sum of Mulliken charges =   0.00000   1.00000

 Dipole moment (field-independent basis, Debye):
    X=             -0.1102    Y=              0.0000    Z=              0.0000  Tot=              0.1102
 Quadrupole moment (field-independent basis, Debye-Ang):
   XX=             -6.9788   YY=             -7.6427   ZZ=             -7.6427
   XY=             -0.0000   XZ=             -0.0000   YZ=             -0.0000

  Exact polarizability:      20.470       0.000       2.025       0.000       0.000       2.025
 Approx polarizability:      15.113      -0.000       1.932      -0.000       0.000       1.932

 ******    2 imaginary frequencies (negative Signs) ******

                      1                      2                      3
                      A                      A                      A
 Frequencies --   -413.0292              -101.0090               147.4452
 Red. masses --      1.0082                 1.1080                 1.0150
 Frc consts  --      0.1013                 0.0067                 0.0130
 IR Inten    --      2.2222                 1.9789                 0.0190

                      4
                      A
 Frequencies --    147.4452
 Red. masses --      1.0150
 Frc consts  --      0.0130
 IR Inten    --      0.0190

 - Thermochemistry -
 -------------------
 Temperature   298.150 Kelvin.  Pressure   1.00000 Atm.
 Atom     1 has atomic number  1 and mass   1.00783

 Molecular mass:    21.01405 amu.
 Principal axes and moments of inertia in atomic units:
                           1         2         3
     Eigenvalues --     0.00000 188.89379 188.89379
           X            1.00000  -0.00000   0.00000
           Y            0.00000   1.00000   0.00000
           Z            0.00000   0.00000   1.00000
 This molecule is a prolate symmetric top.
 Rotational symmetry number  1.
 Rotational temperature (Kelvin)      0.45853
 Rotational constant (GHZ):           9.554265
    2 imaginary frequencies ignored.
 Zero-point vibrational energy       1763.8 (Joules/Mol)
                                    0.42157 (Kcal/Mol)
 Warning -- explicit consideration of   2 degrees of freedom as
           vibrations may cause significant error
 Vibrational temperatures:    212.14   212.14
          (Kelvin)

 Zero-point correction=                           0.000672 (Hartree/Particle)
 Thermal correction to Energy=                    0.004328
 Thermal correction to Enthalpy=                  0.005272
 Thermal correction to Gibbs Free Energy=        -0.021675
 Sum of electronic and zero-point Energies=           -100.759527
 Sum of electronic and thermal Energies=              -100.755871
 Sum of electronic and thermal Enthalpies=            -100.754927
 Sum of electronic and thermal Free Energies=         -100.781874

                     E (Thermal)             CV                S
                      KCal/Mol        Cal/Mol-Kelvin    Cal/Mol-Kelvin
 Total                    2.716              8.779             56.714
 Electronic               0.000              0.000              1.377
 Translational            0.889              2.981             35.068
 Rotational               0.592              1.987             14.859
 Vibrational              1.235              3.811              5.410
 Vibration     1          0.617              1.905              2.705
 Vibration     2          0.617              1.905              2.705

 Normal termination of Gaussian 16 at Sat Aug 23 00:26:42 2025.
