 Gaussian 16, Revision C.01,
 Gaussian 16:  ES64L-G16RevC.01  3-Jul-2019

 -----------------------------------------
 # sp b3lyp/6-311g** Force nosymm scf=(qc)
 -----------------------------------------

 -------------------
 Title Card Required
 -------------------
 Symbolic Z-matrix:
 Charge =  0 Multiplicity = 2

                          Input orientation:
 ---------------------------------------------------------------------
 Center     Atomic      Atomic             Coordinates (Angstroms)
 Number     Number       Type             X           Y           Z
 ---------------------------------------------------------------------
      1          1           0        0.000000    0.000000    0.000000
      2          1           0       -2.850000    0.000000    0.000000
      3          9           0        4.000000    0.000000    0.000000
 ---------------------------------------------------------------------

 SCF Done:  E(UB3LYP) =  -100.760042226     a.u. after   67 cycles

 Alpha  occ. eigenvalues --  -24.75893  -1.21820  -0.55018  -0.46196  -0.46196
 Alpha  occ. eigenvalues --   -0.32378
 Alpha virt. eigenvalues --   -0.08065   0.25316   0.36055   0.86556   0.91160
 Alpha virt. eigenvalues --    0.91160   1.01071   1.25178   1.25178   1.26179
 Alpha virt. eigenvalues --    1.43808   1.43808   1.44026   2.15992   2.38950

  Beta  occ. eigenvalues --  -24.72748  -1.12774  -0.43042  -0.43042  -0.32538
  Beta virt. eigenvalues --   -0.25743  -0.07864   0.25168   0.36308   0.92659
  Beta virt. eigenvalues --    0.92659   0.95941   1.05202   1.25006   1.25006
  Beta virt. eigenvalues --    1.25991   1.44102   1.44102   1.44320   2.16018

 Mulliken charges and spin densities:
               1          2
     1  H    0.001926  -0.985990
     2  H    0.000362   0.988571
     3  F   -0.002289   0.997419
 Sum of Mulliken charges =   0.00000   1.00000

 Dipole moment (field-independent basis, Debye):
    X=             -0.0523    Y=              0.0000    Z=             -0.0000  Tot=              0.0523
 Quadrupole moment (field-independent basis, Debye-Ang):
   XX=             -6.8007   YY=             -7.6432   ZZ=             -7.6432
   XY=              0.0000   XZ=             -0.0000   YZ=             -0.0000

  Exact polarizability:      14.418       0.000       2.028      -0.000      -0.000       2.028
 Approx polarizability:      10.938       0.000       1.934      -0.000       0.000       1.934

 ******    2 imaginary frequencies (negative Signs) ******

                      1                      2                      3
                      A                      A                      A
 Frequencies --   -406.6419               -74.5319               146.0203
 Red. masses --      1.0079                 1.1084                 1.0144
 Frc consts  --      0.0982                 0.0036                 0.0127
 IR Inten    --      0.5414                 0.5667                 0.0030

                      4
                      A
 Frequencies --    146.0203
 Red. masses --      1.0144
 Frc consts  --      0.0127
 IR Inten    --      0.0030

 - Thermochemistry -
 -------------------
 Temperature   298.150 Kelvin.  Pressure   1.00000 Atm.
 Atom     1 has atomic number  1 and mass   1.00783

 Molecular mass:    21.01405 amu.
 Principal axes and moments of inertia in atomic units:
                           1         2         3
     Eigenvalues --     0.00000 206.13890 206.13890
           X            1.00000  -0.00000   0.00000
           Y            0.00000   1.00000   0.00000
           Z            0.00000   0.00000   1.00000
 This molecule is a prolate symmetric top.
 Rotational symmetry number  1.
 Rotational temperature (Kelvin)      0.42017
 Rotational constant (GHZ):           8.754977
    2 imaginary frequencies ignored.
 Zero-point vibrational energy       1746.8 (Joules/Mol)
                                    0.41749 (Kcal/Mol)
 Warning -- explicit consideration of   2 degrees of freedom as
           vibrations may cause significant error
 Vibrational temperatures:    210.09   210.09
          (Kelvin)

 Zero-point correction=                           0.000665 (Hartree/Particle)
 Thermal correction to Energy=                    0.004326
 Thermal correction to Enthalpy=                  0.005271
 Thermal correction to Gibbs Free Energy=        -0.021776
 Sum of electronic and zero-point Energies=           -100.759377
 Sum of electronic and thermal Energies=              -100.755716
 Sum of electronic and thermal Enthalpies=            -100.754772
 Sum of electronic and thermal Free Energies=         -100.781819

                     E (Thermal)             CV                S
                      KCal/Mol        Cal/Mol-Kelvin    Cal/Mol-Kelvin
 Total                    2.715              8.782             56.925
 Electronic               0.000              0.000              1.377
 Translational            0.889              2.981             35.068
 Rotational               0.592              1.987             15.033
 Vibrational              1.234              3.814              5.447
 Vibration     1          0.617              1.907              2.723
 Vibration     2          0.617              1.907              2.723

 Normal termination of Gaussian 16 at Sat Aug 23 01:56:22 2025.
