 Gaussian 16, Revision C.01,
 Gaussian 16:  ES64L-G16RevC.01  3-Jul-2019

 -----------------------------------------
 # sp b3lyp/6-311g** Force nosymm scf=(qc)
 -----------------------------------------

 -------------------
 Title Card Required
 -------------------
 Symbolic Z-matrix:
 Charge =  0 Multiplicity = 2

                          Input orientation:
 ---------------------------------------------------------------------
 Center     Atomic      Atomic             Coordinates (Angstroms)
 Number     Number       Type             X           Y           Z
 ---------------------------------------------------------------------
      1          1           0        0.000000    0.000000    0.000000
      2          1           0       -2.550000    0.000000    0.000000
      3          9           0        1.650000    0.000000    0.000000
 ---------------------------------------------------------------------

 SCF Done:  E(UB3LYP) =  -100.827419597     a.u. after   14 cycles

 Alpha  occ. eigenvalues --  -24.65108  -1.11040  -0.43862  -0.37027  -0.37027
 Alpha  occ. eigenvalues --   -0.35552
 Alpha virt. eigenvalues --   -0.14602   0.23066   0.27970   0.94567   0.94567
 Alpha virt. eigenvalues --    0.98841   1.07126   1.22023   1.22023   1.24454
 Alpha virt. eigenvalues --    1.32977   1.32977   1.74694   2.13078   2.23133

  Beta  occ. eigenvalues --  -24.63840  -1.07609  -0.40471  -0.35804  -0.35804
  Beta virt. eigenvalues --   -0.18136  -0.09206   0.24049   0.35087   0.94276
  Beta virt. eigenvalues --    0.94276   1.00083   1.08103   1.26694   1.26694
  Beta virt. eigenvalues --    1.41706   1.41706   1.42718   1.72078   2.14098

 Mulliken charges and spin densities:
               1          2
     1  H    0.292647  -0.375113
     2  H    0.019023   0.975536
     3  F   -0.311670   0.399577
 Sum of Mulliken charges =   0.00000   1.00000

 Dipole moment (field-independent basis, Debye):
    X=             -2.7385    Y=              0.0000    Z=              0.0000  Tot=              2.7385
 Quadrupole moment (field-independent basis, Debye-Ang):
   XX=             -9.5629   YY=             -7.4042   ZZ=             -7.4042
   XY=              0.0000   XZ=              0.0000   YZ=             -0.0000

  Exact polarizability:      29.014       0.000       2.142       0.000       0.000       2.142
 Approx polarizability:      41.235      -0.000       2.050      -0.000       0.000       2.050

 ******    2 imaginary frequencies (negative Signs) ******

                      1                      2                      3
                      A                      A                      A
 Frequencies --  -1848.9186              -319.4119               825.7412
 Red. masses --      1.0521                 1.0595                 1.0240
 Frc consts  --      2.1190                 0.0637                 0.4114
 IR Inten    --     53.9472                 7.9512                72.7217

                      4
                      A
 Frequencies --    825.7412
 Red. masses --      1.0240
 Frc consts  --      0.4114
 IR Inten    --     72.7217

 - Thermochemistry -
 -------------------
 Temperature   298.150 Kelvin.  Pressure   1.00000 Atm.
 Atom     1 has atomic number  1 and mass   1.00783

 Molecular mass:    21.01405 amu.
 Principal axes and moments of inertia in atomic units:
                           1         2         3
     Eigenvalues --     0.00000  67.37777  67.37777
           X            1.00000  -0.00000   0.00000
           Y            0.00000   1.00000   0.00000
           Z            0.00000   0.00000   1.00000
 This molecule is a prolate symmetric top.
 Rotational symmetry number  1.
 Rotational temperature (Kelvin)      1.28550
 Rotational constant (GHZ):          26.785410
    2 imaginary frequencies ignored.
 Zero-point vibrational energy       9878.1 (Joules/Mol)
                                    2.36091 (Kcal/Mol)
 Vibrational temperatures:   1188.06  1188.06
          (Kelvin)

 Zero-point correction=                           0.003762 (Hartree/Particle)
 Thermal correction to Energy=                    0.006265
 Thermal correction to Enthalpy=                  0.007210
 Thermal correction to Gibbs Free Energy=        -0.016371
 Sum of electronic and zero-point Energies=           -100.823657
 Sum of electronic and thermal Energies=              -100.821154
 Sum of electronic and thermal Enthalpies=            -100.820210
 Sum of electronic and thermal Free Energies=         -100.843791

                     E (Thermal)             CV                S
                      KCal/Mol        Cal/Mol-Kelvin    Cal/Mol-Kelvin
 Total                    3.932              6.186             49.631
 Electronic               0.000              0.000              1.377
 Translational            0.889              2.981             35.068
 Rotational               0.592              1.987             12.810
 Vibrational              2.450              1.218              0.375

 Normal termination of Gaussian 16 at Fri Aug 22 16:34:50 2025.
