 Gaussian 16, Revision C.01,
 Gaussian 16:  ES64L-G16RevC.01  3-Jul-2019

 -----------------------------------------
 # sp b3lyp/6-311g** Force nosymm scf=(qc)
 -----------------------------------------

 -------------------
 Title Card Required
 -------------------
 Symbolic Z-matrix:
 Charge =  0 Multiplicity = 2

                          Input orientation:
 ---------------------------------------------------------------------
 Center     Atomic      Atomic             Coordinates (Angstroms)
 Number     Number       Type             X           Y           Z
 ---------------------------------------------------------------------
      1          1           0        0.000000    0.000000    0.000000
      2          1           0       -2.700000    0.000000    0.000000
      3          9           0        1.800000    0.000000    0.000000
 ---------------------------------------------------------------------

 SCF Done:  E(UB3LYP) =  -100.798460415     a.u. after   12 cycles

 Alpha  occ. eigenvalues --  -24.63656  -1.08105  -0.39872  -0.35419  -0.35419
 Alpha  occ. eigenvalues --   -0.35403
 Alpha virt. eigenvalues --   -0.20045   0.21331   0.26692   0.93933   0.96002
 Alpha virt. eigenvalues --    0.96002   1.08469   1.21923   1.21923   1.23426
 Alpha virt. eigenvalues --    1.26032   1.26032   1.66217   2.12926   2.15763

  Beta  occ. eigenvalues --  -24.63718  -1.08275  -0.39693  -0.35479  -0.35479
  Beta virt. eigenvalues --   -0.20400  -0.09005   0.24568   0.35661   0.94214
  Beta virt. eigenvalues --    0.96047   0.96047   1.08588   1.26741   1.26741
  Beta virt. eigenvalues --    1.42644   1.42644   1.42985   1.66852   2.16762

 Mulliken charges and spin densities:
               1          2
     1  H    0.299397   0.041950
     2  H    0.021030   0.977856
     3  F   -0.320427  -0.019806
 Sum of Mulliken charges =   0.00000   1.00000

 Dipole moment (field-independent basis, Debye):
    X=             -3.1346    Y=             -0.0000    Z=              0.0000  Tot=              3.1346
 Quadrupole moment (field-independent basis, Debye-Ang):
   XX=            -10.4383   YY=             -7.4650   ZZ=             -7.4650
   XY=             -0.0000   XZ=              0.0000   YZ=             -0.0000

  Exact polarizability:      32.671      -0.000       2.070       0.000      -0.000       2.070
 Approx polarizability:      69.738      -0.000       1.981       0.000      -0.000       1.981

 ******    2 imaginary frequencies (negative Signs) ******

                      1                      2                      3
                      A                      A                      A
 Frequencies --  -1216.1802              -233.4292               786.9657
 Red. masses --      1.0511                 1.0605                 1.0235
 Frc consts  --      0.9160                 0.0340                 0.3735
 IR Inten    --    153.3087                 8.6540                79.0104

                      4
                      A
 Frequencies --    786.9657
 Red. masses --      1.0235
 Frc consts  --      0.3735
 IR Inten    --     79.0104

 - Thermochemistry -
 -------------------
 Temperature   298.150 Kelvin.  Pressure   1.00000 Atm.
 Atom     1 has atomic number  1 and mass   1.00783

 Molecular mass:    21.01405 amu.
 Principal axes and moments of inertia in atomic units:
                           1         2         3
     Eigenvalues --     0.00000  77.68994  77.68994
           X            1.00000  -0.00000   0.00000
           Y            0.00000   1.00000   0.00000
           Z            0.00000   0.00000   1.00000
 This molecule is a prolate symmetric top.
 Rotational symmetry number  1.
 Rotational temperature (Kelvin)      1.11487
 Rotational constant (GHZ):          23.230050
    2 imaginary frequencies ignored.
 Zero-point vibrational energy       9414.2 (Joules/Mol)
                                    2.25005 (Kcal/Mol)
 Vibrational temperatures:   1132.27  1132.27
          (Kelvin)

 Zero-point correction=                           0.003586 (Hartree/Particle)
 Thermal correction to Energy=                    0.006111
 Thermal correction to Enthalpy=                  0.007055
 Thermal correction to Gibbs Free Energy=        -0.016690
 Sum of electronic and zero-point Energies=           -100.794875
 Sum of electronic and thermal Energies=              -100.792350
 Sum of electronic and thermal Enthalpies=            -100.791406
 Sum of electronic and thermal Free Energies=         -100.815150

                     E (Thermal)             CV                S
                      KCal/Mol        Cal/Mol-Kelvin    Cal/Mol-Kelvin
 Total                    3.834              6.313             49.975
 Electronic               0.000              0.000              1.377
 Translational            0.889              2.981             35.068
 Rotational               0.592              1.987             13.093
 Vibrational              2.353              1.345              0.436

 Normal termination of Gaussian 16 at Fri Aug 22 16:44:11 2025.
