 Gaussian 16, Revision C.01,
 Gaussian 16:  ES64L-G16RevC.01  3-Jul-2019

 -----------------------------------------
 # sp b3lyp/6-311g** Force nosymm scf=(qc)
 -----------------------------------------

 -------------------
 Title Card Required
 -------------------
 Symbolic Z-matrix:
 Charge =  0 Multiplicity = 2

                          Input orientation:
 ---------------------------------------------------------------------
 Center     Atomic      Atomic             Coordinates (Angstroms)
 Number     Number       Type             X           Y           Z
 ---------------------------------------------------------------------
      1          1           0        0.000000    0.000000    0.000000
      2          1           0       -0.900000    0.000000    0.000000
      3          9           0        3.500000    0.000000    0.000000
 ---------------------------------------------------------------------

 SCF Done:  E(UB3LYP) =  -100.922072547     a.u. after  484 cycles

 Alpha  occ. eigenvalues --  -24.76357  -1.22221  -0.55420  -0.46616  -0.46574
 Alpha  occ. eigenvalues --   -0.40379
 Alpha virt. eigenvalues --    0.02653   0.20772   0.41526   0.85985   0.90860
 Alpha virt. eigenvalues --    0.92577   1.01759   1.08405   1.08408   1.45478
 Alpha virt. eigenvalues --    1.72293   1.72296   2.17797   2.37530   2.74219

  Beta  occ. eigenvalues --  -24.73200  -1.13142  -0.43457  -0.43408  -0.40371
  Beta virt. eigenvalues --   -0.26060   0.02665   0.20782   0.41573   0.92360
  Beta virt. eigenvalues --    0.94098   0.95448   1.05826   1.08405   1.08408
  Beta virt. eigenvalues --    1.45484   1.72292   1.72296   2.17809   2.37533

 Mulliken charges and spin densities:
               1          2
     1  H   -0.000889  -0.000354
     2  H   -0.002731  -0.000064
     3  F    0.003621   1.000418
 Sum of Mulliken charges =   0.00000   1.00000

 Dipole moment (field-independent basis, Debye):
    X=              0.0474    Y=             -0.0000    Z=             -0.0000  Tot=              0.0474
 Quadrupole moment (field-independent basis, Debye-Ang):
   XX=             -6.2354   YY=             -7.1522   ZZ=             -6.2887
   XY=              0.0000   XZ=             -0.0000   YZ=             -0.0175

  Exact polarizability:      10.503      -0.000       2.026      -0.000      -0.009       2.490
 Approx polarizability:      13.016       0.000       2.089      -0.000      -0.012       2.671

 ******    1 imaginary frequencies (negative Signs) ******

                      1                      2                      3
                      A                      A                      A
 Frequencies --    -35.4446              1453.8820              1454.5927
 Red. masses --      1.1085                 1.0091                 1.0091
 Frc consts  --      0.0008                 1.2568                 1.2580
 IR Inten    --      0.1505                 0.0000                 0.0000

                      4
                      A
 Frequencies --   2642.7434
 Red. masses --      1.0078
 Frc consts  --      4.1471
 IR Inten    --      0.1216

 - Thermochemistry -
 -------------------
 Temperature   298.150 Kelvin.  Pressure   1.00000 Atm.
 Atom     1 has atomic number  1 and mass   1.00783

 Molecular mass:    21.01405 amu.
 Principal axes and moments of inertia in atomic units:
                           1         2         3
     Eigenvalues --     0.00000 102.99226 102.99226
           X            1.00000  -0.00000   0.00000
           Y            0.00000   1.00000   0.00000
           Z            0.00000   0.00000   1.00000
 This molecule is a prolate symmetric top.
 Rotational symmetry number  1.
 Rotational temperature (Kelvin)      0.84098
 Rotational constant (GHZ):          17.523076
    1 imaginary frequencies ignored.
 Zero-point vibrational energy      33203.7 (Joules/Mol)
                                    7.93586 (Kcal/Mol)
 Vibrational temperatures:   2091.81  2092.83  3802.32
          (Kelvin)

 Zero-point correction=                           0.012647 (Hartree/Particle)
 Thermal correction to Energy=                    0.015019
 Thermal correction to Enthalpy=                  0.015963
 Thermal correction to Gibbs Free Energy=        -0.007854
 Sum of electronic and zero-point Energies=           -100.909426
 Sum of electronic and thermal Energies=              -100.907054
 Sum of electronic and thermal Enthalpies=            -100.906109
 Sum of electronic and thermal Free Energies=         -100.929927

                     E (Thermal)             CV                S
                      KCal/Mol        Cal/Mol-Kelvin    Cal/Mol-Kelvin
 Total                    9.425              5.145             50.128
 Electronic               0.000              0.000              1.377
 Translational            0.889              2.981             35.068
 Rotational               0.592              1.987             13.654
 Vibrational              7.943              0.177              0.029

 Normal termination of Gaussian 16 at Fri Aug 22 21:51:29 2025.
