 Gaussian 16, Revision C.01,
 Gaussian 16:  ES64L-G16RevC.01  3-Jul-2019

 -----------------------------------------
 # sp b3lyp/6-311g** Force nosymm scf=(qc)
 -----------------------------------------

 -------------------
 Title Card Required
 -------------------
 Symbolic Z-matrix:
 Charge =  0 Multiplicity = 2

                          Input orientation:
 ---------------------------------------------------------------------
 Center     Atomic      Atomic             Coordinates (Angstroms)
 Number     Number       Type             X           Y           Z
 ---------------------------------------------------------------------
      1          1           0        0.000000    0.000000    0.000000
      2          1           0       -3.900000    0.000000    0.000000
      3          9           0        2.450000    0.000000    0.000000
 ---------------------------------------------------------------------

 SCF Done:  E(UB3LYP) =  -100.768411814     a.u. after   15 cycles

 Alpha  occ. eigenvalues --  -24.71433  -1.17668  -0.50532  -0.42456  -0.42456
 Alpha  occ. eigenvalues --   -0.32796
 Alpha virt. eigenvalues --   -0.10513   0.23361   0.34898   0.89388   0.93771
 Alpha virt. eigenvalues --    0.93771   1.06207   1.24704   1.24704   1.24723
 Alpha virt. eigenvalues --    1.39989   1.39989   1.45350   2.14058   2.36354

  Beta  occ. eigenvalues --  -24.68620  -1.09671  -0.39654  -0.39654  -0.35567
  Beta virt. eigenvalues --   -0.23135  -0.06164   0.23644   0.38106   0.95108
  Beta virt. eigenvalues --    0.95108   0.95146   1.08407   1.21945   1.21945
  Beta virt. eigenvalues --    1.31267   1.46418   1.46596   1.46596   2.12080

 Mulliken charges and spin densities:
               1          2
     1  H    0.097889  -0.887683
     2  H    0.000341   0.999224
     3  F   -0.098230   0.888459
 Sum of Mulliken charges =  -0.00000   1.00000

 Dipole moment (field-independent basis, Debye):
    X=             -1.2277    Y=              0.0000    Z=             -0.0000  Tot=              1.2277
 Quadrupole moment (field-independent basis, Debye-Ang):
   XX=             -9.4442   YY=             -7.5611   ZZ=             -7.5611
   XY=              0.0000   XZ=             -0.0000   YZ=             -0.0000

  Exact polarizability:      29.534       0.000       2.028      -0.000       0.000       2.028
 Approx polarizability:      38.404       0.000       1.921      -0.000      -0.000       1.921

 ******    2 imaginary frequencies (negative Signs) ******

                      1                      2                      3
                      A                      A                      A
 Frequencies --   -644.8074               -76.3950               256.8487
 Red. masses --      1.0568                 1.0547                 1.0244
 Frc consts  --      0.2589                 0.0036                 0.0398
 IR Inten    --     85.1406                 0.0467                 9.3519

                      4
                      A
 Frequencies --    256.8487
 Red. masses --      1.0244
 Frc consts  --      0.0398
 IR Inten    --      9.3519

 - Thermochemistry -
 -------------------
 Temperature   298.150 Kelvin.  Pressure   1.00000 Atm.
 Atom     1 has atomic number  1 and mass   1.00783

 Molecular mass:    21.01405 amu.
 Principal axes and moments of inertia in atomic units:
                           1         2         3
     Eigenvalues --     0.00000 153.35739 153.35739
           X            1.00000  -0.00000   0.00000
           Y            0.00000   1.00000   0.00000
           Z            0.00000   0.00000   1.00000
 This molecule is a prolate symmetric top.
 Rotational symmetry number  1.
 Rotational temperature (Kelvin)      0.56478
 Rotational constant (GHZ):          11.768205
    2 imaginary frequencies ignored.
 Zero-point vibrational energy       3072.6 (Joules/Mol)
                                    0.73437 (Kcal/Mol)
 Warning -- explicit consideration of   2 degrees of freedom as
           vibrations may cause significant error
 Vibrational temperatures:    369.55   369.55
          (Kelvin)

 Zero-point correction=                           0.001170 (Hartree/Particle)
 Thermal correction to Energy=                    0.004485
 Thermal correction to Enthalpy=                  0.005429
 Thermal correction to Gibbs Free Energy=        -0.020350
 Sum of electronic and zero-point Energies=           -100.767242
 Sum of electronic and thermal Energies=              -100.763927
 Sum of electronic and thermal Enthalpies=            -100.762983
 Sum of electronic and thermal Free Energies=         -100.788762

                     E (Thermal)             CV                S
                      KCal/Mol        Cal/Mol-Kelvin    Cal/Mol-Kelvin
 Total                    2.814              8.470             54.256
 Electronic               0.000              0.000              1.377
 Translational            0.889              2.981             35.068
 Rotational               0.592              1.987             14.445
 Vibrational              1.333              3.502              3.366
 Vibration     1          0.666              1.751              1.683
 Vibration     2          0.666              1.751              1.683

 Normal termination of Gaussian 16 at Fri Aug 22 17:40:06 2025.
