 Gaussian 16, Revision C.01,
 Gaussian 16:  ES64L-G16RevC.01  3-Jul-2019

 -----------------------------------------
 # sp b3lyp/6-311g** Force nosymm scf=(qc)
 -----------------------------------------

 -------------------
 Title Card Required
 -------------------
 Symbolic Z-matrix:
 Charge =  0 Multiplicity = 2

                          Input orientation:
 ---------------------------------------------------------------------
 Center     Atomic      Atomic             Coordinates (Angstroms)
 Number     Number       Type             X           Y           Z
 ---------------------------------------------------------------------
      1          1           0        0.000000    0.000000    0.000000
      2          1           0       -1.950000    0.000000    0.000000
      3          9           0        1.900000    0.000000    0.000000
 ---------------------------------------------------------------------

 SCF Done:  E(UB3LYP) =  -100.809060950     a.u. after   13 cycles

 Alpha  occ. eigenvalues --  -24.67302  -1.13634  -0.46441  -0.38955  -0.38955
 Alpha  occ. eigenvalues --   -0.36922
 Alpha virt. eigenvalues --   -0.13351   0.23599   0.30254   0.88792   0.95013
 Alpha virt. eigenvalues --    0.95013   1.04606   1.20912   1.20912   1.29071
 Alpha virt. eigenvalues --    1.33926   1.33926   1.65149   2.11373   2.31316

  Beta  occ. eigenvalues --  -24.65076  -1.07445  -0.37973  -0.36769  -0.36769
  Beta virt. eigenvalues --   -0.21073  -0.11245   0.25845   0.31358   0.91232
  Beta virt. eigenvalues --    0.95493   0.95493   1.08219   1.23749   1.23749
  Beta virt. eigenvalues --    1.35824   1.35824   1.39304   1.62963   2.12561

 Mulliken charges and spin densities:
               1          2
     1  H    0.165149  -0.574376
     2  H    0.049767   0.875225
     3  F   -0.214916   0.699151
 Sum of Mulliken charges =  -0.00000   1.00000

 Dipole moment (field-independent basis, Debye):
    X=             -2.4804    Y=             -0.0000    Z=              0.0000  Tot=              2.4804
 Quadrupole moment (field-independent basis, Debye-Ang):
   XX=             -8.7129   YY=             -7.5151   ZZ=             -7.5151
   XY=             -0.0000   XZ=              0.0000   YZ=              0.0000

  Exact polarizability:      47.568      -0.000       2.087       0.000       0.000       2.087
 Approx polarizability:      59.282      -0.000       1.995       0.000       0.000       1.995

 ******    2 imaginary frequencies (negative Signs) ******

                      1                      2                      3
                      A                      A                      A
 Frequencies --  -1721.4522              -599.1560               710.5234
 Red. masses --      1.0224                 1.0914                 1.0183
 Frc consts  --      1.7851                 0.2308                 0.3029
 IR Inten    --    141.7560                25.7649                16.7104

                      4
                      A
 Frequencies --    710.5234
 Red. masses --      1.0183
 Frc consts  --      0.3029
 IR Inten    --     16.7104

 - Thermochemistry -
 -------------------
 Temperature   298.150 Kelvin.  Pressure   1.00000 Atm.
 Atom     1 has atomic number  1 and mass   1.00783

 Molecular mass:    21.01405 amu.
 Principal axes and moments of inertia in atomic units:
                           1         2         3
     Eigenvalues --     0.00000  60.63191  60.63191
           X            1.00000  -0.00000   0.00000
           Y            0.00000   1.00000   0.00000
           Z            0.00000   0.00000   1.00000
 This molecule is a prolate symmetric top.
 Rotational symmetry number  1.
 Rotational temperature (Kelvin)      1.42852
 Rotational constant (GHZ):          29.765535
    2 imaginary frequencies ignored.
 Zero-point vibrational energy       8499.7 (Joules/Mol)
                                    2.03149 (Kcal/Mol)
 Vibrational temperatures:   1022.28  1022.28
          (Kelvin)

 Zero-point correction=                           0.003237 (Hartree/Particle)
 Thermal correction to Energy=                    0.005815
 Thermal correction to Enthalpy=                  0.006759
 Thermal correction to Gibbs Free Energy=        -0.016824
 Sum of electronic and zero-point Energies=           -100.805824
 Sum of electronic and thermal Energies=              -100.803246
 Sum of electronic and thermal Enthalpies=            -100.802302
 Sum of electronic and thermal Free Energies=         -100.825885

                     E (Thermal)             CV                S
                      KCal/Mol        Cal/Mol-Kelvin    Cal/Mol-Kelvin
 Total                    3.649              6.586             49.634
 Electronic               0.000              0.000              1.377
 Translational            0.889              2.981             35.068
 Rotational               0.592              1.987             12.601
 Vibrational              2.168              1.618              0.588

 Normal termination of Gaussian 16 at Fri Aug 22 16:49:59 2025.
