 Gaussian 16, Revision C.01,
 Gaussian 16:  ES64L-G16RevC.01  3-Jul-2019

 -----------------------------------------
 # sp b3lyp/6-311g** Force nosymm scf=(qc)
 -----------------------------------------

 -------------------
 Title Card Required
 -------------------
 Symbolic Z-matrix:
 Charge =  0 Multiplicity = 2

                          Input orientation:
 ---------------------------------------------------------------------
 Center     Atomic      Atomic             Coordinates (Angstroms)
 Number     Number       Type             X           Y           Z
 ---------------------------------------------------------------------
      1          1           0        0.000000    0.000000    0.000000
      2          1           0       -3.450000    0.000000    0.000000
      3          9           0        2.650000    0.000000    0.000000
 ---------------------------------------------------------------------

 SCF Done:  E(UB3LYP) =  -100.764810332     a.u. after   20 cycles

 Alpha  occ. eigenvalues --  -24.72562  -1.18728  -0.51673  -0.43399  -0.43399
 Alpha  occ. eigenvalues --   -0.32795
 Alpha virt. eigenvalues --   -0.09574   0.23726   0.35570   0.89962   0.93165
 Alpha virt. eigenvalues --    0.93165   1.05838   1.24715   1.24715   1.24921
 Alpha virt. eigenvalues --    1.41873   1.41873   1.43747   2.14660   2.37671

  Beta  occ. eigenvalues --  -24.69649  -1.10415  -0.40491  -0.40491  -0.34785
  Beta virt. eigenvalues --   -0.23866  -0.06778   0.24044   0.37803   0.94578
  Beta virt. eigenvalues --    0.94578   0.97504   1.08743   1.22565   1.22565
  Beta virt. eigenvalues --    1.26319   1.45637   1.45909   1.45909   2.13741

 Mulliken charges and spin densities:
               1          2
     1  H    0.069702  -0.919125
     2  H    0.000839   0.997666
     3  F   -0.070541   0.921459
 Sum of Mulliken charges =  -0.00000   1.00000

 Dipole moment (field-independent basis, Debye):
    X=             -0.9692    Y=              0.0000    Z=             -0.0000  Tot=              0.9692
 Quadrupole moment (field-independent basis, Debye-Ang):
   XX=             -9.0063   YY=             -7.5873   ZZ=             -7.5873
   XY=              0.0000   XZ=             -0.0000   YZ=              0.0000

  Exact polarizability:      32.065       0.000       2.023      -0.000       0.000       2.023
 Approx polarizability:      38.134       0.000       1.921      -0.000      -0.000       1.921

 ******    2 imaginary frequencies (negative Signs) ******

                      1                      2                      3
                      A                      A                      A
 Frequencies --   -533.7687              -127.5910               201.3024
 Red. masses --      1.0518                 1.0597                 1.0214
 Frc consts  --      0.1766                 0.0102                 0.0244
 IR Inten    --     66.9835                 0.4613                 4.6098

                      4
                      A
 Frequencies --    201.3024
 Red. masses --      1.0214
 Frc consts  --      0.0244
 IR Inten    --      4.6098

 - Thermochemistry -
 -------------------
 Temperature   298.150 Kelvin.  Pressure   1.00000 Atm.
 Atom     1 has atomic number  1 and mass   1.00783

 Molecular mass:    21.01405 amu.
 Principal axes and moments of inertia in atomic units:
                           1         2         3
     Eigenvalues --     0.00000 145.97793 145.97793
           X            1.00000  -0.00000   0.00000
           Y            0.00000   1.00000   0.00000
           Z            0.00000   0.00000   1.00000
 This molecule is a prolate symmetric top.
 Rotational symmetry number  1.
 Rotational temperature (Kelvin)      0.59334
 Rotational constant (GHZ):          12.363110
    2 imaginary frequencies ignored.
 Zero-point vibrational energy       2408.1 (Joules/Mol)
                                    0.57555 (Kcal/Mol)
 Warning -- explicit consideration of   2 degrees of freedom as
           vibrations may cause significant error
 Vibrational temperatures:    289.63   289.63
          (Kelvin)

 Zero-point correction=                           0.000917 (Hartree/Particle)
 Thermal correction to Energy=                    0.004395
 Thermal correction to Enthalpy=                  0.005339
 Thermal correction to Gibbs Free Energy=        -0.020809
 Sum of electronic and zero-point Energies=           -100.763893
 Sum of electronic and thermal Energies=              -100.760415
 Sum of electronic and thermal Enthalpies=            -100.759471
 Sum of electronic and thermal Free Energies=         -100.785620

                     E (Thermal)             CV                S
                      KCal/Mol        Cal/Mol-Kelvin    Cal/Mol-Kelvin
 Total                    2.758              8.644             55.035
 Electronic               0.000              0.000              1.377
 Translational            0.889              2.981             35.068
 Rotational               0.592              1.987             14.347
 Vibrational              1.277              3.676              4.242
 Vibration     1          0.638              1.838              2.121
 Vibration     2          0.638              1.838              2.121

 Normal termination of Gaussian 16 at Fri Aug 22 18:15:48 2025.
