 Gaussian 16, Revision C.01,
 Gaussian 16:  ES64L-G16RevC.01  3-Jul-2019

 -----------------------------------------
 # sp b3lyp/6-311g** Force nosymm scf=(qc)
 -----------------------------------------

 -------------------
 Title Card Required
 -------------------
 Symbolic Z-matrix:
 Charge =  0 Multiplicity = 2

                          Input orientation:
 ---------------------------------------------------------------------
 Center     Atomic      Atomic             Coordinates (Angstroms)
 Number     Number       Type             X           Y           Z
 ---------------------------------------------------------------------
      1          1           0        0.000000    0.000000    0.000000
      2          1           0       -0.800000    0.000000    0.000000
      3          9           0        2.450000    0.000000    0.000000
 ---------------------------------------------------------------------

 SCF Done:  E(UB3LYP) =  -100.932076761     a.u. after    5 cycles

 Alpha  occ. eigenvalues --  -24.75925  -1.21844  -0.55172  -0.46228  -0.46228
 Alpha  occ. eigenvalues --   -0.42962
 Alpha virt. eigenvalues --    0.05055   0.20247   0.45538   0.89736   0.91003
 Alpha virt. eigenvalues --    0.91003   1.07485   1.07485   1.12021   1.51853
 Alpha virt. eigenvalues --    1.78142   1.78142   2.04848   2.38822   3.04356

  Beta  occ. eigenvalues --  -24.72809  -1.12898  -0.43107  -0.43107  -0.42936
  Beta virt. eigenvalues --   -0.26151   0.05549   0.20563   0.45818   0.92473
  Beta virt. eigenvalues --    0.92473   0.98134   1.07663   1.07663   1.16340
  Beta virt. eigenvalues --    1.52127   1.78250   1.78250   2.05000   2.39024

 Mulliken charges and spin densities:
               1          2
     1  H   -0.013256  -0.010381
     2  H    0.019017   0.025566
     3  F   -0.005760   0.984815
 Sum of Mulliken charges =   0.00000   1.00000

 Dipole moment (field-independent basis, Debye):
    X=             -0.1488    Y=             -0.0000    Z=             -0.0000  Tot=              0.1488
 Quadrupole moment (field-independent basis, Debye-Ang):
   XX=             -5.6460   YY=             -7.0113   ZZ=             -7.0113
   XY=             -0.0000   XZ=             -0.0000   YZ=              0.0000

  Exact polarizability:      14.430       0.000       2.015      -0.000      -0.000       2.015
 Approx polarizability:      15.697      -0.000       2.089      -0.000      -0.000       2.089

 ******    1 imaginary frequencies (negative Signs) ******

                      1                      2                      3
                      A                      A                      A
 Frequencies --   -134.2852              1045.0680              1045.0680
 Red. masses --      1.1085                 1.0098                 1.0098
 Frc consts  --      0.0118                 0.6498                 0.6498
 IR Inten    --      4.6121                 0.3419                 0.3419

                      4
                      A
 Frequencies --   3668.1707
 Red. masses --      1.0078
 Frc consts  --      7.9898
 IR Inten    --     48.4889

 - Thermochemistry -
 -------------------
 Temperature   298.150 Kelvin.  Pressure   1.00000 Atm.
 Atom     1 has atomic number  1 and mass   1.00783

 Molecular mass:    21.01405 amu.
 Principal axes and moments of inertia in atomic units:
                           1         2         3
     Eigenvalues --     0.00000  54.00958  54.00958
           X            1.00000  -0.00000   0.00000
           Y            0.00000   1.00000   0.00000
           Z            0.00000   0.00000   1.00000
 This molecule is a prolate symmetric top.
 Rotational symmetry number  1.
 Rotational temperature (Kelvin)      1.60368
 Rotational constant (GHZ):          33.415207
    1 imaginary frequencies ignored.
 Zero-point vibrational energy      34442.3 (Joules/Mol)
                                    8.23191 (Kcal/Mol)
 Vibrational temperatures:   1503.62  1503.62  5277.68
          (Kelvin)

 Zero-point correction=                           0.013118 (Hartree/Particle)
 Thermal correction to Energy=                    0.015541
 Thermal correction to Enthalpy=                  0.016485
 Thermal correction to Gibbs Free Energy=        -0.006783
 Sum of electronic and zero-point Energies=           -100.918958
 Sum of electronic and thermal Energies=              -100.916536
 Sum of electronic and thermal Enthalpies=            -100.915592
 Sum of electronic and thermal Free Energies=         -100.938860

                     E (Thermal)             CV                S
                      KCal/Mol        Cal/Mol-Kelvin    Cal/Mol-Kelvin
 Total                    9.752              5.629             48.972
 Electronic               0.000              0.000              1.377
 Translational            0.889              2.981             35.068
 Rotational               0.592              1.987             12.371
 Vibrational              8.271              0.661              0.156

 Normal termination of Gaussian 16 at Fri Aug 22 17:36:09 2025.
