 Gaussian 16, Revision C.01,
 Gaussian 16:  ES64L-G16RevC.01  3-Jul-2019

 -----------------------------------------
 # sp b3lyp/6-311g** Force nosymm scf=(qc)
 -----------------------------------------

 -------------------
 Title Card Required
 -------------------
 Symbolic Z-matrix:
 Charge =  0 Multiplicity = 2

                          Input orientation:
 ---------------------------------------------------------------------
 Center     Atomic      Atomic             Coordinates (Angstroms)
 Number     Number       Type             X           Y           Z
 ---------------------------------------------------------------------
      1          1           0        0.000000    0.000000    0.000000
      2          1           0       -1.500000    0.000000    0.000000
      3          9           0        3.750000    0.000000    0.000000
 ---------------------------------------------------------------------

 SCF Done:  E(UB3LYP) =  -100.820114542     a.u. after  336 cycles

 Alpha  occ. eigenvalues --  -24.76284  -1.22178  -0.55380  -0.46561  -0.46535
 Alpha  occ. eigenvalues --   -0.33592
 Alpha virt. eigenvalues --   -0.09817   0.24946   0.30408   0.85996   0.90873
 Alpha virt. eigenvalues --    0.91504   1.00951   1.07563   1.20351   1.20353
 Alpha virt. eigenvalues --    1.41470   1.41473   1.81789   2.22213   2.46209

  Beta  occ. eigenvalues --  -24.73128  -1.13104  -0.43398  -0.43372  -0.33591
  Beta virt. eigenvalues --   -0.26028  -0.09822   0.24944   0.30431   0.92374
  Beta virt. eigenvalues --    0.92990   0.95462   1.05080   1.07573   1.20349
  Beta virt. eigenvalues --    1.20351   1.41469   1.41471   1.81800   2.22241

 Mulliken charges and spin densities:
               1          2
     1  H    0.000938  -0.124408
     2  H   -0.002342   0.124273
     3  F    0.001404   1.000135
 Sum of Mulliken charges =   0.00000   1.00000

 Dipole moment (field-independent basis, Debye):
    X=              0.0319    Y=             -0.0000    Z=             -0.0000  Tot=              0.0319
 Quadrupole moment (field-independent basis, Debye-Ang):
   XX=             -6.3023   YY=             -6.8944   ZZ=             -7.7589
   XY=             -0.0000   XZ=             -0.0000   YZ=              0.0040

  Exact polarizability:      22.581       0.000       2.510       0.000       0.002       2.040
 Approx polarizability:      43.030      -0.000       2.618      -0.000       0.003       2.035

 ******    2 imaginary frequencies (negative Signs) ******

                      1                      2                      3
                      A                      A                      A
 Frequencies --  -2189.5485               -59.1014              1217.7324
 Red. masses --      1.0078                 1.1085                 1.0106
 Frc consts  --      2.8467                 0.0023                 0.8829
 IR Inten    --      0.0165                 0.0797                 0.0059

                      4
                      A
 Frequencies --   1220.6189
 Red. masses --      1.0106
 Frc consts  --      0.8871
 IR Inten    --      0.0020

 - Thermochemistry -
 -------------------
 Temperature   298.150 Kelvin.  Pressure   1.00000 Atm.
 Atom     1 has atomic number  1 and mass   1.00783

 Molecular mass:    21.01405 amu.
 Principal axes and moments of inertia in atomic units:
                           1         2         3
     Eigenvalues --     0.00000 135.82757 135.82757
           X            1.00000  -0.00000   0.00000
           Y            0.00000   1.00000   0.00000
           Z            0.00000   0.00000   1.00000
 This molecule is a prolate symmetric top.
 Rotational symmetry number  1.
 Rotational temperature (Kelvin)      0.63768
 Rotational constant (GHZ):          13.287002
    2 imaginary frequencies ignored.
 Zero-point vibrational energy      14584.6 (Joules/Mol)
                                    3.48580 (Kcal/Mol)
 Vibrational temperatures:   1752.05  1756.20
          (Kelvin)

 Zero-point correction=                           0.005555 (Hartree/Particle)
 Thermal correction to Energy=                    0.007946
 Thermal correction to Enthalpy=                  0.008891
 Thermal correction to Gibbs Free Energy=        -0.015211
 Sum of electronic and zero-point Energies=           -100.814560
 Sum of electronic and thermal Energies=              -100.812168
 Sum of electronic and thermal Enthalpies=            -100.811224
 Sum of electronic and thermal Free Energies=         -100.835325

                     E (Thermal)             CV                S
                      KCal/Mol        Cal/Mol-Kelvin    Cal/Mol-Kelvin
 Total                    4.986              5.353             50.725
 Electronic               0.000              0.000              1.377
 Translational            0.889              2.981             35.068
 Rotational               0.592              1.987             14.204
 Vibrational              3.505              0.385              0.076

 Normal termination of Gaussian 16 at Sat Aug 23 00:19:11 2025.
