 Gaussian 16, Revision C.01,
 Gaussian 16:  ES64L-G16RevC.01  3-Jul-2019

 -----------------------------------------
 # sp b3lyp/6-311g** Force nosymm scf=(qc)
 -----------------------------------------

 -------------------
 Title Card Required
 -------------------
 Symbolic Z-matrix:
 Charge =  0 Multiplicity = 2

                          Input orientation:
 ---------------------------------------------------------------------
 Center     Atomic      Atomic             Coordinates (Angstroms)
 Number     Number       Type             X           Y           Z
 ---------------------------------------------------------------------
      1          1           0        0.000000    0.000000    0.000000
      2          1           0       -2.000000    0.000000    0.000000
      3          9           0        3.850000    0.000000    0.000000
 ---------------------------------------------------------------------

 SCF Done:  E(UB3LYP) =  -100.774278185     a.u. after  120 cycles

 Alpha  occ. eigenvalues --  -24.76142  -1.22045  -0.55251  -0.46419  -0.46408
 Alpha  occ. eigenvalues --   -0.32711
 Alpha virt. eigenvalues --   -0.10444   0.26142   0.32871   0.86110   0.90987
 Alpha virt. eigenvalues --    0.91405   1.00962   1.17551   1.25277   1.25277
 Alpha virt. eigenvalues --    1.38500   1.38503   1.51690   2.13556   2.36703

  Beta  occ. eigenvalues --  -24.72988  -1.12974  -0.43261  -0.43245  -0.32684
  Beta virt. eigenvalues --   -0.25903  -0.10508   0.26131   0.32888   0.92489
  Beta virt. eigenvalues --    0.92867   0.95578   1.05096   1.17530   1.25292
  Beta virt. eigenvalues --    1.25295   1.38459   1.38460   1.51684   2.13801

 Mulliken charges and spin densities:
               1          2
     1  H    0.000345  -0.854840
     2  H   -0.001164   0.854884
     3  F    0.000819   0.999956
 Sum of Mulliken charges =   0.00000   1.00000

 Dipole moment (field-independent basis, Debye):
    X=              0.0208    Y=              0.0000    Z=              0.0000  Tot=              0.0208
 Quadrupole moment (field-independent basis, Debye-Ang):
   XX=             -7.0020   YY=             -7.0146   ZZ=             -7.5826
   XY=              0.0000   XZ=              0.0000   YZ=              0.3260

  Exact polarizability:      21.392       0.000       2.397       0.000       0.175       2.091
 Approx polarizability:      24.490       0.000       2.424       0.000       0.220       2.041

 ******    2 imaginary frequencies (negative Signs) ******

                      1                      2                      3
                      A                      A                      A
 Frequencies --  -1349.9455               -42.4034               555.8105
 Red. masses --      1.0078                 1.1085                 1.0120
 Frc consts  --      1.0821                 0.0012                 0.1842
 IR Inten    --      0.0012                 0.0350                 0.0006

                      4
                      A
 Frequencies --    556.0448
 Red. masses --      1.0120
 Frc consts  --      0.1843
 IR Inten    --      0.0005

 - Thermochemistry -
 -------------------
 Temperature   298.150 Kelvin.  Pressure   1.00000 Atm.
 Atom     1 has atomic number  1 and mass   1.00783

 Molecular mass:    21.01405 amu.
 Principal axes and moments of inertia in atomic units:
                           1         2         3
     Eigenvalues --     0.00000 160.27279 160.27279
           X            1.00000  -0.00000   0.00000
           Y            0.00000   1.00000   0.00000
           Z            0.00000   0.00000   1.00000
 This molecule is a prolate symmetric top.
 Rotational symmetry number  1.
 Rotational temperature (Kelvin)      0.54042
 Rotational constant (GHZ):          11.260434
    2 imaginary frequencies ignored.
 Zero-point vibrational energy       6650.4 (Joules/Mol)
                                    1.58948 (Kcal/Mol)
 Warning -- explicit consideration of   2 degrees of freedom as
           vibrations may cause significant error
 Vibrational temperatures:    799.69   800.02
          (Kelvin)

 Zero-point correction=                           0.002533 (Hartree/Particle)
 Thermal correction to Energy=                    0.005265
 Thermal correction to Enthalpy=                  0.006209
 Thermal correction to Gibbs Free Energy=        -0.018517
 Sum of electronic and zero-point Energies=           -100.771745
 Sum of electronic and thermal Energies=              -100.769013
 Sum of electronic and thermal Enthalpies=            -100.768069
 Sum of electronic and thermal Free Energies=         -100.792796

                     E (Thermal)             CV                S
                      KCal/Mol        Cal/Mol-Kelvin    Cal/Mol-Kelvin
 Total                    3.304              7.221             52.042
 Electronic               0.000              0.000              1.377
 Translational            0.889              2.981             35.068
 Rotational               0.592              1.987             14.532
 Vibrational              1.823              2.253              1.064
 Vibration     1          0.911              1.127              0.532
 Vibration     2          0.912              1.126              0.532

 Normal termination of Gaussian 16 at Sat Aug 23 01:06:33 2025.
