 Gaussian 16, Revision C.01,
 Gaussian 16:  ES64L-G16RevC.01  3-Jul-2019

 -----------------------------------------
 # sp b3lyp/6-311g** Force nosymm scf=(qc)
 -----------------------------------------

 -------------------
 Title Card Required
 -------------------
 Symbolic Z-matrix:
 Charge =  0 Multiplicity = 2

                          Input orientation:
 ---------------------------------------------------------------------
 Center     Atomic      Atomic             Coordinates (Angstroms)
 Number     Number       Type             X           Y           Z
 ---------------------------------------------------------------------
      1          1           0        0.000000    0.000000    0.000000
      2          1           0       -2.550000    0.000000    0.000000
      3          9           0        2.350000    0.000000    0.000000
 ---------------------------------------------------------------------

 SCF Done:  E(UB3LYP) =  -100.774422199     a.u. after   14 cycles

 Alpha  occ. eigenvalues --  -24.70787  -1.17046  -0.49869  -0.41903  -0.41903
 Alpha  occ. eigenvalues --   -0.33988
 Alpha virt. eigenvalues --   -0.12379   0.24532   0.32896   0.89515   0.94106
 Alpha virt. eigenvalues --    0.94106   1.06668   1.23646   1.23646   1.26450
 Alpha virt. eigenvalues --    1.37402   1.37402   1.46081   2.14602   2.32180

  Beta  occ. eigenvalues --  -24.68039  -1.09252  -0.39170  -0.39170  -0.35936
  Beta virt. eigenvalues --   -0.22747  -0.09504   0.25589   0.34878   0.94959
  Beta virt. eigenvalues --    0.95377   0.95377   1.09082   1.21943   1.21943
  Beta virt. eigenvalues --    1.35252   1.41852   1.41852   1.43424   2.13713

 Mulliken charges and spin densities:
               1          2
     1  H    0.101991  -0.841517
     2  H    0.011498   0.974335
     3  F   -0.113489   0.867182
 Sum of Mulliken charges =  -0.00000   1.00000

 Dipole moment (field-independent basis, Debye):
    X=             -1.4884    Y=             -0.0000    Z=             -0.0000  Tot=              1.4884
 Quadrupole moment (field-independent basis, Debye-Ang):
   XX=             -9.0974   YY=             -7.5870   ZZ=             -7.5870
   XY=             -0.0000   XZ=             -0.0000   YZ=              0.0000

  Exact polarizability:      40.928      -0.000       2.023      -0.000       0.000       2.023
 Approx polarizability:      46.439      -0.000       1.921      -0.000       0.000       1.921

 ******    2 imaginary frequencies (negative Signs) ******

                      1                      2                      3
                      A                      A                      A
 Frequencies --   -863.5059              -350.5054               350.1866
 Red. masses --      1.0297                 1.0832                 1.0190
 Frc consts  --      0.4524                 0.0784                 0.0736
 IR Inten    --     69.6656                19.0152                 8.7026

                      4
                      A
 Frequencies --    350.1866
 Red. masses --      1.0190
 Frc consts  --      0.0736
 IR Inten    --      8.7026

 - Thermochemistry -
 -------------------
 Temperature   298.150 Kelvin.  Pressure   1.00000 Atm.
 Atom     1 has atomic number  1 and mass   1.00783

 Molecular mass:    21.01405 amu.
 Principal axes and moments of inertia in atomic units:
                           1         2         3
     Eigenvalues --     0.00000  97.21507  97.21507
           X            1.00000  -0.00000   0.00000
           Y            0.00000   1.00000   0.00000
           Z            0.00000   0.00000   1.00000
 This molecule is a prolate symmetric top.
 Rotational symmetry number  1.
 Rotational temperature (Kelvin)      0.89095
 Rotational constant (GHZ):          18.564418
    2 imaginary frequencies ignored.
 Zero-point vibrational energy       4189.2 (Joules/Mol)
                                    1.00123 (Kcal/Mol)
 Warning -- explicit consideration of   2 degrees of freedom as
           vibrations may cause significant error
 Vibrational temperatures:    503.84   503.84
          (Kelvin)

 Zero-point correction=                           0.001596 (Hartree/Particle)
 Thermal correction to Energy=                    0.004678
 Thermal correction to Enthalpy=                  0.005622
 Thermal correction to Gibbs Free Energy=        -0.019234
 Sum of electronic and zero-point Energies=           -100.772827
 Sum of electronic and thermal Energies=              -100.769744
 Sum of electronic and thermal Enthalpies=            -100.768800
 Sum of electronic and thermal Free Energies=         -100.793656

                     E (Thermal)             CV                S
                      KCal/Mol        Cal/Mol-Kelvin    Cal/Mol-Kelvin
 Total                    2.936              8.118             52.315
 Electronic               0.000              0.000              1.377
 Translational            0.889              2.981             35.068
 Rotational               0.592              1.987             13.539
 Vibrational              1.454              3.150              2.331
 Vibration     1          0.727              1.575              1.165
 Vibration     2          0.727              1.575              1.165

 Normal termination of Gaussian 16 at Fri Aug 22 17:26:51 2025.
