 Gaussian 16, Revision C.01,
 Gaussian 16:  ES64L-G16RevC.01  3-Jul-2019

 -----------------------------------------
 # sp b3lyp/6-311g** Force nosymm scf=(qc)
 -----------------------------------------

 -------------------
 Title Card Required
 -------------------
 Symbolic Z-matrix:
 Charge =  0 Multiplicity = 2

                          Input orientation:
 ---------------------------------------------------------------------
 Center     Atomic      Atomic             Coordinates (Angstroms)
 Number     Number       Type             X           Y           Z
 ---------------------------------------------------------------------
      1          1           0        0.000000    0.000000    0.000000
      2          1           0       -1.800000    0.000000    0.000000
      3          9           0        2.350000    0.000000    0.000000
 ---------------------------------------------------------------------

 SCF Done:  E(UB3LYP) =  -100.796064455     a.u. after   18 cycles

 Alpha  occ. eigenvalues --  -24.71219  -1.17456  -0.50351  -0.42263  -0.42263
 Alpha  occ. eigenvalues --   -0.35762
 Alpha virt. eigenvalues --   -0.12732   0.24198   0.31407   0.88187   0.93853
 Alpha virt. eigenvalues --    0.93853   1.03776   1.19412   1.21769   1.21769
 Alpha virt. eigenvalues --    1.34694   1.34694   1.59405   2.12433   2.37464

  Beta  occ. eigenvalues --  -24.68438  -1.09556  -0.39494  -0.39494  -0.35680
  Beta virt. eigenvalues --   -0.23432  -0.11815   0.26413   0.30830   0.93444
  Beta virt. eigenvalues --    0.95155   0.95155   1.07095   1.22350   1.22350
  Beta virt. eigenvalues --    1.23609   1.35775   1.35775   1.59871   2.13233

 Mulliken charges and spin densities:
               1          2
     1  H    0.060258  -0.641315
     2  H    0.041997   0.763381
     3  F   -0.102255   0.877935
 Sum of Mulliken charges =  -0.00000   1.00000

 Dipole moment (field-independent basis, Debye):
    X=             -1.5794    Y=             -0.0000    Z=             -0.0000  Tot=              1.5794
 Quadrupole moment (field-independent basis, Debye-Ang):
   XX=             -7.9686   YY=             -7.6513   ZZ=             -7.6513
   XY=             -0.0000   XZ=             -0.0000   YZ=             -0.0000

  Exact polarizability:      60.562      -0.000       2.024      -0.000      -0.000       2.024
 Approx polarizability:      74.105       0.000       1.957       0.000       0.000       1.957

 ******    2 imaginary frequencies (negative Signs) ******

                      1                      2                      3
                      A                      A                      A
 Frequencies --  -1762.6647              -435.4878               755.6857
 Red. masses --      1.0092                 1.1069                 1.0150
 Frc consts  --      1.8474                 0.1237                 0.3415
 IR Inten    --    188.5306                51.2649                 1.4303

                      4
                      A
 Frequencies --    755.6857
 Red. masses --      1.0150
 Frc consts  --      0.3415
 IR Inten    --      1.4303

 - Thermochemistry -
 -------------------
 Temperature   298.150 Kelvin.  Pressure   1.00000 Atm.
 Atom     1 has atomic number  1 and mass   1.00783

 Molecular mass:    21.01405 amu.
 Principal axes and moments of inertia in atomic units:
                           1         2         3
     Eigenvalues --     0.00000  74.56681  74.56681
           X            1.00000  -0.00000   0.00000
           Y            0.00000   1.00000   0.00000
           Z            0.00000   0.00000   1.00000
 This molecule is a prolate symmetric top.
 Rotational symmetry number  1.
 Rotational temperature (Kelvin)      1.16156
 Rotational constant (GHZ):          24.203010
    2 imaginary frequencies ignored.
 Zero-point vibrational energy       9040.0 (Joules/Mol)
                                    2.16061 (Kcal/Mol)
 Vibrational temperatures:   1087.26  1087.26
          (Kelvin)

 Zero-point correction=                           0.003443 (Hartree/Particle)
 Thermal correction to Energy=                    0.005988
 Thermal correction to Enthalpy=                  0.006932
 Thermal correction to Gibbs Free Energy=        -0.016801
 Sum of electronic and zero-point Energies=           -100.792621
 Sum of electronic and thermal Energies=              -100.790076
 Sum of electronic and thermal Enthalpies=            -100.789132
 Sum of electronic and thermal Free Energies=         -100.812865

                     E (Thermal)             CV                S
                      KCal/Mol        Cal/Mol-Kelvin    Cal/Mol-Kelvin
 Total                    3.758              6.421             49.950
 Electronic               0.000              0.000              1.377
 Translational            0.889              2.981             35.068
 Rotational               0.592              1.987             13.012
 Vibrational              2.276              1.453              0.493

 Normal termination of Gaussian 16 at Fri Aug 22 17:26:08 2025.
