 Gaussian 16, Revision C.01,
 Gaussian 16:  ES64L-G16RevC.01  3-Jul-2019

 -----------------------------------------
 # sp b3lyp/6-311g** Force nosymm scf=(qc)
 -----------------------------------------

 -------------------
 Title Card Required
 -------------------
 Symbolic Z-matrix:
 Charge =  0 Multiplicity = 2

                          Input orientation:
 ---------------------------------------------------------------------
 Center     Atomic      Atomic             Coordinates (Angstroms)
 Number     Number       Type             X           Y           Z
 ---------------------------------------------------------------------
      1          1           0        0.000000    0.000000    0.000000
      2          1           0       -3.200000    0.000000    0.000000
      3          9           0        2.200000    0.000000    0.000000
 ---------------------------------------------------------------------

 SCF Done:  E(UB3LYP) =  -100.775955023     a.u. after   18 cycles

 Alpha  occ. eigenvalues --  -24.66985  -1.08545  -0.38327  -0.38327  -0.36868
 Alpha  occ. eigenvalues --   -0.33208
 Alpha virt. eigenvalues --   -0.21861   0.20983   0.27952   0.91689   0.95681
 Alpha virt. eigenvalues --    0.95681   1.08381   1.21516   1.21516   1.24142
 Alpha virt. eigenvalues --    1.24142   1.24412   1.42165   2.12133   2.14810

  Beta  occ. eigenvalues --  -24.69598  -1.15917  -0.48651  -0.40918  -0.40918
  Beta virt. eigenvalues --   -0.12755  -0.04714   0.31596   0.39877   0.88722
  Beta virt. eigenvalues --    0.94605   0.94605   1.06331   1.37570   1.37570
  Beta virt. eigenvalues --    1.47616   1.47616   1.47766   1.52147   2.32931

 Mulliken charges and spin densities:
               1          2
     1  H    0.144699   0.825535
     2  H    0.002569   0.997489
     3  F   -0.147268  -0.823023
 Sum of Mulliken charges =   0.00000   1.00000

 Dipole moment (field-independent basis, Debye):
    X=             -1.6627    Y=             -0.0000    Z=             -0.0000  Tot=              1.6627
 Quadrupole moment (field-independent basis, Debye-Ang):
   XX=             -9.8512   YY=             -7.5147   ZZ=             -7.5147
   XY=             -0.0000   XZ=             -0.0000   YZ=              0.0000

  Exact polarizability:      31.012      -0.000       2.040      -0.000      -0.000       2.040
 Approx polarizability:      42.430      -0.000       1.930      -0.000       0.000       1.930

 ******    1 imaginary frequencies (negative Signs) ******

                      1                      2                      3
                      A                      A                      A
 Frequencies --   -847.2364               108.7575               352.8164
 Red. masses --      1.0607                 1.0509                 1.0231
 Frc consts  --      0.4486                 0.0073                 0.0750
 IR Inten    --     88.9935                 0.8169                19.3908

                      4
                      A
 Frequencies --    352.8164
 Red. masses --      1.0231
 Frc consts  --      0.0750
 IR Inten    --     19.3908

 - Thermochemistry -
 -------------------
 Temperature   298.150 Kelvin.  Pressure   1.00000 Atm.
 Atom     1 has atomic number  1 and mass   1.00783

 Molecular mass:    21.01405 amu.
 Principal axes and moments of inertia in atomic units:
                           1         2         3
     Eigenvalues --     0.00000 112.39651 112.39651
           X            1.00000  -0.00000   0.00000
           Y            0.00000   1.00000   0.00000
           Z            0.00000   0.00000   1.00000
 This molecule is a prolate symmetric top.
 Rotational symmetry number  1.
 Rotational temperature (Kelvin)      0.77061
 Rotational constant (GHZ):          16.056914
    1 imaginary frequencies ignored.
 Zero-point vibrational energy       4871.1 (Joules/Mol)
                                    1.16423 (Kcal/Mol)
 Warning -- explicit consideration of   3 degrees of freedom as
           vibrations may cause significant error
 Vibrational temperatures:    156.48   507.62   507.62
          (Kelvin)

 Zero-point correction=                           0.001855 (Hartree/Particle)
 Thermal correction to Energy=                    0.005650
 Thermal correction to Enthalpy=                  0.006594
 Thermal correction to Gibbs Free Energy=        -0.019952
 Sum of electronic and zero-point Energies=           -100.774100
 Sum of electronic and thermal Energies=              -100.770305
 Sum of electronic and thermal Enthalpies=            -100.769361
 Sum of electronic and thermal Free Energies=         -100.795907

                     E (Thermal)             CV                S
                      KCal/Mol        Cal/Mol-Kelvin    Cal/Mol-Kelvin
 Total                    3.546             10.049             55.871
 Electronic               0.000              0.000              1.377
 Translational            0.889              2.981             35.068
 Rotational               0.592              1.987             13.827
 Vibrational              2.064              5.081              5.598
 Vibration     1          0.606              1.942              3.291
 Vibration     2          0.729              1.569              1.154
 Vibration     3          0.729              1.569              1.154

 Normal termination of Gaussian 16 at Fri Aug 22 17:12:48 2025.
