 Gaussian 16, Revision C.01,
 Gaussian 16:  ES64L-G16RevC.01  3-Jul-2019

 -----------------------------------------
 # sp b3lyp/6-311g** Force nosymm scf=(qc)
 -----------------------------------------

 -------------------
 Title Card Required
 -------------------
 Symbolic Z-matrix:
 Charge =  0 Multiplicity = 2

                          Input orientation:
 ---------------------------------------------------------------------
 Center     Atomic      Atomic             Coordinates (Angstroms)
 Number     Number       Type             X           Y           Z
 ---------------------------------------------------------------------
      1          1           0        0.000000    0.000000    0.000000
      2          1           0       -2.700000    0.000000    0.000000
      3          9           0        3.750000    0.000000    0.000000
 ---------------------------------------------------------------------

 SCF Done:  E(UB3LYP) =  -100.760983900     a.u. after   33 cycles

 Alpha  occ. eigenvalues --  -24.75738  -1.21675  -0.54862  -0.46064  -0.46064
 Alpha  occ. eigenvalues --   -0.32478
 Alpha virt. eigenvalues --   -0.08652   0.25506   0.35303   0.86948   0.91258
 Alpha virt. eigenvalues --    0.91258   1.01309   1.25109   1.25109   1.26452
 Alpha virt. eigenvalues --    1.42843   1.42843   1.43467   2.16048   2.38142

  Beta  occ. eigenvalues --  -24.72603  -1.12661  -0.42921  -0.42921  -0.32705
  Beta virt. eigenvalues --   -0.25670  -0.08334   0.25315   0.35759   0.92754
  Beta virt. eigenvalues --    0.92754   0.96244   1.05405   1.24852   1.24852
  Beta virt. eigenvalues --    1.26160   1.43323   1.43323   1.43946   2.16236

 Mulliken charges and spin densities:
               1          2
     1  H    0.004324  -0.977057
     2  H    0.000856   0.982873
     3  F   -0.005179   0.994183
 Sum of Mulliken charges =  -0.00000   1.00000

 Dipole moment (field-independent basis, Debye):
    X=             -0.1110    Y=              0.0000    Z=              0.0000  Tot=              0.1110
 Quadrupole moment (field-independent basis, Debye-Ang):
   XX=             -6.9290   YY=             -7.6514   ZZ=             -7.6514
   XY=              0.0000   XZ=              0.0000   YZ=              0.0000

  Exact polarizability:      22.208       0.000       2.022      -0.000      -0.000       2.022
 Approx polarizability:      16.385       0.000       1.932       0.000      -0.000       1.932

 ******    2 imaginary frequencies (negative Signs) ******

                      1                      2                      3
                      A                      A                      A
 Frequencies --   -502.7843              -101.7678               181.9512
 Red. masses --      1.0080                 1.1083                 1.0145
 Frc consts  --      0.1501                 0.0068                 0.0198
 IR Inten    --      2.0982                 2.0896                 0.0151

                      4
                      A
 Frequencies --    181.9512
 Red. masses --      1.0145
 Frc consts  --      0.0198
 IR Inten    --      0.0151

 - Thermochemistry -
 -------------------
 Temperature   298.150 Kelvin.  Pressure   1.00000 Atm.
 Atom     1 has atomic number  1 and mass   1.00783

 Molecular mass:    21.01405 amu.
 Principal axes and moments of inertia in atomic units:
                           1         2         3
     Eigenvalues --     0.00000 182.38079 182.38079
           X            1.00000  -0.00000   0.00000
           Y            0.00000   1.00000   0.00000
           Z            0.00000   0.00000   1.00000
 This molecule is a prolate symmetric top.
 Rotational symmetry number  1.
 Rotational temperature (Kelvin)      0.47491
 Rotational constant (GHZ):           9.895457
    2 imaginary frequencies ignored.
 Zero-point vibrational energy       2176.6 (Joules/Mol)
                                    0.52022 (Kcal/Mol)
 Warning -- explicit consideration of   2 degrees of freedom as
           vibrations may cause significant error
 Vibrational temperatures:    261.79   261.79
          (Kelvin)

 Zero-point correction=                           0.000829 (Hartree/Particle)
 Thermal correction to Energy=                    0.004369
 Thermal correction to Enthalpy=                  0.005313
 Thermal correction to Gibbs Free Energy=        -0.021224
 Sum of electronic and zero-point Energies=           -100.760155
 Sum of electronic and thermal Energies=              -100.756615
 Sum of electronic and thermal Enthalpies=            -100.755671
 Sum of electronic and thermal Free Energies=         -100.782208

                     E (Thermal)             CV                S
                      KCal/Mol        Cal/Mol-Kelvin    Cal/Mol-Kelvin
 Total                    2.741              8.697             55.851
 Electronic               0.000              0.000              1.377
 Translational            0.889              2.981             35.068
 Rotational               0.592              1.987             14.789
 Vibrational              1.260              3.729              4.617
 Vibration     1          0.630              1.864              2.308
 Vibration     2          0.630              1.864              2.308

 Normal termination of Gaussian 16 at Sat Aug 23 00:26:27 2025.
