 Gaussian 16, Revision C.01,
 Gaussian 16:  ES64L-G16RevC.01  3-Jul-2019

 -----------------------------------------
 # sp b3lyp/6-311g** Force nosymm scf=(qc)
 -----------------------------------------

 -------------------
 Title Card Required
 -------------------
 Symbolic Z-matrix:
 Charge =  0 Multiplicity = 2

                          Input orientation:
 ---------------------------------------------------------------------
 Center     Atomic      Atomic             Coordinates (Angstroms)
 Number     Number       Type             X           Y           Z
 ---------------------------------------------------------------------
      1          1           0        0.000000    0.000000    0.000000
      2          1           0       -3.650000    0.000000    0.000000
      3          9           0        2.350000    0.000000    0.000000
 ---------------------------------------------------------------------

 SCF Done:  E(UB3LYP) =  -100.771204612     a.u. after   15 cycles

 Alpha  occ. eigenvalues --  -24.70804  -1.17070  -0.49890  -0.41929  -0.41929
 Alpha  occ. eigenvalues --   -0.32973
 Alpha virt. eigenvalues --   -0.11184   0.23173   0.34536   0.88981   0.94076
 Alpha virt. eigenvalues --    0.94076   1.06224   1.24534   1.24534   1.24610
 Alpha virt. eigenvalues --    1.39065   1.39065   1.47225   2.14179   2.34848

  Beta  occ. eigenvalues --  -24.68055  -1.09276  -0.39195  -0.39195  -0.36019
  Beta virt. eigenvalues --   -0.22706  -0.06563   0.23569   0.38026   0.93648
  Beta virt. eigenvalues --    0.95342   0.95342   1.08314   1.21698   1.21698
  Beta virt. eigenvalues --    1.34978   1.45970   1.46219   1.46219   2.11966

 Mulliken charges and spin densities:
               1          2
     1  H    0.114078  -0.865872
     2  H    0.000735   0.998537
     3  F   -0.114813   0.867334
 Sum of Mulliken charges =  -0.00000   1.00000

 Dipole moment (field-independent basis, Debye):
    X=             -1.3760    Y=              0.0000    Z=             -0.0000  Tot=              1.3760
 Quadrupole moment (field-independent basis, Debye-Ang):
   XX=             -9.5872   YY=             -7.5500   ZZ=             -7.5500
   XY=              0.0000   XZ=             -0.0000   YZ=              0.0000

  Exact polarizability:      29.192       0.000       2.031      -0.000      -0.000       2.031
 Approx polarizability:      38.764       0.000       1.922      -0.000      -0.000       1.922

 ******    2 imaginary frequencies (negative Signs) ******

                      1                      2                      3
                      A                      A                      A
 Frequencies --   -724.5574              -102.0313               293.8600
 Red. masses --      1.0562                 1.0554                 1.0241
 Frc consts  --      0.3267                 0.0065                 0.0521
 IR Inten    --     93.4004                 0.1338                12.5084

                      4
                      A
 Frequencies --    293.8600
 Red. masses --      1.0241
 Frc consts  --      0.0521
 IR Inten    --     12.5084

 - Thermochemistry -
 -------------------
 Temperature   298.150 Kelvin.  Pressure   1.00000 Atm.
 Atom     1 has atomic number  1 and mass   1.00783

 Molecular mass:    21.01405 amu.
 Principal axes and moments of inertia in atomic units:
                           1         2         3
     Eigenvalues --     0.00000 137.40525 137.40525
           X            1.00000  -0.00000   0.00000
           Y            0.00000   1.00000   0.00000
           Z            0.00000   0.00000   1.00000
 This molecule is a prolate symmetric top.
 Rotational symmetry number  1.
 Rotational temperature (Kelvin)      0.63035
 Rotational constant (GHZ):          13.134442
    2 imaginary frequencies ignored.
 Zero-point vibrational energy       3515.3 (Joules/Mol)
                                    0.84019 (Kcal/Mol)
 Warning -- explicit consideration of   2 degrees of freedom as
           vibrations may cause significant error
 Vibrational temperatures:    422.80   422.80
          (Kelvin)

 Zero-point correction=                           0.001339 (Hartree/Particle)
 Thermal correction to Energy=                    0.004555
 Thermal correction to Enthalpy=                  0.005499
 Thermal correction to Gibbs Free Energy=        -0.019956
 Sum of electronic and zero-point Energies=           -100.769866
 Sum of electronic and thermal Energies=              -100.766649
 Sum of electronic and thermal Enthalpies=            -100.765705
 Sum of electronic and thermal Free Energies=         -100.791161

                     E (Thermal)             CV                S
                      KCal/Mol        Cal/Mol-Kelvin    Cal/Mol-Kelvin
 Total                    2.858              8.338             53.575
 Electronic               0.000              0.000              1.377
 Translational            0.889              2.981             35.068
 Rotational               0.592              1.987             14.227
 Vibrational              1.377              3.370              2.903
 Vibration     1          0.689              1.685              1.452
 Vibration     2          0.689              1.685              1.452

 Normal termination of Gaussian 16 at Fri Aug 22 17:27:52 2025.
