 Gaussian 16, Revision C.01,
 Gaussian 16:  ES64L-G16RevC.01  3-Jul-2019

 -----------------------------------------
 # sp b3lyp/6-311g** Force nosymm scf=(qc)
 -----------------------------------------

 -------------------
 Title Card Required
 -------------------
 Symbolic Z-matrix:
 Charge =  0 Multiplicity = 2

                          Input orientation:
 ---------------------------------------------------------------------
 Center     Atomic      Atomic             Coordinates (Angstroms)
 Number     Number       Type             X           Y           Z
 ---------------------------------------------------------------------
      1          1           0        0.000000    0.000000    0.000000
      2          1           0       -3.000000    0.000000    0.000000
      3          9           0        1.100000    0.000000    0.000000
 ---------------------------------------------------------------------

 SCF Done:  E(UB3LYP) =  -100.948580333     a.u. after    6 cycles

 Alpha  occ. eigenvalues --  -24.64250  -1.13830  -0.49587  -0.38061  -0.38061
 Alpha  occ. eigenvalues --   -0.34320
 Alpha virt. eigenvalues --   -0.02225   0.24175   0.30861   0.93609   0.93609
 Alpha virt. eigenvalues --    0.99631   1.22925   1.23211   1.23211   1.30420
 Alpha virt. eigenvalues --    1.35262   1.35262   1.80049   2.14244   2.32193

  Beta  occ. eigenvalues --  -24.64241  -1.13807  -0.49555  -0.38053  -0.38053
  Beta virt. eigenvalues --   -0.08322  -0.00790   0.30189   0.38033   0.93610
  Beta virt. eigenvalues --    0.93610   0.99646   1.29443   1.35248   1.35248
  Beta virt. eigenvalues --    1.46699   1.46699   1.47699   1.80204   2.32167

 Mulliken charges and spin densities:
               1          2
     1  H    0.338491   0.000918
     2  H    0.003193   0.996091
     3  F   -0.341684   0.002991
 Sum of Mulliken charges =   0.00000   1.00000

 Dipole moment (field-independent basis, Debye):
    X=             -2.2029    Y=              0.0000    Z=              0.0000  Tot=              2.2029
 Quadrupole moment (field-independent basis, Debye-Ang):
   XX=             -8.4313   YY=             -7.0479   ZZ=             -7.0479
   XY=              0.0000   XZ=              0.0000   YZ=              0.0000

  Exact polarizability:       8.981       0.000       2.373      -0.000      -0.000       2.373
 Approx polarizability:      11.334      -0.000       2.338      -0.000      -0.000       2.338

 ******    1 imaginary frequencies (negative Signs) ******

                      1                      2                      3
                      A                      A                      A
 Frequencies --    -87.8350              1175.5888              1175.5888
 Red. masses --      1.0528                 1.0331                 1.0331
 Frc consts  --      0.0048                 0.8412                 0.8412
 IR Inten    --      0.4013               152.1168               152.1168

                      4
                      A
 Frequencies --   1933.8648
 Red. masses --      1.0587
 Frc consts  --      2.3328
 IR Inten    --     90.7645

 - Thermochemistry -
 -------------------
 Temperature   298.150 Kelvin.  Pressure   1.00000 Atm.
 Atom     1 has atomic number  1 and mass   1.00783

 Molecular mass:    21.01405 amu.
 Principal axes and moments of inertia in atomic units:
                           1         2         3
     Eigenvalues --     0.00000  60.18684  60.18684
           X            1.00000  -0.00000   0.00000
           Y            0.00000   1.00000   0.00000
           Z            0.00000   0.00000   1.00000
 This molecule is a prolate symmetric top.
 Rotational symmetry number  1.
 Rotational temperature (Kelvin)      1.43908
 Rotational constant (GHZ):          29.985643
    1 imaginary frequencies ignored.
 Zero-point vibrational energy      25630.2 (Joules/Mol)
                                    6.12578 (Kcal/Mol)
 Vibrational temperatures:   1691.41  1691.41  2782.40
          (Kelvin)

 Zero-point correction=                           0.009762 (Hartree/Particle)
 Thermal correction to Energy=                    0.012160
 Thermal correction to Enthalpy=                  0.013104
 Thermal correction to Gibbs Free Energy=        -0.010236
 Sum of electronic and zero-point Energies=           -100.938818
 Sum of electronic and thermal Energies=              -100.936420
 Sum of electronic and thermal Enthalpies=            -100.935476
 Sum of electronic and thermal Free Energies=         -100.958817

                     E (Thermal)             CV                S
                      KCal/Mol        Cal/Mol-Kelvin    Cal/Mol-Kelvin
 Total                    7.631              5.426             49.125
 Electronic               0.000              0.000              1.377
 Translational            0.889              2.981             35.068
 Rotational               0.592              1.987             12.586
 Vibrational              6.149              0.458              0.093

 Normal termination of Gaussian 16 at Fri Aug 22 16:06:00 2025.
