 Gaussian 16, Revision C.01,
 Gaussian 16:  ES64L-G16RevC.01  3-Jul-2019

 -----------------------------------------
 # sp b3lyp/6-311g** Force nosymm scf=(qc)
 -----------------------------------------

 -------------------
 Title Card Required
 -------------------
 Symbolic Z-matrix:
 Charge =  0 Multiplicity = 2

                          Input orientation:
 ---------------------------------------------------------------------
 Center     Atomic      Atomic             Coordinates (Angstroms)
 Number     Number       Type             X           Y           Z
 ---------------------------------------------------------------------
      1          1           0        0.000000    0.000000    0.000000
      2          1           0       -2.250000    0.000000    0.000000
      3          9           0        1.500000    0.000000    0.000000
 ---------------------------------------------------------------------

 SCF Done:  E(UB3LYP) =  -100.857664871     a.u. after   10 cycles

 Alpha  occ. eigenvalues --  -24.63965  -1.09768  -0.43667  -0.36423  -0.36154
 Alpha  occ. eigenvalues --   -0.36154
 Alpha virt. eigenvalues --   -0.12637   0.23479   0.26863   0.94028   0.94028
 Alpha virt. eigenvalues --    1.03200   1.08898   1.20981   1.20981   1.27597
 Alpha virt. eigenvalues --    1.32715   1.32715   1.74362   2.10801   2.22475

  Beta  occ. eigenvalues --  -24.63493  -1.08518  -0.42220  -0.35706  -0.35706
  Beta virt. eigenvalues --   -0.16925  -0.07809   0.25633   0.34197   0.93881
  Beta virt. eigenvalues --    0.93881   1.04435   1.10428   1.30679   1.30679
  Beta virt. eigenvalues --    1.40074   1.40074   1.43803   1.73870   2.16966

 Mulliken charges and spin densities:
               1          2
     1  H    0.322389  -0.109784
     2  H    0.030385   0.961536
     3  F   -0.352774   0.148249
 Sum of Mulliken charges =   0.00000   1.00000

 Dipole moment (field-independent basis, Debye):
    X=             -2.9281    Y=              0.0000    Z=              0.0000  Tot=              2.9281
 Quadrupole moment (field-independent basis, Debye-Ang):
   XX=             -9.1112   YY=             -7.3171   ZZ=             -7.3171
   XY=              0.0000   XZ=              0.0000   YZ=              0.0000

  Exact polarizability:      25.103       0.000       2.212       0.000       0.000       2.212
 Approx polarizability:      37.353       0.000       2.142       0.000      -0.000       2.142

 ******    2 imaginary frequencies (negative Signs) ******

                      1                      2                      3
                      A                      A                      A
 Frequencies --  -1606.3868              -320.7477               985.6231
 Red. masses --      1.0430                 1.0689                 1.0235
 Frc consts  --      1.5858                 0.0648                 0.5858
 IR Inten    --     72.7081                 2.4184                85.4844

                      4
                      A
 Frequencies --    985.6231
 Red. masses --      1.0235
 Frc consts  --      0.5858
 IR Inten    --     85.4844

 - Thermochemistry -
 -------------------
 Temperature   298.150 Kelvin.  Pressure   1.00000 Atm.
 Atom     1 has atomic number  1 and mass   1.00783

 Molecular mass:    21.01405 amu.
 Principal axes and moments of inertia in atomic units:
                           1         2         3
     Eigenvalues --     0.00000  53.95135  53.95135
           X            1.00000  -0.00000   0.00000
           Y            0.00000   1.00000   0.00000
           Z            0.00000   0.00000   1.00000
 This molecule is a prolate symmetric top.
 Rotational symmetry number  1.
 Rotational temperature (Kelvin)      1.60541
 Rotational constant (GHZ):          33.451271
    2 imaginary frequencies ignored.
 Zero-point vibrational energy      11790.7 (Joules/Mol)
                                    2.81804 (Kcal/Mol)
 Vibrational temperatures:   1418.09  1418.09
          (Kelvin)

 Zero-point correction=                           0.004491 (Hartree/Particle)
 Thermal correction to Energy=                    0.006929
 Thermal correction to Enthalpy=                  0.007873
 Thermal correction to Gibbs Free Energy=        -0.015414
 Sum of electronic and zero-point Energies=           -100.853174
 Sum of electronic and thermal Energies=              -100.850736
 Sum of electronic and thermal Enthalpies=            -100.849792
 Sum of electronic and thermal Free Energies=         -100.873079

                     E (Thermal)             CV                S
                      KCal/Mol        Cal/Mol-Kelvin    Cal/Mol-Kelvin
 Total                    4.348              5.754             49.012
 Electronic               0.000              0.000              1.377
 Translational            0.889              2.981             35.068
 Rotational               0.592              1.987             12.369
 Vibrational              2.867              0.786              0.198

 Normal termination of Gaussian 16 at Fri Aug 22 16:25:44 2025.
