 Gaussian 16, Revision C.01,
 Gaussian 16:  ES64L-G16RevC.01  3-Jul-2019

 -----------------------------------------
 # sp b3lyp/6-311g** Force nosymm scf=(qc)
 -----------------------------------------

 -------------------
 Title Card Required
 -------------------
 Symbolic Z-matrix:
 Charge =  0 Multiplicity = 2

                          Input orientation:
 ---------------------------------------------------------------------
 Center     Atomic      Atomic             Coordinates (Angstroms)
 Number     Number       Type             X           Y           Z
 ---------------------------------------------------------------------
      1          1           0        0.000000    0.000000    0.000000
      2          1           0       -2.100000    0.000000    0.000000
      3          9           0        1.900000    0.000000    0.000000
 ---------------------------------------------------------------------

 SCF Done:  E(UB3LYP) =  -100.804418357     a.u. after   12 cycles

 Alpha  occ. eigenvalues --  -24.67206  -1.13519  -0.46252  -0.38866  -0.38866
 Alpha  occ. eigenvalues --   -0.36390
 Alpha virt. eigenvalues --   -0.13764   0.23869   0.30189   0.90161   0.95074
 Alpha virt. eigenvalues --    0.95074   1.05432   1.21447   1.21447   1.28105
 Alpha virt. eigenvalues --    1.33953   1.33953   1.64219   2.11028   2.29175

  Beta  occ. eigenvalues --  -24.65006  -1.07405  -0.38073  -0.36707  -0.36707
  Beta virt. eigenvalues --   -0.20634  -0.11138   0.25620   0.32393   0.92307
  Beta virt. eigenvalues --    0.95501   0.95501   1.08573   1.23644   1.23644
  Beta virt. eigenvalues --    1.37239   1.37239   1.41290   1.60107   2.12222

 Mulliken charges and spin densities:
               1          2
     1  H    0.178641  -0.607695
     2  H    0.040452   0.916408
     3  F   -0.219094   0.691288
 Sum of Mulliken charges =   0.00000   1.00000

 Dipole moment (field-independent basis, Debye):
    X=             -2.4582    Y=             -0.0000    Z=             -0.0000  Tot=              2.4582
 Quadrupole moment (field-independent basis, Debye-Ang):
   XX=             -8.9465   YY=             -7.5122   ZZ=             -7.5122
   XY=             -0.0000   XZ=             -0.0000   YZ=              0.0000

  Exact polarizability:      44.489      -0.000       2.082      -0.000       0.000       2.082
 Approx polarizability:      53.987      -0.000       1.983      -0.000      -0.000       1.983

 ******    2 imaginary frequencies (negative Signs) ******

                      1                      2                      3
                      A                      A                      A
 Frequencies --  -1566.7575              -559.3077               650.9974
 Red. masses --      1.0294                 1.0836                 1.0192
 Frc consts  --      1.4888                 0.1997                 0.2545
 IR Inten    --    101.3532                25.9493                21.9980

                      4
                      A
 Frequencies --    650.9974
 Red. masses --      1.0192
 Frc consts  --      0.2545
 IR Inten    --     21.9980

 - Thermochemistry -
 -------------------
 Temperature   298.150 Kelvin.  Pressure   1.00000 Atm.
 Atom     1 has atomic number  1 and mass   1.00783

 Molecular mass:    21.01405 amu.
 Principal axes and moments of inertia in atomic units:
                           1         2         3
     Eigenvalues --     0.00000  64.56811  64.56811
           X            1.00000  -0.00000   0.00000
           Y            0.00000   1.00000   0.00000
           Z            0.00000   0.00000   1.00000
 This molecule is a prolate symmetric top.
 Rotational symmetry number  1.
 Rotational temperature (Kelvin)      1.34143
 Rotational constant (GHZ):          27.950968
    2 imaginary frequencies ignored.
 Zero-point vibrational energy       7787.7 (Joules/Mol)
                                    1.86130 (Kcal/Mol)
 Vibrational temperatures:    936.64   936.64
          (Kelvin)

 Zero-point correction=                           0.002966 (Hartree/Particle)
 Thermal correction to Energy=                    0.005595
 Thermal correction to Enthalpy=                  0.006539
 Thermal correction to Gibbs Free Energy=        -0.017175
 Sum of electronic and zero-point Energies=           -100.801452
 Sum of electronic and thermal Energies=              -100.798824
 Sum of electronic and thermal Enthalpies=            -100.797880
 Sum of electronic and thermal Free Energies=         -100.821594

                     E (Thermal)             CV                S
                      KCal/Mol        Cal/Mol-Kelvin    Cal/Mol-Kelvin
 Total                    3.511              6.820             49.911
 Electronic               0.000              0.000              1.377
 Translational            0.889              2.981             35.068
 Rotational               0.592              1.987             12.726
 Vibrational              2.029              1.852              0.740

 Normal termination of Gaussian 16 at Fri Aug 22 16:50:07 2025.
