 Gaussian 16, Revision C.01,
 Gaussian 16:  ES64L-G16RevC.01  3-Jul-2019

 -----------------------------------------
 # sp b3lyp/6-311g** Force nosymm scf=(qc)
 -----------------------------------------

 -------------------
 Title Card Required
 -------------------
 Symbolic Z-matrix:
 Charge =  0 Multiplicity = 2

                          Input orientation:
 ---------------------------------------------------------------------
 Center     Atomic      Atomic             Coordinates (Angstroms)
 Number     Number       Type             X           Y           Z
 ---------------------------------------------------------------------
      1          1           0        0.000000    0.000000    0.000000
      2          1           0       -1.850000    0.000000    0.000000
      3          9           0        2.050000    0.000000    0.000000
 ---------------------------------------------------------------------

 SCF Done:  E(UB3LYP) =  -100.804035251     a.u. after   13 cycles

 Alpha  occ. eigenvalues --  -24.68774  -1.15110  -0.47927  -0.40206  -0.40206
 Alpha  occ. eigenvalues --   -0.36722
 Alpha virt. eigenvalues --   -0.13073   0.23667   0.30959   0.86645   0.94751
 Alpha virt. eigenvalues --    0.94751   1.03910   1.20991   1.20991   1.26995
 Alpha virt. eigenvalues --    1.34053   1.34053   1.62260   2.12058   2.34459

  Beta  occ. eigenvalues --  -24.66284  -1.08119  -0.37745  -0.37745  -0.37051
  Beta virt. eigenvalues --   -0.22097  -0.11597   0.26170   0.30860   0.89841
  Beta virt. eigenvalues --    0.95650   0.95650   1.07772   1.22710   1.22710
  Beta virt. eigenvalues --    1.34108   1.35359   1.35359   1.61574   2.12893

 Mulliken charges and spin densities:
               1          2
     1  H    0.116845  -0.602778
     2  H    0.051169   0.819735
     3  F   -0.168015   0.783042
 Sum of Mulliken charges =  -0.00000   1.00000

 Dipole moment (field-independent basis, Debye):
    X=             -2.1716    Y=             -0.0000    Z=             -0.0000  Tot=              2.1716
 Quadrupole moment (field-independent basis, Debye-Ang):
   XX=             -8.4179   YY=             -7.5698   ZZ=             -7.5698
   XY=             -0.0000   XZ=             -0.0000   YZ=             -0.0000

  Exact polarizability:      53.526      -0.000       2.059      -0.000       0.000       2.059
 Approx polarizability:      67.418       0.000       1.977       0.000      -0.000       1.977

 ******    2 imaginary frequencies (negative Signs) ******

                      1                      2                      3
                      A                      A                      A
 Frequencies --  -1751.8305              -562.6677               732.3088
 Red. masses --      1.0138                 1.1014                 1.0167
 Frc consts  --      1.8331                 0.2054                 0.3213
 IR Inten    --    189.2039                38.0536                 7.0934

                      4
                      A
 Frequencies --    732.3088
 Red. masses --      1.0167
 Frc consts  --      0.3213
 IR Inten    --      7.0934

 - Thermochemistry -
 -------------------
 Temperature   298.150 Kelvin.  Pressure   1.00000 Atm.
 Atom     1 has atomic number  1 and mass   1.00783

 Molecular mass:    21.01405 amu.
 Principal axes and moments of inertia in atomic units:
                           1         2         3
     Eigenvalues --     0.00000  63.75504  63.75504
           X            1.00000  -0.00000   0.00000
           Y            0.00000   1.00000   0.00000
           Z            0.00000   0.00000   1.00000
 This molecule is a prolate symmetric top.
 Rotational symmetry number  1.
 Rotational temperature (Kelvin)      1.35854
 Rotational constant (GHZ):          28.307429
    2 imaginary frequencies ignored.
 Zero-point vibrational energy       8760.4 (Joules/Mol)
                                    2.09378 (Kcal/Mol)
 Vibrational temperatures:   1053.63  1053.63
          (Kelvin)

 Zero-point correction=                           0.003337 (Hartree/Particle)
 Thermal correction to Energy=                    0.005898
 Thermal correction to Enthalpy=                  0.006842
 Thermal correction to Gibbs Free Energy=        -0.016766
 Sum of electronic and zero-point Energies=           -100.800699
 Sum of electronic and thermal Energies=              -100.798137
 Sum of electronic and thermal Enthalpies=            -100.797193
 Sum of electronic and thermal Free Energies=         -100.820801

                     E (Thermal)             CV                S
                      KCal/Mol        Cal/Mol-Kelvin    Cal/Mol-Kelvin
 Total                    3.701              6.505             49.686
 Electronic               0.000              0.000              1.377
 Translational            0.889              2.981             35.068
 Rotational               0.592              1.987             12.701
 Vibrational              2.220              1.537              0.540

 Normal termination of Gaussian 16 at Fri Aug 22 16:59:59 2025.
