 Gaussian 16, Revision C.01,
 Gaussian 16:  ES64L-G16RevC.01  3-Jul-2019

 -----------------------------------------
 # sp b3lyp/6-311g** Force nosymm scf=(qc)
 -----------------------------------------

 -------------------
 Title Card Required
 -------------------
 Symbolic Z-matrix:
 Charge =  0 Multiplicity = 2

                          Input orientation:
 ---------------------------------------------------------------------
 Center     Atomic      Atomic             Coordinates (Angstroms)
 Number     Number       Type             X           Y           Z
 ---------------------------------------------------------------------
      1          1           0        0.000000    0.000000    0.000000
      2          1           0       -0.550000    0.000000    0.000000
      3          9           0        0.600000    0.000000    0.000000
 ---------------------------------------------------------------------

 SCF Done:  E(UB3LYP) =  -100.426503782     a.u. after    6 cycles

 Alpha  occ. eigenvalues --  -24.71221  -1.50365  -0.75826  -0.50975  -0.50975
 Alpha  occ. eigenvalues --   -0.24469
 Alpha virt. eigenvalues --    0.16570   0.19373   0.82683   0.82827   0.82827
 Alpha virt. eigenvalues --    0.94432   1.11834   1.11834   1.43570   1.54650
 Alpha virt. eigenvalues --    2.04605   2.04605   2.15830   3.68511   3.70081

  Beta  occ. eigenvalues --  -24.70296  -1.47242  -0.72734  -0.50196  -0.50196
  Beta virt. eigenvalues --   -0.06969   0.17221   0.25246   0.84163   0.84316
  Beta virt. eigenvalues --    0.84316   1.00003   1.17023   1.17023   1.45476
  Beta virt. eigenvalues --    1.58686   2.10112   2.10112   2.23729   3.70559

 Mulliken charges and spin densities:
               1          2
     1  H    0.269009  -0.123081
     2  H   -0.228093   1.040985
     3  F   -0.040916   0.082096
 Sum of Mulliken charges =   0.00000   1.00000

 Dipole moment (field-independent basis, Debye):
    X=              0.0343    Y=             -0.0000    Z=              0.0000  Tot=              0.0343
 Quadrupole moment (field-independent basis, Debye-Ang):
   XX=             -7.6770   YY=             -6.5010   ZZ=             -6.5010
   XY=             -0.0000   XZ=              0.0000   YZ=              0.0000

  Exact polarizability:       8.350      -0.000       2.408      -0.000       0.000       2.408
 Approx polarizability:       8.039      -0.000       2.525      -0.000       0.000       2.525

 ******    2 imaginary frequencies (negative Signs) ******

                      1                      2                      3
                      A                      A                      A
 Frequencies --  -7071.9811             -7071.9811              5861.1920
 Red. masses --      1.0169                 1.0169                 1.0732
 Frc consts  --     29.9654                29.9654                21.7223
 IR Inten    --    177.4795               177.4795               621.8673

                      4
                      A
 Frequencies --  14184.2713
 Red. masses --      1.0389
 Frc consts  --    123.1507
 IR Inten    --      6.5608

 - Thermochemistry -
 -------------------
 Temperature   298.150 Kelvin.  Pressure   1.00000 Atm.
 Atom     1 has atomic number  1 and mass   1.00783

 Molecular mass:    21.01405 amu.
 Principal axes and moments of inertia in atomic units:
                           1         2         3
     Eigenvalues --     0.00000   5.52672   5.52672
           X            1.00000  -0.00000   0.00000
           Y            0.00000   1.00000   0.00000
           Z            0.00000   0.00000   1.00000
 This molecule is a prolate symmetric top.
 Rotational symmetry number  1.
 Rotational temperature (Kelvin)     15.67184
 Rotational constant (GHZ):         326.548145
    2 imaginary frequencies ignored.
 Zero-point vibrational energy     119898.5 (Joules/Mol)
                                   28.65643 (Kcal/Mol)
 Vibrational temperatures:   8432.95 20408.00
          (Kelvin)

 Zero-point correction=                           0.045667 (Hartree/Particle)
 Thermal correction to Energy=                    0.048027
 Thermal correction to Enthalpy=                  0.048972
 Thermal correction to Gibbs Free Energy=         0.027930
 Sum of electronic and zero-point Energies=           -100.380837
 Sum of electronic and thermal Energies=              -100.378476
 Sum of electronic and thermal Enthalpies=            -100.377532
 Sum of electronic and thermal Free Energies=         -100.398574

                     E (Thermal)             CV                S
                      KCal/Mol        Cal/Mol-Kelvin    Cal/Mol-Kelvin
 Total                   30.138              4.968             44.286
 Electronic               0.000              0.000              1.377
 Translational            0.889              2.981             35.068
 Rotational               0.592              1.987              7.841
 Vibrational             28.656              0.000              0.000

 Normal termination of Gaussian 16 at Fri Aug 22 15:40:41 2025.
