 Gaussian 16, Revision C.01,
 Gaussian 16:  ES64L-G16RevC.01  3-Jul-2019

 -----------------------------------------
 # sp b3lyp/6-311g** Force nosymm scf=(qc)
 -----------------------------------------

 -------------------
 Title Card Required
 -------------------
 Symbolic Z-matrix:
 Charge =  0 Multiplicity = 2

                          Input orientation:
 ---------------------------------------------------------------------
 Center     Atomic      Atomic             Coordinates (Angstroms)
 Number     Number       Type             X           Y           Z
 ---------------------------------------------------------------------
      1          1           0        0.000000    0.000000    0.000000
      2          1           0       -2.600000    0.000000    0.000000
      3          9           0        0.750000    0.000000    0.000000
 ---------------------------------------------------------------------

 SCF Done:  E(UB3LYP) =  -100.922136764     a.u. after    6 cycles

 Alpha  occ. eigenvalues --  -24.63406  -1.25426  -0.57364  -0.41144  -0.41144
 Alpha  occ. eigenvalues --   -0.34409
 Alpha virt. eigenvalues --    0.06958   0.25498   0.49220   0.93970   0.93970
 Alpha virt. eigenvalues --    0.96433   1.19144   1.23138   1.23138   1.40019
 Alpha virt. eigenvalues --    1.41755   1.41755   2.00616   2.14296   2.67794

  Beta  occ. eigenvalues --  -24.63398  -1.25404  -0.57335  -0.41138  -0.41138
  Beta virt. eigenvalues --   -0.08139   0.08342   0.38066   0.49331   0.93969
  Beta virt. eigenvalues --    0.93969   0.96514   1.29366   1.41746   1.41746
  Beta virt. eigenvalues --    1.46550   1.46550   1.54187   2.00461   2.42829

 Mulliken charges and spin densities:
               1          2
     1  H    0.264087   0.002950
     2  H    0.004087   0.994073
     3  F   -0.268174   0.002977
 Sum of Mulliken charges =   0.00000   1.00000

 Dipole moment (field-independent basis, Debye):
    X=             -1.7113    Y=              0.0000    Z=              0.0000  Tot=              1.7113
 Quadrupole moment (field-independent basis, Debye-Ang):
   XX=             -7.2855   YY=             -6.7118   ZZ=             -6.7118
   XY=             -0.0000   XZ=              0.0000   YZ=             -0.0000

  Exact polarizability:       5.668       0.000       2.470      -0.000       0.000       2.470
 Approx polarizability:       5.915      -0.000       2.455       0.000      -0.000       2.455

 ******    2 imaginary frequencies (negative Signs) ******

                      1                      2                      3
                      A                      A                      A
 Frequencies --  -2683.9437             -2683.9437                68.4612
 Red. masses --      1.0368                 1.0368                 1.0532
 Frc consts  --      4.4005                 4.4005                 0.0029
 IR Inten    --    192.5448               192.5448                 0.2559

                      4
                      A
 Frequencies --   7585.3204
 Red. masses --      1.0583
 Frc consts  --     35.8770
 IR Inten    --    121.9644

 - Thermochemistry -
 -------------------
 Temperature   298.150 Kelvin.  Pressure   1.00000 Atm.
 Atom     1 has atomic number  1 and mass   1.00783

 Molecular mass:    21.01405 amu.
 Principal axes and moments of inertia in atomic units:
                           1         2         3
     Eigenvalues --     0.00000  39.51279  39.51279
           X            1.00000  -0.00000   0.00000
           Y            0.00000   1.00000   0.00000
           Z            0.00000   0.00000   1.00000
 This molecule is a prolate symmetric top.
 Rotational symmetry number  1.
 Rotational temperature (Kelvin)      2.19205
 Rotational constant (GHZ):          45.674857
    2 imaginary frequencies ignored.
 Zero-point vibrational energy      45779.8 (Joules/Mol)
                                   10.94163 (Kcal/Mol)
 Warning -- explicit consideration of   1 degrees of freedom as
           vibrations may cause significant error
 Vibrational temperatures:     98.50 10913.58
          (Kelvin)

 Zero-point correction=                           0.017437 (Hartree/Particle)
 Thermal correction to Energy=                    0.020594
 Thermal correction to Enthalpy=                  0.021538
 Thermal correction to Gibbs Free Energy=        -0.003355
 Sum of electronic and zero-point Energies=           -100.904700
 Sum of electronic and thermal Energies=              -100.901543
 Sum of electronic and thermal Enthalpies=            -100.900599
 Sum of electronic and thermal Free Energies=         -100.925492

                     E (Thermal)             CV                S
                      KCal/Mol        Cal/Mol-Kelvin    Cal/Mol-Kelvin
 Total                   12.923              6.937             52.392
 Electronic               0.000              0.000              1.377
 Translational            0.889              2.981             35.068
 Rotational               0.592              1.987             11.750
 Vibrational             11.442              1.969              4.197
 Vibration     1          0.598              1.969              4.197

 Normal termination of Gaussian 16 at Fri Aug 22 15:49:09 2025.
