 Gaussian 16, Revision C.01,
 Gaussian 16:  ES64L-G16RevC.01  3-Jul-2019

 -----------------------------------------
 # sp b3lyp/6-311g** Force nosymm scf=(qc)
 -----------------------------------------

 -------------------
 Title Card Required
 -------------------
 Symbolic Z-matrix:
 Charge =  0 Multiplicity = 2

                          Input orientation:
 ---------------------------------------------------------------------
 Center     Atomic      Atomic             Coordinates (Angstroms)
 Number     Number       Type             X           Y           Z
 ---------------------------------------------------------------------
      1          1           0        0.000000    0.000000    0.000000
      2          1           0       -1.600000    0.000000    0.000000
      3          9           0        1.500000    0.000000    0.000000
 ---------------------------------------------------------------------

 SCF Done:  E(UB3LYP) =  -100.872011133     a.u. after   13 cycles

 Alpha  occ. eigenvalues --  -24.64489  -1.11066  -0.46368  -0.38314  -0.36803
 Alpha  occ. eigenvalues --   -0.36803
 Alpha virt. eigenvalues --   -0.07992   0.21322   0.28610   0.93864   0.93864
 Alpha virt. eigenvalues --    0.95598   1.03591   1.16602   1.16602   1.37934
 Alpha virt. eigenvalues --    1.37934   1.45264   1.80516   2.15919   2.38477

  Beta  occ. eigenvalues --  -24.63227  -1.07694  -0.41473  -0.35597  -0.35597
  Beta virt. eigenvalues --   -0.21091  -0.04576   0.24776   0.30089   0.93834
  Beta virt. eigenvalues --    0.93834   1.00440   1.06324   1.24402   1.24402
  Beta virt. eigenvalues --    1.39618   1.39618   1.51068   1.83922   2.20146

 Mulliken charges and spin densities:
               1          2
     1  H    0.257445  -0.211234
     2  H    0.069381   0.819264
     3  F   -0.326825   0.391971
 Sum of Mulliken charges =   0.00000   1.00000

 Dipole moment (field-independent basis, Debye):
    X=             -2.9503    Y=              0.0000    Z=              0.0000  Tot=              2.9503
 Quadrupole moment (field-independent basis, Debye-Ang):
   XX=             -8.3311   YY=             -7.2495   ZZ=             -7.2495
   XY=             -0.0000   XZ=             -0.0000   YZ=              0.0000

  Exact polarizability:      34.468      -0.000       2.279      -0.000       0.000       2.279
 Approx polarizability:      48.667      -0.000       2.217      -0.000      -0.000       2.217

 ******    2 imaginary frequencies (negative Signs) ******

                      1                      2                      3
                      A                      A                      A
 Frequencies --  -2475.8706              -452.7193              1031.1837
 Red. masses --      1.0251                 1.0883                 1.0187
 Frc consts  --      3.7023                 0.1314                 0.6382
 IR Inten    --    136.7175                 3.6339                35.9642

                      4
                      A
 Frequencies --   1031.1837
 Red. masses --      1.0187
 Frc consts  --      0.6382
 IR Inten    --     35.9642

 - Thermochemistry -
 -------------------
 Temperature   298.150 Kelvin.  Pressure   1.00000 Atm.
 Atom     1 has atomic number  1 and mass   1.00783

 Molecular mass:    21.01405 amu.
 Principal axes and moments of inertia in atomic units:
                           1         2         3
     Eigenvalues --     0.00000  39.03188  39.03188
           X            1.00000  -0.00000   0.00000
           Y            0.00000   1.00000   0.00000
           Z            0.00000   0.00000   1.00000
 This molecule is a prolate symmetric top.
 Rotational symmetry number  1.
 Rotational temperature (Kelvin)      2.21906
 Rotational constant (GHZ):          46.237620
    2 imaginary frequencies ignored.
 Zero-point vibrational energy      12335.7 (Joules/Mol)
                                    2.94830 (Kcal/Mol)
 Vibrational temperatures:   1483.64  1483.64
          (Kelvin)

 Zero-point correction=                           0.004698 (Hartree/Particle)
 Thermal correction to Energy=                    0.007124
 Thermal correction to Enthalpy=                  0.008068
 Thermal correction to Gibbs Free Energy=        -0.014898
 Sum of electronic and zero-point Energies=           -100.867313
 Sum of electronic and thermal Energies=              -100.864887
 Sum of electronic and thermal Enthalpies=            -100.863943
 Sum of electronic and thermal Free Energies=         -100.886909

                     E (Thermal)             CV                S
                      KCal/Mol        Cal/Mol-Kelvin    Cal/Mol-Kelvin
 Total                    4.470              5.657             48.336
 Electronic               0.000              0.000              1.377
 Translational            0.889              2.981             35.068
 Rotational               0.592              1.987             11.726
 Vibrational              2.989              0.689              0.165

 Normal termination of Gaussian 16 at Fri Aug 22 16:25:09 2025.
