 Gaussian 16, Revision C.01,
 Gaussian 16:  ES64L-G16RevC.01  3-Jul-2019

 -----------------------------------------
 # sp b3lyp/6-311g** Force nosymm scf=(qc)
 -----------------------------------------

 -------------------
 Title Card Required
 -------------------
 Symbolic Z-matrix:
 Charge =  0 Multiplicity = 2

                          Input orientation:
 ---------------------------------------------------------------------
 Center     Atomic      Atomic             Coordinates (Angstroms)
 Number     Number       Type             X           Y           Z
 ---------------------------------------------------------------------
      1          1           0        0.000000    0.000000    0.000000
      2          1           0       -3.350000    0.000000    0.000000
      3          9           0        0.800000    0.000000    0.000000
 ---------------------------------------------------------------------

 SCF Done:  E(UB3LYP) =  -100.950332606     a.u. after    6 cycles

 Alpha  occ. eigenvalues --  -24.63672  -1.23036  -0.56186  -0.40646  -0.40646
 Alpha  occ. eigenvalues --   -0.33636
 Alpha virt. eigenvalues --    0.05140   0.24923   0.45810   0.94209   0.94209
 Alpha virt. eigenvalues --    0.97011   1.23489   1.23880   1.23880   1.30709
 Alpha virt. eigenvalues --    1.39823   1.39823   2.02681   2.14579   2.53083

  Beta  occ. eigenvalues --  -24.63671  -1.23032  -0.56183  -0.40645  -0.40645
  Beta virt. eigenvalues --   -0.05640   0.05807   0.39361   0.45780   0.94209
  Beta virt. eigenvalues --    0.94209   0.96999   1.29931   1.39823   1.39823
  Beta virt. eigenvalues --    1.50779   1.50956   1.50956   2.02711   2.44470

 Mulliken charges and spin densities:
               1          2
     1  H    0.274323   0.000793
     2  H    0.001084   0.998625
     3  F   -0.275407   0.000582
 Sum of Mulliken charges =   0.00000   1.00000

 Dipole moment (field-independent basis, Debye):
    X=             -1.7483    Y=             -0.0000    Z=              0.0000  Tot=              1.7483
 Quadrupole moment (field-independent basis, Debye-Ang):
   XX=             -7.5769   YY=             -6.7690   ZZ=             -6.7690
   XY=             -0.0000   XZ=              0.0000   YZ=              0.0000

  Exact polarizability:       4.850       0.000       2.445      -0.000      -0.000       2.445
 Approx polarizability:       5.393       0.000       2.426      -0.000      -0.000       2.426

 ******    3 imaginary frequencies (negative Signs) ******

                      1                      2                      3
                      A                      A                      A
 Frequencies --  -1977.8020             -1977.8020               -46.5565
 Red. masses --      1.0396                 1.0396                 1.0532
 Frc consts  --      2.3959                 2.3959                 0.0013
 IR Inten    --    194.8717               194.8717                 0.0504

                      4
                      A
 Frequencies --   6349.6893
 Red. masses --      1.0583
 Frc consts  --     25.1403
 IR Inten    --    107.4929

 - Thermochemistry -
 -------------------
 Temperature   298.150 Kelvin.  Pressure   1.00000 Atm.
 Atom     1 has atomic number  1 and mass   1.00783

 Molecular mass:    21.01405 amu.
 Principal axes and moments of inertia in atomic units:
                           1         2         3
     Eigenvalues --     0.00000  60.05799  60.05799
           X            1.00000  -0.00000   0.00000
           Y            0.00000   1.00000   0.00000
           Z            0.00000   0.00000   1.00000
 This molecule is a prolate symmetric top.
 Rotational symmetry number  1.
 Rotational temperature (Kelvin)      1.44217
 Rotational constant (GHZ):          30.049977
    3 imaginary frequencies ignored.
 Zero-point vibrational energy      37979.6 (Joules/Mol)
                                    9.07734 (Kcal/Mol)
 Vibrational temperatures:   9135.79
          (Kelvin)

 Zero-point correction=                           0.014466 (Hartree/Particle)
 Thermal correction to Energy=                    0.016826
 Thermal correction to Enthalpy=                  0.017770
 Thermal correction to Gibbs Free Energy=        -0.005524
 Sum of electronic and zero-point Energies=           -100.935867
 Sum of electronic and thermal Energies=              -100.933506
 Sum of electronic and thermal Enthalpies=            -100.932562
 Sum of electronic and thermal Free Energies=         -100.955857

                     E (Thermal)             CV                S
                      KCal/Mol        Cal/Mol-Kelvin    Cal/Mol-Kelvin
 Total                   10.559              4.968             49.027
 Electronic               0.000              0.000              1.377
 Translational            0.889              2.981             35.068
 Rotational               0.592              1.987             12.582
 Vibrational              9.077              0.000              0.000

 Normal termination of Gaussian 16 at Fri Aug 22 15:51:59 2025.
