 Gaussian 16, Revision C.01,
 Gaussian 16:  ES64L-G16RevC.01  3-Jul-2019

 -----------------------------------------
 # sp b3lyp/6-311g** Force nosymm scf=(qc)
 -----------------------------------------

 -------------------
 Title Card Required
 -------------------
 Symbolic Z-matrix:
 Charge =  0 Multiplicity = 2

                          Input orientation:
 ---------------------------------------------------------------------
 Center     Atomic      Atomic             Coordinates (Angstroms)
 Number     Number       Type             X           Y           Z
 ---------------------------------------------------------------------
      1          1           0        0.000000    0.000000    0.000000
      2          1           0       -3.550000    0.000000    0.000000
      3          9           0        1.950000    0.000000    0.000000
 ---------------------------------------------------------------------

 SCF Done:  E(UB3LYP) =  -100.790806669     a.u. after   18 cycles

 Alpha  occ. eigenvalues --  -24.67843  -1.14147  -0.46789  -0.39432  -0.39432
 Alpha  occ. eigenvalues --   -0.33469
 Alpha virt. eigenvalues --   -0.14081   0.22171   0.31429   0.89511   0.94871
 Alpha virt. eigenvalues --    0.94871   1.05662   1.24044   1.24044   1.24120
 Alpha virt. eigenvalues --    1.34950   1.34950   1.62874   2.13867   2.28726

  Beta  occ. eigenvalues --  -24.65561  -1.07786  -0.38266  -0.37187  -0.37187
  Beta virt. eigenvalues --   -0.20409  -0.06925   0.22386   0.37901   0.90607
  Beta virt. eigenvalues --    0.95357   0.95357   1.08096   1.22255   1.22255
  Beta virt. eigenvalues --    1.45507   1.45937   1.45937   1.56373   2.11910

 Mulliken charges and spin densities:
               1          2
     1  H    0.206662  -0.715633
     2  H    0.001506   0.997891
     3  F   -0.208168   0.717742
 Sum of Mulliken charges =   0.00000   1.00000

 Dipole moment (field-independent basis, Debye):
    X=             -2.0245    Y=             -0.0000    Z=              0.0000  Tot=              2.0245
 Quadrupole moment (field-independent basis, Debye-Ang):
   XX=            -10.0785   YY=             -7.4776   ZZ=             -7.4776
   XY=              0.0000   XZ=              0.0000   YZ=             -0.0000

  Exact polarizability:      25.226       0.000       2.069      -0.000       0.000       2.069
 Approx polarizability:      36.963      -0.000       1.955      -0.000       0.000       1.955

 ******    2 imaginary frequencies (negative Signs) ******

                      1                      2                      3
                      A                      A                      A
 Frequencies --  -1215.2858              -112.4933               517.6764
 Red. masses --      1.0573                 1.0542                 1.0265
 Frc consts  --      0.9201                 0.0079                 0.1621
 IR Inten    --    125.5330                 0.2279                39.9679

                      4
                      A
 Frequencies --    517.6764
 Red. masses --      1.0265
 Frc consts  --      0.1621
 IR Inten    --     39.9679

 - Thermochemistry -
 -------------------
 Temperature   298.150 Kelvin.  Pressure   1.00000 Atm.
 Atom     1 has atomic number  1 and mass   1.00783

 Molecular mass:    21.01405 amu.
 Principal axes and moments of inertia in atomic units:
                           1         2         3
     Eigenvalues --     0.00000 112.97512 112.97512
           X            1.00000  -0.00000   0.00000
           Y            0.00000   1.00000   0.00000
           Z            0.00000   0.00000   1.00000
 This molecule is a prolate symmetric top.
 Rotational symmetry number  1.
 Rotational temperature (Kelvin)      0.76666
 Rotational constant (GHZ):          15.974678
    2 imaginary frequencies ignored.
 Zero-point vibrational energy       6192.8 (Joules/Mol)
                                    1.48011 (Kcal/Mol)
 Warning -- explicit consideration of   2 degrees of freedom as
           vibrations may cause significant error
 Vibrational temperatures:    744.82   744.82
          (Kelvin)

 Zero-point correction=                           0.002359 (Hartree/Particle)
 Thermal correction to Energy=                    0.005142
 Thermal correction to Enthalpy=                  0.006086
 Thermal correction to Gibbs Free Energy=        -0.018390
 Sum of electronic and zero-point Energies=           -100.788448
 Sum of electronic and thermal Energies=              -100.785665
 Sum of electronic and thermal Enthalpies=            -100.784721
 Sum of electronic and thermal Free Energies=         -100.809196

                     E (Thermal)             CV                S
                      KCal/Mol        Cal/Mol-Kelvin    Cal/Mol-Kelvin
 Total                    3.227              7.390             51.514
 Electronic               0.000              0.000              1.377
 Translational            0.889              2.981             35.068
 Rotational               0.592              1.987             13.838
 Vibrational              1.745              2.422              1.231
 Vibration     1          0.873              1.211              0.615
 Vibration     2          0.873              1.211              0.615

 Normal termination of Gaussian 16 at Fri Aug 22 16:54:36 2025.
