 Gaussian 16, Revision C.01,
 Gaussian 16:  ES64L-G16RevC.01  3-Jul-2019

 -----------------------------------------
 # sp b3lyp/6-311g** Force nosymm scf=(qc)
 -----------------------------------------

 -------------------
 Title Card Required
 -------------------
 Symbolic Z-matrix:
 Charge =  0 Multiplicity = 2

                          Input orientation:
 ---------------------------------------------------------------------
 Center     Atomic      Atomic             Coordinates (Angstroms)
 Number     Number       Type             X           Y           Z
 ---------------------------------------------------------------------
      1          1           0        0.000000    0.000000    0.000000
      2          1           0       -3.850000    0.000000    0.000000
      3          9           0        1.250000    0.000000    0.000000
 ---------------------------------------------------------------------

 SCF Done:  E(UB3LYP) =  -100.913412054     a.u. after    6 cycles

 Alpha  occ. eigenvalues --  -24.64376  -1.11653  -0.46887  -0.37296  -0.37296
 Alpha  occ. eigenvalues --   -0.33593
 Alpha virt. eigenvalues --   -0.07394   0.21766   0.28513   0.93045   0.93045
 Alpha virt. eigenvalues --    1.01431   1.23767   1.23916   1.23916   1.24075
 Alpha virt. eigenvalues --    1.34235   1.34235   1.70926   2.13424   2.26548

  Beta  occ. eigenvalues --  -24.64374  -1.11647  -0.46881  -0.37294  -0.37294
  Beta virt. eigenvalues --   -0.07983  -0.05231   0.25709   0.38736   0.93045
  Beta virt. eigenvalues --    0.93045   1.01437   1.23978   1.34229   1.34229
  Beta virt. eigenvalues --    1.47721   1.47721   1.48160   1.70946   2.25841

 Mulliken charges and spin densities:
               1          2
     1  H    0.356964  -0.000118
     2  H    0.000595   0.999363
     3  F   -0.357559   0.000755
 Sum of Mulliken charges =   0.00000   1.00000

 Dipole moment (field-independent basis, Debye):
    X=             -2.3429    Y=              0.0000    Z=             -0.0000  Tot=              2.3429
 Quadrupole moment (field-independent basis, Debye-Ang):
   XX=             -9.0810   YY=             -7.1644   ZZ=             -7.1644
   XY=              0.0000   XZ=             -0.0000   YZ=              0.0000

  Exact polarizability:      10.013       0.000       2.301      -0.000      -0.000       2.301
 Approx polarizability:      15.009       0.000       2.249      -0.000      -0.000       2.249

 ******    1 imaginary frequencies (negative Signs) ******

                      1                      2                      3
                      A                      A                      A
 Frequencies --    -41.0455               450.8734              1192.5211
 Red. masses --      1.0521                 1.0595                 1.0350
 Frc consts  --      0.0010                 0.1269                 0.8672
 IR Inten    --      0.0726                59.3633               143.0906

                      4
                      A
 Frequencies --   1192.5211
 Red. masses --      1.0350
 Frc consts  --      0.8672
 IR Inten    --    143.0906

 - Thermochemistry -
 -------------------
 Temperature   298.150 Kelvin.  Pressure   1.00000 Atm.
 Atom     1 has atomic number  1 and mass   1.00783

 Molecular mass:    21.01405 amu.
 Principal axes and moments of inertia in atomic units:
                           1         2         3
     Eigenvalues --     0.00000  92.27372  92.27372
           X            1.00000  -0.00000   0.00000
           Y            0.00000   1.00000   0.00000
           Z            0.00000   0.00000   1.00000
 This molecule is a prolate symmetric top.
 Rotational symmetry number  1.
 Rotational temperature (Kelvin)      0.93866
 Rotational constant (GHZ):          19.558561
    1 imaginary frequencies ignored.
 Zero-point vibrational energy      16962.5 (Joules/Mol)
                                    4.05414 (Kcal/Mol)
 Warning -- explicit consideration of   1 degrees of freedom as
           vibrations may cause significant error
 Vibrational temperatures:    648.71  1715.77  1715.77
          (Kelvin)

 Zero-point correction=                           0.006461 (Hartree/Particle)
 Thermal correction to Energy=                    0.009119
 Thermal correction to Enthalpy=                  0.010063
 Thermal correction to Gibbs Free Energy=        -0.014054
 Sum of electronic and zero-point Energies=           -100.906951
 Sum of electronic and thermal Energies=              -100.904293
 Sum of electronic and thermal Enthalpies=            -100.903349
 Sum of electronic and thermal Free Energies=         -100.927466

                     E (Thermal)             CV                S
                      KCal/Mol        Cal/Mol-Kelvin    Cal/Mol-Kelvin
 Total                    5.722              6.747             50.759
 Electronic               0.000              0.000              1.377
 Translational            0.889              2.981             35.068
 Rotational               0.592              1.987             13.435
 Vibrational              4.241              1.779              0.878
 Vibration     1          0.810              1.359              0.793

 Normal termination of Gaussian 16 at Fri Aug 22 16:13:49 2025.
