 Gaussian 16, Revision C.01,
 Gaussian 16:  ES64L-G16RevC.01  3-Jul-2019

 -----------------------------------------
 # sp b3lyp/6-311g** Force nosymm scf=(qc)
 -----------------------------------------

 -------------------
 Title Card Required
 -------------------
 Symbolic Z-matrix:
 Charge =  0 Multiplicity = 2

                          Input orientation:
 ---------------------------------------------------------------------
 Center     Atomic      Atomic             Coordinates (Angstroms)
 Number     Number       Type             X           Y           Z
 ---------------------------------------------------------------------
      1          1           0        0.000000    0.000000    0.000000
      2          1           0       -1.250000    0.000000    0.000000
      3          9           0        1.650000    0.000000    0.000000
 ---------------------------------------------------------------------

 SCF Done:  E(UB3LYP) =  -100.885019927     a.u. after   12 cycles

 Alpha  occ. eigenvalues --  -24.68340  -1.15011  -0.49774  -0.40089  -0.40089
 Alpha  occ. eigenvalues --   -0.39740
 Alpha virt. eigenvalues --   -0.04166   0.20730   0.31358   0.92131   0.92131
 Alpha virt. eigenvalues --    0.95545   1.05275   1.10787   1.10787   1.49197
 Alpha virt. eigenvalues --    1.49197   1.49971   2.04417   2.24533   2.51508

  Beta  occ. eigenvalues --  -24.66089  -1.08806  -0.40899  -0.37891  -0.37891
  Beta virt. eigenvalues --   -0.23469  -0.01437   0.22742   0.32238   0.92821
  Beta virt. eigenvalues --    0.92821   1.01207   1.08219   1.14114   1.14114
  Beta virt. eigenvalues --    1.50726   1.50726   1.54209   2.07529   2.27387

 Mulliken charges and spin densities:
               1          2
     1  H    0.144098  -0.188633
     2  H    0.067499   0.491179
     3  F   -0.211597   0.697454
 Sum of Mulliken charges =   0.00000   1.00000

 Dipole moment (field-independent basis, Debye):
    X=             -2.0962    Y=              0.0000    Z=              0.0000  Tot=              2.0962
 Quadrupole moment (field-independent basis, Debye-Ang):
   XX=             -7.6116   YY=             -7.2551   ZZ=             -7.2551
   XY=              0.0000   XZ=              0.0000   YZ=             -0.0000

  Exact polarizability:      38.060       0.000       2.286       0.000      -0.000       2.286
 Approx polarizability:      59.054      -0.000       2.249      -0.000       0.000       2.249

 ******    2 imaginary frequencies (negative Signs) ******

                      1                      2                      3
                      A                      A                      A
 Frequencies --  -2333.4193              -159.1545              1245.3288
 Red. masses --      1.0206                 1.0935                 1.0149
 Frc consts  --      3.2740                 0.0163                 0.9274
 IR Inten    --   1118.2903                 7.4455                 5.2801

                      4
                      A
 Frequencies --   1245.3288
 Red. masses --      1.0149
 Frc consts  --      0.9274
 IR Inten    --      5.2801

 - Thermochemistry -
 -------------------
 Temperature   298.150 Kelvin.  Pressure   1.00000 Atm.
 Atom     1 has atomic number  1 and mass   1.00783

 Molecular mass:    21.01405 amu.
 Principal axes and moments of inertia in atomic units:
                           1         2         3
     Eigenvalues --     0.00000  36.49257  36.49257
           X            1.00000  -0.00000   0.00000
           Y            0.00000   1.00000   0.00000
           Z            0.00000   0.00000   1.00000
 This molecule is a prolate symmetric top.
 Rotational symmetry number  1.
 Rotational temperature (Kelvin)      2.37347
 Rotational constant (GHZ):          49.455034
    2 imaginary frequencies ignored.
 Zero-point vibrational energy      14897.4 (Joules/Mol)
                                    3.56057 (Kcal/Mol)
 Vibrational temperatures:   1791.75  1791.75
          (Kelvin)

 Zero-point correction=                           0.005674 (Hartree/Particle)
 Thermal correction to Energy=                    0.008063
 Thermal correction to Enthalpy=                  0.009007
 Thermal correction to Gibbs Free Energy=        -0.013850
 Sum of electronic and zero-point Energies=           -100.879346
 Sum of electronic and thermal Energies=              -100.876957
 Sum of electronic and thermal Enthalpies=            -100.876013
 Sum of electronic and thermal Free Energies=         -100.898870

                     E (Thermal)             CV                S
                      KCal/Mol        Cal/Mol-Kelvin    Cal/Mol-Kelvin
 Total                    5.059              5.322             48.106
 Electronic               0.000              0.000              1.377
 Translational            0.889              2.981             35.068
 Rotational               0.592              1.987             11.592
 Vibrational              3.578              0.354              0.069

 Normal termination of Gaussian 16 at Fri Aug 22 16:33:35 2025.
