 Gaussian 16, Revision C.01,
 Gaussian 16:  ES64L-G16RevC.01  3-Jul-2019

 -----------------------------------------
 # sp b3lyp/6-311g** Force nosymm scf=(qc)
 -----------------------------------------

 -------------------
 Title Card Required
 -------------------
 Symbolic Z-matrix:
 Charge =  0 Multiplicity = 2

                          Input orientation:
 ---------------------------------------------------------------------
 Center     Atomic      Atomic             Coordinates (Angstroms)
 Number     Number       Type             X           Y           Z
 ---------------------------------------------------------------------
      1          1           0        0.000000    0.000000    0.000000
      2          1           0       -3.350000    0.000000    0.000000
      3          9           0        3.150000    0.000000    0.000000
 ---------------------------------------------------------------------

 SCF Done:  E(UB3LYP) =  -100.760384458     a.u. after   23 cycles

 Alpha  occ. eigenvalues --  -24.74580  -1.20604  -0.53701  -0.45089  -0.45089
 Alpha  occ. eigenvalues --   -0.32502
 Alpha virt. eigenvalues --   -0.07940   0.24274   0.36139   0.88864   0.91976
 Alpha virt. eigenvalues --    0.91976   1.03114   1.25010   1.25010   1.25276
 Alpha virt. eigenvalues --    1.44087   1.44087   1.44276   2.15102   2.40345

  Beta  occ. eigenvalues --  -24.71519  -1.11822  -0.42024  -0.42024  -0.33403
  Beta virt. eigenvalues --   -0.25053  -0.06805   0.24128   0.37644   0.93449
  Beta virt. eigenvalues --    0.93449   0.97732   1.06962   1.23967   1.23967
  Beta virt. eigenvalues --    1.24288   1.45518   1.45769   1.45769   2.15454

 Mulliken charges and spin densities:
               1          2
     1  H    0.026587  -0.967233
     2  H    0.000517   0.996979
     3  F   -0.027104   0.970254
 Sum of Mulliken charges =  -0.00000   1.00000

 Dipole moment (field-independent basis, Debye):
    X=             -0.4470    Y=              0.0000    Z=              0.0000  Tot=              0.4470
 Quadrupole moment (field-independent basis, Debye-Ang):
   XX=             -7.9836   YY=             -7.6177   ZZ=             -7.6177
   XY=              0.0000   XZ=             -0.0000   YZ=              0.0000

  Exact polarizability:      31.165       0.000       2.027      -0.000       0.000       2.027
 Approx polarizability:      29.054       0.000       1.928      -0.000      -0.000       1.928

 ******    2 imaginary frequencies (negative Signs) ******

                      1                      2                      3
                      A                      A                      A
 Frequencies --   -340.4977              -132.5122               119.1883
 Red. masses --      1.0358                 1.0765                 1.0187
 Frc consts  --      0.0708                 0.0111                 0.0085
 IR Inten    --     28.1689                 1.7318                 0.6453

                      4
                      A
 Frequencies --    119.1883
 Red. masses --      1.0187
 Frc consts  --      0.0085
 IR Inten    --      0.6453

 - Thermochemistry -
 -------------------
 Temperature   298.150 Kelvin.  Pressure   1.00000 Atm.
 Atom     1 has atomic number  1 and mass   1.00783

 Molecular mass:    21.01405 amu.
 Principal axes and moments of inertia in atomic units:
                           1         2         3
     Eigenvalues --     0.00000 171.69569 171.69569
           X            1.00000  -0.00000   0.00000
           Y            0.00000   1.00000   0.00000
           Z            0.00000   0.00000   1.00000
 This molecule is a prolate symmetric top.
 Rotational symmetry number  1.
 Rotational temperature (Kelvin)      0.50446
 Rotational constant (GHZ):          10.511279
    2 imaginary frequencies ignored.
 Zero-point vibrational energy       1425.8 (Joules/Mol)
                                    0.34078 (Kcal/Mol)
 Warning -- explicit consideration of   2 degrees of freedom as
           vibrations may cause significant error
 Vibrational temperatures:    171.49   171.49
          (Kelvin)

 Zero-point correction=                           0.000543 (Hartree/Particle)
 Thermal correction to Energy=                    0.004301
 Thermal correction to Enthalpy=                  0.005245
 Thermal correction to Gibbs Free Energy=        -0.022000
 Sum of electronic and zero-point Energies=           -100.759841
 Sum of electronic and thermal Energies=              -100.756084
 Sum of electronic and thermal Enthalpies=            -100.755140
 Sum of electronic and thermal Free Energies=         -100.782385

                     E (Thermal)             CV                S
                      KCal/Mol        Cal/Mol-Kelvin    Cal/Mol-Kelvin
 Total                    2.699              8.835             57.342
 Electronic               0.000              0.000              1.377
 Translational            0.889              2.981             35.068
 Rotational               0.592              1.987             14.669
 Vibrational              1.217              3.867              6.227
 Vibration     1          0.609              1.933              3.113
 Vibration     2          0.609              1.933              3.113

 Normal termination of Gaussian 16 at Fri Aug 22 20:11:37 2025.
