 Gaussian 16, Revision C.01,
 Gaussian 16:  ES64L-G16RevC.01  3-Jul-2019

 -----------------------------------------
 # sp b3lyp/6-311g** Force nosymm scf=(qc)
 -----------------------------------------

 -------------------
 Title Card Required
 -------------------
 Symbolic Z-matrix:
 Charge =  0 Multiplicity = 2

                          Input orientation:
 ---------------------------------------------------------------------
 Center     Atomic      Atomic             Coordinates (Angstroms)
 Number     Number       Type             X           Y           Z
 ---------------------------------------------------------------------
      1          1           0        0.000000    0.000000    0.000000
      2          1           0       -0.650000    0.000000    0.000000
      3          9           0        3.000000    0.000000    0.000000
 ---------------------------------------------------------------------

 SCF Done:  E(UB3LYP) =  -100.927162853     a.u. after   37 cycles

 Alpha  occ. eigenvalues --  -24.76594  -1.22396  -0.55589  -0.46922  -0.46739
 Alpha  occ. eigenvalues --   -0.45111
 Alpha virt. eigenvalues --    0.07971   0.19370   0.50498   0.85876   0.90749
 Alpha virt. eigenvalues --    0.93944   1.06504   1.09626   1.09633   1.59888
 Alpha virt. eigenvalues --    1.86265   1.89430   1.89439   2.38253   3.64667

  Beta  occ. eigenvalues --  -24.73432  -1.13308  -0.45361  -0.43569  -0.43498
  Beta virt. eigenvalues --   -0.26211   0.08024   0.19402   0.50609   0.92247
  Beta virt. eigenvalues --    0.95334   0.95799   1.09625   1.09632   1.10109
  Beta virt. eigenvalues --    1.59905   1.86304   1.89429   1.89438   2.38259

 Mulliken charges and spin densities:
               1          2
     1  H   -0.006921  -0.001430
     2  H   -0.002896   0.000110
     3  F    0.009817   1.001320
 Sum of Mulliken charges =   0.00000   1.00000

 Dipole moment (field-independent basis, Debye):
    X=              0.0920    Y=              0.0000    Z=              0.0000  Tot=              0.0920
 Quadrupole moment (field-independent basis, Debye-Ang):
   XX=             -6.0353   YY=             -6.6230   ZZ=             -6.1508
   XY=             -0.0000   XZ=             -0.0000   YZ=              0.3615

  Exact polarizability:       7.387      -0.000       2.010       0.000       0.192       2.262
 Approx polarizability:       8.092      -0.000       2.118      -0.000       0.241       2.434

 ******    2 imaginary frequencies (negative Signs) ******

                      1                      2                      3
                      A                      A                      A
 Frequencies --  -1946.1051             -1945.2986                64.8164
 Red. masses --      1.0088                 1.0088                 1.1085
 Frc consts  --      2.2510                 2.2492                 0.0027
 IR Inten    --      0.0254                 0.0241                 0.2037

                      4
                      A
 Frequencies --   5976.1565
 Red. masses --      1.0078
 Frc consts  --     21.2070
 IR Inten    --      0.3667

 - Thermochemistry -
 -------------------
 Temperature   298.150 Kelvin.  Pressure   1.00000 Atm.
 Atom     1 has atomic number  1 and mass   1.00783

 Molecular mass:    21.01405 amu.
 Principal axes and moments of inertia in atomic units:
                           1         2         3
     Eigenvalues --     0.00000  72.70576  72.70576
           X            1.00000  -0.00000   0.00000
           Y            0.00000   1.00000   0.00000
           Z            0.00000   0.00000   1.00000
 This molecule is a prolate symmetric top.
 Rotational symmetry number  1.
 Rotational temperature (Kelvin)      1.19129
 Rotational constant (GHZ):          24.822534
    2 imaginary frequencies ignored.
 Zero-point vibrational energy      36133.0 (Joules/Mol)
                                    8.63600 (Kcal/Mol)
 Warning -- explicit consideration of   1 degrees of freedom as
           vibrations may cause significant error
 Vibrational temperatures:     93.26  8598.36
          (Kelvin)

 Zero-point correction=                           0.013762 (Hartree/Particle)
 Thermal correction to Energy=                    0.016927
 Thermal correction to Enthalpy=                  0.017871
 Thermal correction to Gibbs Free Energy=        -0.007649
 Sum of electronic and zero-point Energies=           -100.913401
 Sum of electronic and thermal Energies=              -100.910236
 Sum of electronic and thermal Enthalpies=            -100.909292
 Sum of electronic and thermal Free Energies=         -100.934812

                     E (Thermal)             CV                S
                      KCal/Mol        Cal/Mol-Kelvin    Cal/Mol-Kelvin
 Total                   10.622              6.939             53.712
 Electronic               0.000              0.000              1.377
 Translational            0.889              2.981             35.068
 Rotational               0.592              1.987             12.962
 Vibrational              9.141              1.971              4.305
 Vibration     1          0.597              1.971              4.305

 Normal termination of Gaussian 16 at Fri Aug 22 19:21:27 2025.
