 Gaussian 16, Revision C.01,
 Gaussian 16:  ES64L-G16RevC.01  3-Jul-2019

 -----------------------------------------
 # sp b3lyp/6-311g** Force nosymm scf=(qc)
 -----------------------------------------

 -------------------
 Title Card Required
 -------------------
 Symbolic Z-matrix:
 Charge =  0 Multiplicity = 2

                          Input orientation:
 ---------------------------------------------------------------------
 Center     Atomic      Atomic             Coordinates (Angstroms)
 Number     Number       Type             X           Y           Z
 ---------------------------------------------------------------------
      1          1           0        0.000000    0.000000    0.000000
      2          1           0       -3.200000    0.000000    0.000000
      3          9           0        3.650000    0.000000    0.000000
 ---------------------------------------------------------------------

 SCF Done:  E(UB3LYP) =  -100.759298430     a.u. after   35 cycles

 Alpha  occ. eigenvalues --  -24.75608  -1.21555  -0.54732  -0.45954  -0.45954
 Alpha  occ. eigenvalues --   -0.32354
 Alpha virt. eigenvalues --   -0.07422   0.24688   0.36726   0.87184   0.91342
 Alpha virt. eigenvalues --    0.91342   1.01486   1.25165   1.25165   1.25571
 Alpha virt. eigenvalues --    1.44594   1.44778   1.44778   2.15487   2.40237

  Beta  occ. eigenvalues --  -24.72480  -1.12564  -0.42818  -0.42818  -0.32695
  Beta virt. eigenvalues --   -0.25598  -0.07022   0.24479   0.37367   0.92835
  Beta virt. eigenvalues --    0.92835   0.96419   1.05549   1.24778   1.24778
  Beta virt. eigenvalues --    1.25158   1.45219   1.45411   1.45411   2.15644

 Mulliken charges and spin densities:
               1          2
     1  H    0.007131  -0.987260
     2  H    0.000293   0.995477
     3  F   -0.007423   0.991783
 Sum of Mulliken charges =   0.00000   1.00000

 Dipole moment (field-independent basis, Debye):
    X=             -0.1440    Y=             -0.0000    Z=              0.0000  Tot=              0.1440
 Quadrupole moment (field-independent basis, Debye-Ang):
   XX=             -7.1597   YY=             -7.6291   ZZ=             -7.6291
   XY=             -0.0000   XZ=             -0.0000   YZ=              0.0000

  Exact polarizability:      20.716       0.000       2.011       0.000       0.000       2.011
 Approx polarizability:      15.566      -0.000       1.934      -0.000      -0.000       1.934

 ******    2 imaginary frequencies (negative Signs) ******

                      1                      2                      3
                      A                      A                      A
 Frequencies --   -282.8276              -107.1522               104.5968
 Red. masses --      1.0118                 1.1037                 1.0164
 Frc consts  --      0.0477                 0.0075                 0.0066
 IR Inten    --      4.4355                 2.1198                 0.0612

                      4
                      A
 Frequencies --    104.5970
 Red. masses --      1.0164
 Frc consts  --      0.0066
 IR Inten    --      0.0612

 - Thermochemistry -
 -------------------
 Temperature   298.150 Kelvin.  Pressure   1.00000 Atm.
 Atom     1 has atomic number  1 and mass   1.00783

 Molecular mass:    21.01405 amu.
 Principal axes and moments of inertia in atomic units:
                           1         2         3
     Eigenvalues --     0.00000 197.79236 197.79236
           X            1.00000  -0.00000   0.00000
           Y            0.00000   1.00000   0.00000
           Z            0.00000   0.00000   1.00000
 This molecule is a prolate symmetric top.
 Rotational symmetry number  1.
 Rotational temperature (Kelvin)      0.43790
 Rotational constant (GHZ):           9.124423
    2 imaginary frequencies ignored.
 Zero-point vibrational energy       1251.3 (Joules/Mol)
                                    0.29906 (Kcal/Mol)
 Warning -- explicit consideration of   2 degrees of freedom as
           vibrations may cause significant error
 Vibrational temperatures:    150.49   150.49
          (Kelvin)

 Zero-point correction=                           0.000477 (Hartree/Particle)
 Thermal correction to Energy=                    0.004289
 Thermal correction to Enthalpy=                  0.005233
 Thermal correction to Gibbs Free Energy=        -0.022386
 Sum of electronic and zero-point Energies=           -100.758822
 Sum of electronic and thermal Energies=              -100.755010
 Sum of electronic and thermal Enthalpies=            -100.754065
 Sum of electronic and thermal Free Energies=         -100.781685

                     E (Thermal)             CV                S
                      KCal/Mol        Cal/Mol-Kelvin    Cal/Mol-Kelvin
 Total                    2.691              8.859             58.129
 Electronic               0.000              0.000              1.377
 Translational            0.889              2.981             35.068
 Rotational               0.592              1.987             14.950
 Vibrational              1.210              3.891              6.734
 Vibration     1          0.605              1.946              3.367
 Vibration     2          0.605              1.946              3.367

 Normal termination of Gaussian 16 at Fri Aug 22 23:37:36 2025.
