 Gaussian 16, Revision C.01,
 Gaussian 16:  ES64L-G16RevC.01  3-Jul-2019

 -----------------------------------------
 # sp b3lyp/6-311g** Force nosymm scf=(qc)
 -----------------------------------------

 -------------------
 Title Card Required
 -------------------
 Symbolic Z-matrix:
 Charge =  0 Multiplicity = 2

                          Input orientation:
 ---------------------------------------------------------------------
 Center     Atomic      Atomic             Coordinates (Angstroms)
 Number     Number       Type             X           Y           Z
 ---------------------------------------------------------------------
      1          1           0        0.000000    0.000000    0.000000
      2          1           0       -3.050000    0.000000    0.000000
      3          9           0        0.900000    0.000000    0.000000
 ---------------------------------------------------------------------

 SCF Done:  E(UB3LYP) =  -100.971558636     a.u. after    5 cycles

 Alpha  occ. eigenvalues --  -24.63976  -1.19028  -0.53848  -0.39636  -0.39636
 Alpha  occ. eigenvalues --   -0.34037
 Alpha virt. eigenvalues --    0.03401   0.25070   0.39367   0.94352   0.94352
 Alpha virt. eigenvalues --    0.97766   1.22750   1.23491   1.23491   1.31898
 Alpha virt. eigenvalues --    1.37286   1.37286   2.01039   2.14600   2.37354

  Beta  occ. eigenvalues --  -24.63972  -1.19017  -0.53835  -0.39633  -0.39633
  Beta virt. eigenvalues --   -0.06838   0.04468   0.38864   0.39393   0.94353
  Beta virt. eigenvalues --    0.94353   0.97756   1.30129   1.37284   1.37284
  Beta virt. eigenvalues --    1.49569   1.49569   1.50183   2.01170   2.37278

 Mulliken charges and spin densities:
               1          2
     1  H    0.294378   0.001335
     2  H    0.002144   0.997176
     3  F   -0.296522   0.001489
 Sum of Mulliken charges =   0.00000   1.00000

 Dipole moment (field-independent basis, Debye):
    X=             -1.9134    Y=             -0.0000    Z=              0.0000  Tot=              1.9134
 Quadrupole moment (field-independent basis, Debye-Ang):
   XX=             -7.8326   YY=             -6.8680   ZZ=             -6.8680
   XY=             -0.0000   XZ=             -0.0000   YZ=              0.0000

  Exact polarizability:       6.215       0.000       2.434      -0.000       0.000       2.434
 Approx polarizability:       7.051       0.000       2.414       0.000      -0.000       2.414

 ******    3 imaginary frequencies (negative Signs) ******

                      1                      2                      3
                      A                      A                      A
 Frequencies --   -623.9793              -623.9793               -59.4736
 Red. masses --      1.0365                 1.0365                 1.0532
 Frc consts  --      0.2378                 0.2378                 0.0022
 IR Inten    --    177.2545               177.2545                 0.1538

                      4
                      A
 Frequencies --   4430.6348
 Red. masses --      1.0583
 Frc consts  --     12.2408
 IR Inten    --    107.1045

 - Thermochemistry -
 -------------------
 Temperature   298.150 Kelvin.  Pressure   1.00000 Atm.
 Atom     1 has atomic number  1 and mass   1.00783

 Molecular mass:    21.01405 amu.
 Principal axes and moments of inertia in atomic units:
                           1         2         3
     Eigenvalues --     0.00000  55.00858  55.00858
           X            1.00000  -0.00000   0.00000
           Y            0.00000   1.00000   0.00000
           Z            0.00000   0.00000   1.00000
 This molecule is a prolate symmetric top.
 Rotational symmetry number  1.
 Rotational temperature (Kelvin)      1.57455
 Rotational constant (GHZ):          32.808357
    3 imaginary frequencies ignored.
 Zero-point vibrational energy      26501.1 (Joules/Mol)
                                    6.33391 (Kcal/Mol)
 Vibrational temperatures:   6374.70
          (Kelvin)

 Zero-point correction=                           0.010094 (Hartree/Particle)
 Thermal correction to Energy=                    0.012454
 Thermal correction to Enthalpy=                  0.013398
 Thermal correction to Gibbs Free Energy=        -0.009813
 Sum of electronic and zero-point Energies=           -100.961465
 Sum of electronic and thermal Energies=              -100.959104
 Sum of electronic and thermal Enthalpies=            -100.958160
 Sum of electronic and thermal Free Energies=         -100.981372

                     E (Thermal)             CV                S
                      KCal/Mol        Cal/Mol-Kelvin    Cal/Mol-Kelvin
 Total                    7.815              4.968             48.853
 Electronic               0.000              0.000              1.377
 Translational            0.889              2.981             35.068
 Rotational               0.592              1.987             12.407
 Vibrational              6.334              0.000              0.000

 Normal termination of Gaussian 16 at Fri Aug 22 15:56:30 2025.
