 Gaussian 16, Revision C.01,
 Gaussian 16:  ES64L-G16RevC.01  3-Jul-2019

 -----------------------------------------
 # sp b3lyp/6-311g** Force nosymm scf=(qc)
 -----------------------------------------

 -------------------
 Title Card Required
 -------------------
 Symbolic Z-matrix:
 Charge =  0 Multiplicity = 2

                          Input orientation:
 ---------------------------------------------------------------------
 Center     Atomic      Atomic             Coordinates (Angstroms)
 Number     Number       Type             X           Y           Z
 ---------------------------------------------------------------------
      1          1           0        0.000000    0.000000    0.000000
      2          1           0       -0.850000    0.000000    0.000000
      3          9           0        2.950000    0.000000    0.000000
 ---------------------------------------------------------------------

 SCF Done:  E(UB3LYP) =  -100.928411633     a.u. after  112 cycles

 Alpha  occ. eigenvalues --  -24.76665  -1.22470  -0.55660  -0.46930  -0.46809
 Alpha  occ. eigenvalues --   -0.41073
 Alpha virt. eigenvalues --    0.04055   0.20641   0.43671   0.85809   0.90681
 Alpha virt. eigenvalues --    0.93794   1.05872   1.08382   1.08389   1.49273
 Alpha virt. eigenvalues --    1.75725   1.75733   2.13536   2.38728   2.87773

  Beta  occ. eigenvalues --  -24.73503  -1.13382  -0.43821  -0.43639  -0.41009
  Beta virt. eigenvalues --   -0.26281   0.04095   0.20671   0.43770   0.92179
  Beta virt. eigenvalues --    0.95265   0.95611   1.08382   1.08388   1.09558
  Beta virt. eigenvalues --    1.49283   1.75724   1.75732   2.13558   2.38735

 Mulliken charges and spin densities:
               1          2
     1  H   -0.004712  -0.001045
     2  H   -0.004934  -0.000242
     3  F    0.009646   1.001288
 Sum of Mulliken charges =   0.00000   1.00000

 Dipole moment (field-independent basis, Debye):
    X=              0.1019    Y=             -0.0000    Z=             -0.0000  Tot=              0.1019
 Quadrupole moment (field-independent basis, Debye-Ang):
   XX=             -6.0944   YY=             -6.6632   ZZ=             -6.6623
   XY=              0.0000   XZ=              0.0000   YZ=              0.4317

  Exact polarizability:      10.144       0.000       2.241       0.000       0.229       2.242
 Approx polarizability:      12.103       0.000       2.370       0.000       0.289       2.370

                      1                      2                      3
                      A                      A                      A
 Frequencies --     59.8851              1329.8288              1330.0470
 Red. masses --      1.1085                 1.0094                 1.0094
 Frc consts  --      0.0023                 1.0517                 1.0521
 IR Inten    --      0.3377                 0.0030                 0.0031

                      4
                      A
 Frequencies --   3136.7447
 Red. masses --      1.0078
 Frc consts  --      5.8424
 IR Inten    --      0.6739

 - Thermochemistry -
 -------------------
 Temperature   298.150 Kelvin.  Pressure   1.00000 Atm.
 Atom     1 has atomic number  1 and mass   1.00783

 Molecular mass:    21.01405 amu.
 Principal axes and moments of inertia in atomic units:
                           1         2         3
     Eigenvalues --     0.00000  75.42565  75.42565
           X            1.00000  -0.00000   0.00000
           Y            0.00000   1.00000   0.00000
           Z            0.00000   0.00000   1.00000
 This molecule is a prolate symmetric top.
 Rotational symmetry number  1.
 Rotational temperature (Kelvin)      1.14834
 Rotational constant (GHZ):          23.927419
 Zero-point vibrational energy      35029.7 (Joules/Mol)
                                    8.37230 (Kcal/Mol)
 Warning -- explicit consideration of   1 degrees of freedom as
           vibrations may cause significant error
 Vibrational temperatures:     86.16  1913.33  1913.64  4513.08
          (Kelvin)

 Zero-point correction=                           0.013342 (Hartree/Particle)
 Thermal correction to Energy=                    0.016537
 Thermal correction to Enthalpy=                  0.017481
 Thermal correction to Gibbs Free Energy=        -0.008171
 Sum of electronic and zero-point Energies=           -100.915070
 Sum of electronic and thermal Energies=              -100.911875
 Sum of electronic and thermal Enthalpies=            -100.910931
 Sum of electronic and thermal Free Energies=         -100.936583

                     E (Thermal)             CV                S
                      KCal/Mol        Cal/Mol-Kelvin    Cal/Mol-Kelvin
 Total                   10.377              7.210             53.989
 Electronic               0.000              0.000              1.377
 Translational            0.889              2.981             35.068
 Rotational               0.592              1.987             13.035
 Vibrational              8.896              2.242              4.509
 Vibration     1          0.597              1.973              4.461

 Normal termination of Gaussian 16 at Fri Aug 22 19:11:29 2025.
