 Gaussian 16, Revision C.01,
 Gaussian 16:  ES64L-G16RevC.01  3-Jul-2019

 -----------------------------------------
 # sp b3lyp/6-311g** Force nosymm scf=(qc)
 -----------------------------------------

 -------------------
 Title Card Required
 -------------------
 Symbolic Z-matrix:
 Charge =  0 Multiplicity = 2

                          Input orientation:
 ---------------------------------------------------------------------
 Center     Atomic      Atomic             Coordinates (Angstroms)
 Number     Number       Type             X           Y           Z
 ---------------------------------------------------------------------
      1          1           0        0.000000    0.000000    0.000000
      2          1           0       -3.900000    0.000000    0.000000
      3          9           0        4.000000    0.000000    0.000000
 ---------------------------------------------------------------------

 SCF Done:  E(UB3LYP) =  -100.758401672     a.u. after   51 cycles

 Alpha  occ. eigenvalues --  -24.75877  -1.21805  -0.55002  -0.46181  -0.46181
 Alpha  occ. eigenvalues --   -0.32228
 Alpha virt. eigenvalues --   -0.06076   0.24200   0.37922   0.86561   0.91172
 Alpha virt. eigenvalues --    0.91172   1.01083   1.25267   1.25267   1.25299
 Alpha virt. eigenvalues --    1.46307   1.46439   1.46439   2.14661   2.42179

  Beta  occ. eigenvalues --  -24.72732  -1.12760  -0.43027  -0.43027  -0.32427
  Beta virt. eigenvalues --   -0.25729  -0.05890   0.24041   0.38220   0.92671
  Beta virt. eigenvalues --    0.92671   0.95938   1.05210   1.25054   1.25054
  Beta virt. eigenvalues --    1.25072   1.46609   1.46722   1.46722   2.14626

 Mulliken charges and spin densities:
               1          2
     1  H    0.002418  -0.996483
     2  H    0.000022   0.999194
     3  F   -0.002440   0.997290
 Sum of Mulliken charges =  -0.00000   1.00000

 Dipole moment (field-independent basis, Debye):
    X=             -0.0511    Y=             -0.0000    Z=              0.0000  Tot=              0.0511
 Quadrupole moment (field-independent basis, Debye-Ang):
   XX=             -6.9230   YY=             -7.6196   ZZ=             -7.6196
   XY=             -0.0000   XZ=              0.0000   YZ=              0.0000

  Exact polarizability:      10.143      -0.000       2.035       0.000      -0.000       2.035
 Approx polarizability:       7.574      -0.000       1.937       0.000       0.000       1.937

 ******    2 imaginary frequencies (negative Signs) ******

                      1                      2                      3
                      A                      A                      A
 Frequencies --   -140.3555               -60.0032                44.6716
 Red. masses --      1.0210                 1.0930                 1.0176
 Frc consts  --      0.0119                 0.0023                 0.0012
 IR Inten    --      0.9624                 0.1977                 0.0057

                      4
                      A
 Frequencies --     44.6716
 Red. masses --      1.0176
 Frc consts  --      0.0012
 IR Inten    --      0.0057

 - Thermochemistry -
 -------------------
 Temperature   298.150 Kelvin.  Pressure   1.00000 Atm.
 Atom     1 has atomic number  1 and mass   1.00783

 Molecular mass:    21.01405 amu.
 Principal axes and moments of inertia in atomic units:
                           1         2         3
     Eigenvalues --     0.00000 257.75539 257.75539
           X            1.00000  -0.00000   0.00000
           Y            0.00000   1.00000   0.00000
           Z            0.00000   0.00000   1.00000
 This molecule is a prolate symmetric top.
 Rotational symmetry number  1.
 Rotational temperature (Kelvin)      0.33603
 Rotational constant (GHZ):           7.001759
    2 imaginary frequencies ignored.
 Zero-point vibrational energy        534.4 (Joules/Mol)
                                    0.12772 (Kcal/Mol)
 Warning -- explicit consideration of   2 degrees of freedom as
           vibrations may cause significant error
 Vibrational temperatures:     64.27    64.27
          (Kelvin)

 Zero-point correction=                           0.000204 (Hartree/Particle)
 Thermal correction to Energy=                    0.004256
 Thermal correction to Enthalpy=                  0.005200
 Thermal correction to Gibbs Free Energy=        -0.024259
 Sum of electronic and zero-point Energies=           -100.758198
 Sum of electronic and thermal Energies=              -100.754146
 Sum of electronic and thermal Enthalpies=            -100.753201
 Sum of electronic and thermal Free Energies=         -100.782661

                     E (Thermal)             CV                S
                      KCal/Mol        Cal/Mol-Kelvin    Cal/Mol-Kelvin
 Total                    2.671              8.927             62.003
 Electronic               0.000              0.000              1.377
 Translational            0.889              2.981             35.068
 Rotational               0.592              1.987             15.477
 Vibrational              1.190              3.959             10.081
 Vibration     1          0.595              1.980              5.040
 Vibration     2          0.595              1.980              5.040

 Normal termination of Gaussian 16 at Sat Aug 23 01:59:21 2025.
