 Gaussian 16, Revision C.01,
 Gaussian 16:  ES64L-G16RevC.01  3-Jul-2019

 -----------------------------------------
 # sp b3lyp/6-311g** Force nosymm scf=(qc)
 -----------------------------------------

 -------------------
 Title Card Required
 -------------------
 Symbolic Z-matrix:
 Charge =  0 Multiplicity = 2

                          Input orientation:
 ---------------------------------------------------------------------
 Center     Atomic      Atomic             Coordinates (Angstroms)
 Number     Number       Type             X           Y           Z
 ---------------------------------------------------------------------
      1          1           0        0.000000    0.000000    0.000000
      2          1           0       -2.150000    0.000000    0.000000
      3          9           0        1.350000    0.000000    0.000000
 ---------------------------------------------------------------------

 SCF Done:  E(UB3LYP) =  -100.891697175     a.u. after    8 cycles

 Alpha  occ. eigenvalues --  -24.63804  -1.10350  -0.45406  -0.36467  -0.36423
 Alpha  occ. eigenvalues --   -0.36423
 Alpha virt. eigenvalues --   -0.08569   0.23823   0.27187   0.93515   0.93515
 Alpha virt. eigenvalues --    1.02843   1.12380   1.20880   1.20880   1.33872
 Alpha virt. eigenvalues --    1.34082   1.34082   1.71601   2.10822   2.26347

  Beta  occ. eigenvalues --  -24.63593  -1.09807  -0.44507  -0.36227  -0.36227
  Beta virt. eigenvalues --   -0.15313  -0.04626   0.26807   0.34290   0.93478
  Beta virt. eigenvalues --    0.93478   1.03371   1.17318   1.33281   1.33281
  Beta virt. eigenvalues --    1.40278   1.40278   1.47206   1.71742   2.21456

 Mulliken charges and spin densities:
               1          2
     1  H    0.336774  -0.028428
     2  H    0.027856   0.963681
     3  F   -0.364630   0.064747
 Sum of Mulliken charges =  -0.00000   1.00000

 Dipole moment (field-independent basis, Debye):
    X=             -2.7704    Y=              0.0000    Z=              0.0000  Tot=              2.7704
 Quadrupole moment (field-independent basis, Debye-Ang):
   XX=             -8.6983   YY=             -7.2127   ZZ=             -7.2127
   XY=              0.0000   XZ=              0.0000   YZ=             -0.0000

  Exact polarizability:      19.490       0.000       2.294       0.000       0.000       2.294
 Approx polarizability:      26.883       0.000       2.239      -0.000       0.000       2.239

 ******    2 imaginary frequencies (negative Signs) ******

                      1                      2                      3
                      A                      A                      A
 Frequencies --  -1163.2266              -242.8238              1093.7328
 Red. masses --      1.0372                 1.0750                 1.0244
 Frc consts  --      0.8269                 0.0373                 0.7220
 IR Inten    --    195.5527                 0.0075                98.7980

                      4
                      A
 Frequencies --   1093.7328
 Red. masses --      1.0244
 Frc consts  --      0.7220
 IR Inten    --     98.7980

 - Thermochemistry -
 -------------------
 Temperature   298.150 Kelvin.  Pressure   1.00000 Atm.
 Atom     1 has atomic number  1 and mass   1.00783

 Molecular mass:    21.01405 amu.
 Principal axes and moments of inertia in atomic units:
                           1         2         3
     Eigenvalues --     0.00000  46.58690  46.58690
           X            1.00000  -0.00000   0.00000
           Y            0.00000   1.00000   0.00000
           Z            0.00000   0.00000   1.00000
 This molecule is a prolate symmetric top.
 Rotational symmetry number  1.
 Rotational temperature (Kelvin)      1.85919
 Rotational constant (GHZ):          38.739241
    2 imaginary frequencies ignored.
 Zero-point vibrational energy      13083.9 (Joules/Mol)
                                    3.12714 (Kcal/Mol)
 Vibrational temperatures:   1573.64  1573.64
          (Kelvin)

 Zero-point correction=                           0.004983 (Hartree/Particle)
 Thermal correction to Energy=                    0.007395
 Thermal correction to Enthalpy=                  0.008339
 Thermal correction to Gibbs Free Energy=        -0.014776
 Sum of electronic and zero-point Energies=           -100.886714
 Sum of electronic and thermal Energies=              -100.884302
 Sum of electronic and thermal Enthalpies=            -100.883358
 Sum of electronic and thermal Free Energies=         -100.906473

                     E (Thermal)             CV                S
                      KCal/Mol        Cal/Mol-Kelvin    Cal/Mol-Kelvin
 Total                    4.640              5.539             48.650
 Electronic               0.000              0.000              1.377
 Translational            0.889              2.981             35.068
 Rotational               0.592              1.987             12.077
 Vibrational              3.159              0.571              0.128

 Normal termination of Gaussian 16 at Fri Aug 22 16:17:42 2025.
