 Gaussian 16, Revision C.01,
 Gaussian 16:  ES64L-G16RevC.01  3-Jul-2019

 -----------------------------------------
 # sp b3lyp/6-311g** Force nosymm scf=(qc)
 -----------------------------------------

 -------------------
 Title Card Required
 -------------------
 Symbolic Z-matrix:
 Charge =  0 Multiplicity = 2

                          Input orientation:
 ---------------------------------------------------------------------
 Center     Atomic      Atomic             Coordinates (Angstroms)
 Number     Number       Type             X           Y           Z
 ---------------------------------------------------------------------
      1          1           0        0.000000    0.000000    0.000000
      2          1           0       -3.500000    0.000000    0.000000
      3          9           0        2.350000    0.000000    0.000000
 ---------------------------------------------------------------------

 SCF Done:  E(UB3LYP) =  -100.771309622     a.u. after   14 cycles

 Alpha  occ. eigenvalues --  -24.70805  -1.17071  -0.49891  -0.41930  -0.41930
 Alpha  occ. eigenvalues --   -0.33045
 Alpha virt. eigenvalues --   -0.11208   0.23226   0.34564   0.89028   0.94076
 Alpha virt. eigenvalues --    0.94076   1.06275   1.24467   1.24467   1.24620
 Alpha virt. eigenvalues --    1.39083   1.39083   1.47263   2.14346   2.34714

  Beta  occ. eigenvalues --  -24.68056  -1.09276  -0.39195  -0.39195  -0.36019
  Beta virt. eigenvalues --   -0.22708  -0.06820   0.23691   0.37891   0.93731
  Beta virt. eigenvalues --    0.95342   0.95342   1.08361   1.21704   1.21704
  Beta virt. eigenvalues --    1.34958   1.45686   1.45939   1.45939   2.12195

 Mulliken charges and spin densities:
               1          2
     1  H    0.113650  -0.865233
     2  H    0.001077   0.997871
     3  F   -0.114727   0.867361
 Sum of Mulliken charges =  -0.00000   1.00000

 Dipole moment (field-independent basis, Debye):
    X=             -1.3804    Y=              0.0000    Z=              0.0000  Tot=              1.3804
 Quadrupole moment (field-independent basis, Debye-Ang):
   XX=             -9.5608   YY=             -7.5519   ZZ=             -7.5519
   XY=              0.0000   XZ=              0.0000   YZ=             -0.0000

  Exact polarizability:      29.688       0.000       2.030       0.000      -0.000       2.030
 Approx polarizability:      39.095       0.000       1.922       0.000       0.000       1.922

 ******    2 imaginary frequencies (negative Signs) ******

                      1                      2                      3
                      A                      A                      A
 Frequencies --   -727.5107              -120.8382               294.4131
 Red. masses --      1.0554                 1.0562                 1.0234
 Frc consts  --      0.3291                 0.0091                 0.0523
 IR Inten    --     93.0711                 0.2601                12.3032

                      4
                      A
 Frequencies --    294.4131
 Red. masses --      1.0234
 Frc consts  --      0.0523
 IR Inten    --     12.3032

 - Thermochemistry -
 -------------------
 Temperature   298.150 Kelvin.  Pressure   1.00000 Atm.
 Atom     1 has atomic number  1 and mass   1.00783

 Molecular mass:    21.01405 amu.
 Principal axes and moments of inertia in atomic units:
                           1         2         3
     Eigenvalues --     0.00000 131.43651 131.43651
           X            1.00000  -0.00000   0.00000
           Y            0.00000   1.00000   0.00000
           Z            0.00000   0.00000   1.00000
 This molecule is a prolate symmetric top.
 Rotational symmetry number  1.
 Rotational temperature (Kelvin)      0.65898
 Rotational constant (GHZ):          13.730898
    2 imaginary frequencies ignored.
 Zero-point vibrational energy       3522.0 (Joules/Mol)
                                    0.84177 (Kcal/Mol)
 Warning -- explicit consideration of   2 degrees of freedom as
           vibrations may cause significant error
 Vibrational temperatures:    423.59   423.59
          (Kelvin)

 Zero-point correction=                           0.001341 (Hartree/Particle)
 Thermal correction to Energy=                    0.004556
 Thermal correction to Enthalpy=                  0.005500
 Thermal correction to Gibbs Free Energy=        -0.019910
 Sum of electronic and zero-point Energies=           -100.769968
 Sum of electronic and thermal Energies=              -100.766753
 Sum of electronic and thermal Enthalpies=            -100.765809
 Sum of electronic and thermal Free Energies=         -100.791220

                     E (Thermal)             CV                S
                      KCal/Mol        Cal/Mol-Kelvin    Cal/Mol-Kelvin
 Total                    2.859              8.336             53.481
 Electronic               0.000              0.000              1.377
 Translational            0.889              2.981             35.068
 Rotational               0.592              1.987             14.138
 Vibrational              1.378              3.368              2.897
 Vibration     1          0.689              1.684              1.448
 Vibration     2          0.689              1.684              1.448

 Normal termination of Gaussian 16 at Fri Aug 22 17:27:44 2025.
