 Gaussian 16, Revision C.01,
 Gaussian 16:  ES64L-G16RevC.01  3-Jul-2019

 -----------------------------------------
 # sp b3lyp/6-311g** Force nosymm scf=(qc)
 -----------------------------------------

 -------------------
 Title Card Required
 -------------------
 Symbolic Z-matrix:
 Charge =  0 Multiplicity = 2

                          Input orientation:
 ---------------------------------------------------------------------
 Center     Atomic      Atomic             Coordinates (Angstroms)
 Number     Number       Type             X           Y           Z
 ---------------------------------------------------------------------
      1          1           0        0.000000    0.000000    0.000000
      2          1           0       -3.050000    0.000000    0.000000
      3          9           0        2.350000    0.000000    0.000000
 ---------------------------------------------------------------------

 SCF Done:  E(UB3LYP) =  -100.732597274     a.u. after   16 cycles

 Alpha  occ. eigenvalues --  -24.64690  -1.08811  -0.39562  -0.36221  -0.35113
 Alpha  occ. eigenvalues --   -0.33606
 Alpha virt. eigenvalues --   -0.25171   0.20771   0.27292   0.93047   0.97982
 Alpha virt. eigenvalues --    0.97986   1.10119   1.22053   1.22061   1.22687
 Alpha virt. eigenvalues --    1.22687   1.23168   1.35409   2.13066   2.13651

  Beta  occ. eigenvalues --  -24.64685  -1.08800  -0.39514  -0.36217  -0.33875
  Beta virt. eigenvalues --   -0.25108  -0.08919   0.24126   0.35918   0.93220
  Beta virt. eigenvalues --    0.97986   0.97994   1.10257   1.22394   1.22402
  Beta virt. eigenvalues --    1.35326   1.43337   1.43337   1.43482   2.13948

 Mulliken charges and spin densities:
               1          2
     1  H    0.217472   0.018908
     2  H    0.018742   0.979882
     3  F   -0.236213   0.001210
 Sum of Mulliken charges =   0.00000   1.00000

 Dipole moment (field-independent basis, Debye):
    X=             -3.1265    Y=              0.0004    Z=              0.0002  Tot=              3.1265
 Quadrupole moment (field-independent basis, Debye-Ang):
   XX=            -12.2054   YY=             -7.5306   ZZ=             -7.6022
   XY=              0.0003   XZ=              0.0002   YZ=              0.0601

  Exact polarizability:      62.570      -0.005       1.994      -0.004       0.082       1.897
 Approx polarizability:     230.266      -0.034       1.942      -0.019       0.041       1.893

 ******    2 imaginary frequencies (negative Signs) ******

                      1                      2                      3
                      A                      A                      A
 Frequencies --   -964.9531              -213.1335               471.5908
 Red. masses --      1.0517                 1.0599                 1.0214
 Frc consts  --      0.5770                 0.0284                 0.1338
 IR Inten    --     34.3212                16.0071                43.2628

                      4
                      A
 Frequencies --    472.7334
 Red. masses --      1.0214
 Frc consts  --      0.1345
 IR Inten    --     42.3504

 - Thermochemistry -
 -------------------
 Temperature   298.150 Kelvin.  Pressure   1.00000 Atm.
 Atom     1 has atomic number  1 and mass   1.00783

 Molecular mass:    21.01405 amu.
 Principal axes and moments of inertia in atomic units:
                           1         2         3
     Eigenvalues --     0.00000 114.45541 114.45541
           X            1.00000  -0.00000   0.00000
           Y            0.00000   1.00000   0.00000
           Z            0.00000   0.00000   1.00000
 This molecule is a prolate symmetric top.
 Rotational symmetry number  1.
 Rotational temperature (Kelvin)      0.75675
 Rotational constant (GHZ):          15.768072
    2 imaginary frequencies ignored.
 Zero-point vibrational energy       5648.3 (Joules/Mol)
                                    1.34998 (Kcal/Mol)
 Warning -- explicit consideration of   2 degrees of freedom as
           vibrations may cause significant error
 Vibrational temperatures:    678.51   680.16
          (Kelvin)

 Zero-point correction=                           0.002151 (Hartree/Particle)
 Thermal correction to Energy=                    0.005003
 Thermal correction to Enthalpy=                  0.005947
 Thermal correction to Gibbs Free Energy=        -0.018651
 Sum of electronic and zero-point Energies=           -100.730446
 Sum of electronic and thermal Energies=              -100.727594
 Sum of electronic and thermal Enthalpies=            -100.726650
 Sum of electronic and thermal Free Energies=         -100.751249

                     E (Thermal)             CV                S
                      KCal/Mol        Cal/Mol-Kelvin    Cal/Mol-Kelvin
 Total                    3.139              7.592             51.772
 Electronic               0.000              0.000              1.377
 Translational            0.889              2.981             35.068
 Rotational               0.592              1.987             13.863
 Vibrational              1.658              2.624              1.463
 Vibration     1          0.829              1.313              0.733
 Vibration     2          0.830              1.311              0.730

 Normal termination of Gaussian 16 at Fri Aug 22 17:27:20 2025.
