 Gaussian 16, Revision C.01,
 Gaussian 16:  ES64L-G16RevC.01  3-Jul-2019

 -----------------------------------------
 # sp b3lyp/6-311g** Force nosymm scf=(qc)
 -----------------------------------------

 -------------------
 Title Card Required
 -------------------
 Symbolic Z-matrix:
 Charge =  0 Multiplicity = 2

                          Input orientation:
 ---------------------------------------------------------------------
 Center     Atomic      Atomic             Coordinates (Angstroms)
 Number     Number       Type             X           Y           Z
 ---------------------------------------------------------------------
      1          1           0        0.000000    0.000000    0.000000
      2          1           0       -2.450000    0.000000    0.000000
      3          9           0        0.800000    0.000000    0.000000
 ---------------------------------------------------------------------

 SCF Done:  E(UB3LYP) =  -100.950557069     a.u. after    6 cycles

 Alpha  occ. eigenvalues --  -24.63594  -1.22964  -0.56164  -0.40573  -0.40573
 Alpha  occ. eigenvalues --   -0.34732
 Alpha virt. eigenvalues --    0.06642   0.25346   0.45746   0.94277   0.94277
 Alpha virt. eigenvalues --    0.96842   1.17790   1.22819   1.22819   1.39894
 Alpha virt. eigenvalues --    1.39894   1.42238   2.02368   2.14369   2.53177

  Beta  occ. eigenvalues --  -24.63581  -1.22928  -0.56108  -0.40562  -0.40562
  Beta virt. eigenvalues --   -0.09025   0.08185   0.37460   0.45794   0.94277
  Beta virt. eigenvalues --    0.94277   0.97002   1.27982   1.39866   1.39866
  Beta virt. eigenvalues --    1.44860   1.44860   1.55451   2.02471   2.42039

 Mulliken charges and spin densities:
               1          2
     1  H    0.269597   0.003957
     2  H    0.005610   0.991690
     3  F   -0.275207   0.004353
 Sum of Mulliken charges =   0.00000   1.00000

 Dipole moment (field-independent basis, Debye):
    X=             -1.8045    Y=             -0.0000    Z=              0.0000  Tot=              1.8045
 Quadrupole moment (field-independent basis, Debye-Ang):
   XX=             -7.3954   YY=             -6.7603   ZZ=             -6.7603
   XY=             -0.0000   XZ=              0.0000   YZ=              0.0000

  Exact polarizability:       6.455       0.000       2.473      -0.000       0.000       2.473
 Approx polarizability:       6.760       0.000       2.459      -0.000       0.000       2.459

 ******    2 imaginary frequencies (negative Signs) ******

                      1                      2                      3
                      A                      A                      A
 Frequencies --  -1959.0669             -1959.0669                95.3168
 Red. masses --      1.0349                 1.0349                 1.0532
 Frc consts  --      2.3402                 2.3402                 0.0056
 IR Inten    --    180.2658               180.2658                 0.4073

                      4
                      A
 Frequencies --   6346.2162
 Red. masses --      1.0583
 Frc consts  --     25.1134
 IR Inten    --    129.8255

 - Thermochemistry -
 -------------------
 Temperature   298.150 Kelvin.  Pressure   1.00000 Atm.
 Atom     1 has atomic number  1 and mass   1.00783

 Molecular mass:    21.01405 amu.
 Principal axes and moments of inertia in atomic units:
                           1         2         3
     Eigenvalues --     0.00000  37.48671  37.48671
           X            1.00000  -0.00000   0.00000
           Y            0.00000   1.00000   0.00000
           Z            0.00000   0.00000   1.00000
 This molecule is a prolate symmetric top.
 Rotational symmetry number  1.
 Rotational temperature (Kelvin)      2.31052
 Rotational constant (GHZ):          48.143496
    2 imaginary frequencies ignored.
 Zero-point vibrational energy      38528.9 (Joules/Mol)
                                    9.20863 (Kcal/Mol)
 Warning -- explicit consideration of   1 degrees of freedom as
           vibrations may cause significant error
 Vibrational temperatures:    137.14  9130.79
          (Kelvin)

 Zero-point correction=                           0.014675 (Hartree/Particle)
 Thermal correction to Energy=                    0.017779
 Thermal correction to Enthalpy=                  0.018723
 Thermal correction to Gibbs Free Energy=        -0.005812
 Sum of electronic and zero-point Energies=           -100.935882
 Sum of electronic and thermal Energies=              -100.932778
 Sum of electronic and thermal Enthalpies=            -100.931834
 Sum of electronic and thermal Free Energies=         -100.956369

                     E (Thermal)             CV                S
                      KCal/Mol        Cal/Mol-Kelvin    Cal/Mol-Kelvin
 Total                   11.156              6.921             51.639
 Electronic               0.000              0.000              1.377
 Translational            0.889              2.981             35.068
 Rotational               0.592              1.987             11.645
 Vibrational              9.675              1.953              3.548
 Vibration     1          0.603              1.953              3.548

 Normal termination of Gaussian 16 at Fri Aug 22 15:51:24 2025.
