 Gaussian 16, Revision C.01,
 Gaussian 16:  ES64L-G16RevC.01  3-Jul-2019

 -----------------------------------------
 # sp b3lyp/6-311g** Force nosymm scf=(qc)
 -----------------------------------------

 -------------------
 Title Card Required
 -------------------
 Symbolic Z-matrix:
 Charge =  0 Multiplicity = 2

                          Input orientation:
 ---------------------------------------------------------------------
 Center     Atomic      Atomic             Coordinates (Angstroms)
 Number     Number       Type             X           Y           Z
 ---------------------------------------------------------------------
      1          1           0        0.000000    0.000000    0.000000
      2          1           0       -2.800000    0.000000    0.000000
      3          9           0        2.200000    0.000000    0.000000
 ---------------------------------------------------------------------

 SCF Done:  E(UB3LYP) =  -100.746346532     a.u. after   15 cycles

 Alpha  occ. eigenvalues --  -24.64130  -1.08310  -0.38987  -0.35818  -0.35728
 Alpha  occ. eigenvalues --   -0.33910
 Alpha virt. eigenvalues --   -0.24151   0.21219   0.26920   0.91434   0.97972
 Alpha virt. eigenvalues --    0.98014   1.09921   1.22018   1.22019   1.22500
 Alpha virt. eigenvalues --    1.22508   1.23191   1.42784   2.12892   2.14040

  Beta  occ. eigenvalues --  -24.64135  -1.08328  -0.38874  -0.35734  -0.34251
  Beta virt. eigenvalues --   -0.24151  -0.09744   0.24727   0.35013   0.91721
  Beta virt. eigenvalues --    0.97982   0.98022   1.10126   1.23073   1.23081
  Beta virt. eigenvalues --    1.40832   1.42055   1.42055   1.44710   2.14848

 Mulliken charges and spin densities:
               1          2
     1  H    0.231116   0.032085
     2  H    0.027778   0.969977
     3  F   -0.258894  -0.002062
 Sum of Mulliken charges =  -0.00000   1.00000

 Dipole moment (field-independent basis, Debye):
    X=             -3.2853    Y=              0.0006    Z=             -0.0002  Tot=              3.2853
 Quadrupole moment (field-independent basis, Debye-Ang):
   XX=            -11.5651   YY=             -7.5264   ZZ=             -7.5912
   XY=             -0.0000   XZ=              0.0000   YZ=             -0.0311

  Exact polarizability:      59.845      -0.007       2.101      -0.003       0.187       2.490
 Approx polarizability:     176.911      -0.040       1.933       0.016      -0.020       1.891

 ******    2 imaginary frequencies (negative Signs) ******

                      1                      2                      3
                      A                      A                      A
 Frequencies --  -1109.0756              -260.4587               502.8380
 Red. masses --      1.0503                 1.0614                 1.0211
 Frc consts  --      0.7611                 0.0424                 0.1521
 IR Inten    --     36.6931                23.2966                61.9418

                      4
                      A
 Frequencies --    547.2537
 Red. masses --      1.0211
 Frc consts  --      0.1802
 IR Inten    --     47.0328

 - Thermochemistry -
 -------------------
 Temperature   298.150 Kelvin.  Pressure   1.00000 Atm.
 Atom     1 has atomic number  1 and mass   1.00783

 Molecular mass:    21.01405 amu.
 Principal axes and moments of inertia in atomic units:
                           1         2         3
     Eigenvalues --     0.00000  98.44647  98.44647
           X            1.00000  -0.00000   0.00000
           Y            0.00000   1.00000   0.00000
           Z            0.00000   0.00000   1.00000
 This molecule is a prolate symmetric top.
 Rotational symmetry number  1.
 Rotational temperature (Kelvin)      0.87981
 Rotational constant (GHZ):          18.332208
    2 imaginary frequencies ignored.
 Zero-point vibrational energy       6280.9 (Joules/Mol)
                                    1.50118 (Kcal/Mol)
 Warning -- explicit consideration of   2 degrees of freedom as
           vibrations may cause significant error
 Vibrational temperatures:    723.47   787.38
          (Kelvin)

 Zero-point correction=                           0.002392 (Hartree/Particle)
 Thermal correction to Energy=                    0.005166
 Thermal correction to Enthalpy=                  0.006110
 Thermal correction to Gibbs Free Energy=        -0.018221
 Sum of electronic and zero-point Energies=           -100.743954
 Sum of electronic and thermal Energies=              -100.741180
 Sum of electronic and thermal Enthalpies=            -100.740236
 Sum of electronic and thermal Free Energies=         -100.764568

                     E (Thermal)             CV                S
                      KCal/Mol        Cal/Mol-Kelvin    Cal/Mol-Kelvin
 Total                    3.242              7.357             51.210
 Electronic               0.000              0.000              1.377
 Translational            0.889              2.981             35.068
 Rotational               0.592              1.987             13.564
 Vibrational              1.761              2.389              1.201
 Vibration     1          0.858              1.244              0.651
 Vibration     2          0.902              1.146              0.550

 Normal termination of Gaussian 16 at Fri Aug 22 17:12:24 2025.
