 Gaussian 16, Revision C.01,
 Gaussian 16:  ES64L-G16RevC.01  3-Jul-2019

 -----------------------------------------
 # sp b3lyp/6-311g** Force nosymm scf=(qc)
 -----------------------------------------

 -------------------
 Title Card Required
 -------------------
 Symbolic Z-matrix:
 Charge =  0 Multiplicity = 2

                          Input orientation:
 ---------------------------------------------------------------------
 Center     Atomic      Atomic             Coordinates (Angstroms)
 Number     Number       Type             X           Y           Z
 ---------------------------------------------------------------------
      1          1           0        0.000000    0.000000    0.000000
      2          1           0       -1.050000    0.000000    0.000000
      3          9           0        1.700000    0.000000    0.000000
 ---------------------------------------------------------------------

 SCF Done:  E(UB3LYP) =  -100.909523320     a.u. after   11 cycles

 Alpha  occ. eigenvalues --  -24.70696  -1.17283  -0.52035  -0.42073  -0.42073
 Alpha  occ. eigenvalues --   -0.40984
 Alpha virt. eigenvalues --    0.00463   0.20639   0.34635   0.90887   0.90887
 Alpha virt. eigenvalues --    0.95679   1.07823   1.07823   1.10535   1.57577
 Alpha virt. eigenvalues --    1.60370   1.60370   2.19326   2.30234   2.56118

  Beta  occ. eigenvalues --  -24.68112  -1.10083  -0.42071  -0.39533  -0.39533
  Beta virt. eigenvalues --   -0.24190   0.02559   0.21918   0.35707   0.91916
  Beta virt. eigenvalues --    0.91916   1.02461   1.10035   1.10035   1.13206
  Beta virt. eigenvalues --    1.61009   1.61676   1.61676   2.21408   2.33182

 Mulliken charges and spin densities:
               1          2
     1  H    0.095417  -0.104137
     2  H    0.053523   0.304004
     3  F   -0.148940   0.800133
 Sum of Mulliken charges =   0.00000   1.00000

 Dipole moment (field-independent basis, Debye):
    X=             -1.4839    Y=              0.0000    Z=              0.0000  Tot=              1.4839
 Quadrupole moment (field-independent basis, Debye-Ang):
   XX=             -7.1183   YY=             -7.1513   ZZ=             -7.1513
   XY=              0.0000   XZ=              0.0000   YZ=             -0.0000

  Exact polarizability:      32.416       0.000       2.278       0.000       0.000       2.278
 Approx polarizability:      46.781      -0.000       2.276      -0.000       0.000       2.276

 ******    1 imaginary frequencies (negative Signs) ******

                      1                      2                      3
                      A                      A                      A
 Frequencies --  -1341.7087               810.1266              1363.2668
 Red. masses --      1.0490                 1.0627                 1.0132
 Frc consts  --      1.1126                 0.4109                 1.1094
 IR Inten    --    935.4564               185.3484                 1.0498

                      4
                      A
 Frequencies --   1363.2668
 Red. masses --      1.0132
 Frc consts  --      1.1094
 IR Inten    --      1.0498

 - Thermochemistry -
 -------------------
 Temperature   298.150 Kelvin.  Pressure   1.00000 Atm.
 Atom     1 has atomic number  1 and mass   1.00783

 Molecular mass:    21.01405 amu.
 Principal axes and moments of inertia in atomic units:
                           1         2         3
     Eigenvalues --     0.00000  34.20059  34.20059
           X            1.00000  -0.00000   0.00000
           Y            0.00000   1.00000   0.00000
           Z            0.00000   0.00000   1.00000
 This molecule is a prolate symmetric top.
 Rotational symmetry number  1.
 Rotational temperature (Kelvin)      2.53253
 Rotational constant (GHZ):          52.769303
    1 imaginary frequencies ignored.
 Zero-point vibrational energy      21153.9 (Joules/Mol)
                                    5.05591 (Kcal/Mol)
 Vibrational temperatures:   1165.59  1961.44  1961.44
          (Kelvin)

 Zero-point correction=                           0.008057 (Hartree/Particle)
 Thermal correction to Energy=                    0.010510
 Thermal correction to Enthalpy=                  0.011455
 Thermal correction to Gibbs Free Energy=        -0.011423
 Sum of electronic and zero-point Energies=           -100.901466
 Sum of electronic and thermal Energies=              -100.899013
 Sum of electronic and thermal Enthalpies=            -100.898069
 Sum of electronic and thermal Free Energies=         -100.920946

                     E (Thermal)             CV                S
                      KCal/Mol        Cal/Mol-Kelvin    Cal/Mol-Kelvin
 Total                    6.595              5.842             48.150
 Electronic               0.000              0.000              1.377
 Translational            0.889              2.981             35.068
 Rotational               0.592              1.987             11.463
 Vibrational              5.114              0.874              0.241

 Normal termination of Gaussian 16 at Fri Aug 22 16:36:33 2025.
