 Gaussian 16, Revision C.01,
 Gaussian 16:  ES64L-G16RevC.01  3-Jul-2019

 -----------------------------------------
 # sp b3lyp/6-311g** Force nosymm scf=(qc)
 -----------------------------------------

 -------------------
 Title Card Required
 -------------------
 Symbolic Z-matrix:
 Charge =  0 Multiplicity = 2

                          Input orientation:
 ---------------------------------------------------------------------
 Center     Atomic      Atomic             Coordinates (Angstroms)
 Number     Number       Type             X           Y           Z
 ---------------------------------------------------------------------
      1          1           0        0.000000    0.000000    0.000000
      2          1           0       -2.950000    0.000000    0.000000
      3          9           0        2.550000    0.000000    0.000000
 ---------------------------------------------------------------------

 SCF Done:  E(UB3LYP) =  -100.767446899     a.u. after   20 cycles

 Alpha  occ. eigenvalues --  -24.72035  -1.18231  -0.51139  -0.42956  -0.42956
 Alpha  occ. eigenvalues --   -0.33182
 Alpha virt. eigenvalues --   -0.10736   0.24244   0.34406   0.89981   0.93460
 Alpha virt. eigenvalues --    0.93460   1.06340   1.24366   1.24366   1.25422
 Alpha virt. eigenvalues --    1.40286   1.40286   1.43482   2.15138   2.35398

  Beta  occ. eigenvalues --  -24.69168  -1.10061  -0.40096  -0.40096  -0.35159
  Beta virt. eigenvalues --   -0.23541  -0.07986   0.24833   0.36511   0.94843
  Beta virt. eigenvalues --    0.94843   0.96999   1.09037   1.22295   1.22295
  Beta virt. eigenvalues --    1.28513   1.44309   1.44309   1.44431   2.14229

 Mulliken charges and spin densities:
               1          2
     1  H    0.079435  -0.897998
     2  H    0.003409   0.991501
     3  F   -0.082844   0.906497
 Sum of Mulliken charges =  -0.00000   1.00000

 Dipole moment (field-independent basis, Debye):
    X=             -1.1247    Y=             -0.0000    Z=              0.0000  Tot=              1.1247
 Quadrupole moment (field-independent basis, Debye-Ang):
   XX=             -9.0465   YY=             -7.5908   ZZ=             -7.5908
   XY=             -0.0000   XZ=              0.0000   YZ=              0.0000

  Exact polarizability:      35.269      -0.000       2.021       0.000       0.000       2.021
 Approx polarizability:      41.204      -0.000       1.919       0.000      -0.000       1.919

 ******    2 imaginary frequencies (negative Signs) ******

                      1                      2                      3
                      A                      A                      A
 Frequencies --   -632.2892              -224.1250               246.4992
 Red. masses --      1.0411                 1.0708                 1.0198
 Frc consts  --      0.2452                 0.0317                 0.0365
 IR Inten    --     70.6260                 4.2690                 5.7164

                      4
                      A
 Frequencies --    246.4992
 Red. masses --      1.0198
 Frc consts  --      0.0365
 IR Inten    --      5.7164

 - Thermochemistry -
 -------------------
 Temperature   298.150 Kelvin.  Pressure   1.00000 Atm.
 Atom     1 has atomic number  1 and mass   1.00783

 Molecular mass:    21.01405 amu.
 Principal axes and moments of inertia in atomic units:
                           1         2         3
     Eigenvalues --     0.00000 121.08720 121.08720
           X            1.00000  -0.00000   0.00000
           Y            0.00000   1.00000   0.00000
           Z            0.00000   0.00000   1.00000
 This molecule is a prolate symmetric top.
 Rotational symmetry number  1.
 Rotational temperature (Kelvin)      0.71530
 Rotational constant (GHZ):          14.904475
    2 imaginary frequencies ignored.
 Zero-point vibrational energy       2948.8 (Joules/Mol)
                                    0.70478 (Kcal/Mol)
 Warning -- explicit consideration of   2 degrees of freedom as
           vibrations may cause significant error
 Vibrational temperatures:    354.66   354.66
          (Kelvin)

 Zero-point correction=                           0.001123 (Hartree/Particle)
 Thermal correction to Energy=                    0.004466
 Thermal correction to Enthalpy=                  0.005411
 Thermal correction to Gibbs Free Energy=        -0.020214
 Sum of electronic and zero-point Energies=           -100.766324
 Sum of electronic and thermal Energies=              -100.762980
 Sum of electronic and thermal Enthalpies=            -100.762036
 Sum of electronic and thermal Free Energies=         -100.787661

                     E (Thermal)             CV                S
                      KCal/Mol        Cal/Mol-Kelvin    Cal/Mol-Kelvin
 Total                    2.803              8.505             53.932
 Electronic               0.000              0.000              1.377
 Translational            0.889              2.981             35.068
 Rotational               0.592              1.987             13.975
 Vibrational              1.322              3.537              3.511
 Vibration     1          0.661              1.769              1.755
 Vibration     2          0.661              1.769              1.755

 Normal termination of Gaussian 16 at Fri Aug 22 17:54:46 2025.
