 Gaussian 16, Revision C.01,
 Gaussian 16:  ES64L-G16RevC.01  3-Jul-2019

 -----------------------------------------
 # sp b3lyp/6-311g** Force nosymm scf=(qc)
 -----------------------------------------

 -------------------
 Title Card Required
 -------------------
 Symbolic Z-matrix:
 Charge =  0 Multiplicity = 2

                          Input orientation:
 ---------------------------------------------------------------------
 Center     Atomic      Atomic             Coordinates (Angstroms)
 Number     Number       Type             X           Y           Z
 ---------------------------------------------------------------------
      1          1           0        0.000000    0.000000    0.000000
      2          1           0       -1.850000    0.000000    0.000000
      3          9           0        2.800000    0.000000    0.000000
 ---------------------------------------------------------------------

 SCF Done:  E(UB3LYP) =  -100.785656098     a.u. after   25 cycles

 Alpha  occ. eigenvalues --  -24.73704  -1.19786  -0.52826  -0.44353  -0.44353
 Alpha  occ. eigenvalues --   -0.34342
 Alpha virt. eigenvalues --   -0.12116   0.25092   0.31182   0.90163   0.92496
 Alpha virt. eigenvalues --    0.92496   1.04815   1.12048   1.23425   1.23425
 Alpha virt. eigenvalues --    1.35889   1.35889   1.56976   2.12793   2.38449

  Beta  occ. eigenvalues --  -24.70713  -1.11225  -0.41362  -0.41362  -0.34315
  Beta virt. eigenvalues --   -0.24698  -0.11550   0.26125   0.31250   0.93941
  Beta virt. eigenvalues --    0.93941   0.98385   1.07937   1.13382   1.23462
  Beta virt. eigenvalues --    1.23462   1.36675   1.36675   1.57626   2.13910

 Mulliken charges and spin densities:
               1          2
     1  H    0.022237  -0.725797
     2  H    0.023722   0.778679
     3  F   -0.045959   0.947117
 Sum of Mulliken charges =   0.00000   1.00000

 Dipole moment (field-independent basis, Debye):
    X=             -0.8680    Y=             -0.0000    Z=             -0.0000  Tot=              0.8680
 Quadrupole moment (field-independent basis, Debye-Ang):
   XX=             -7.3780   YY=             -7.7144   ZZ=             -7.7144
   XY=             -0.0000   XZ=             -0.0000   YZ=             -0.0000

  Exact polarizability:      62.912      -0.000       2.007      -0.000      -0.000       2.007
 Approx polarizability:      66.338      -0.000       1.944      -0.000       0.000       1.944

 ******    2 imaginary frequencies (negative Signs) ******

                      1                      2                      3
                      A                      A                      A
 Frequencies --  -1649.8464              -287.4888               701.3621
 Red. masses --      1.0081                 1.1082                 1.0137
 Frc consts  --      1.6167                 0.0540                 0.2938
 IR Inten    --     91.2800                38.9034                 0.1302

                      4
                      A
 Frequencies --    701.3621
 Red. masses --      1.0137
 Frc consts  --      0.2938
 IR Inten    --      0.1302

 - Thermochemistry -
 -------------------
 Temperature   298.150 Kelvin.  Pressure   1.00000 Atm.
 Atom     1 has atomic number  1 and mass   1.00783

 Molecular mass:    21.01405 amu.
 Principal axes and moments of inertia in atomic units:
                           1         2         3
     Eigenvalues --     0.00000  96.45567  96.45567
           X            1.00000  -0.00000   0.00000
           Y            0.00000   1.00000   0.00000
           Z            0.00000   0.00000   1.00000
 This molecule is a prolate symmetric top.
 Rotational symmetry number  1.
 Rotational temperature (Kelvin)      0.89797
 Rotational constant (GHZ):          18.710576
    2 imaginary frequencies ignored.
 Zero-point vibrational energy       8390.2 (Joules/Mol)
                                    2.00529 (Kcal/Mol)
 Vibrational temperatures:   1009.10  1009.10
          (Kelvin)

 Zero-point correction=                           0.003196 (Hartree/Particle)
 Thermal correction to Energy=                    0.005780
 Thermal correction to Enthalpy=                  0.006725
 Thermal correction to Gibbs Free Energy=        -0.017307
 Sum of electronic and zero-point Energies=           -100.782460
 Sum of electronic and thermal Energies=              -100.779876
 Sum of electronic and thermal Enthalpies=            -100.778932
 Sum of electronic and thermal Free Energies=         -100.802963

                     E (Thermal)             CV                S
                      KCal/Mol        Cal/Mol-Kelvin    Cal/Mol-Kelvin
 Total                    3.627              6.621             50.578
 Electronic               0.000              0.000              1.377
 Translational            0.889              2.981             35.068
 Rotational               0.592              1.987             13.523
 Vibrational              2.146              1.653              0.609

 Normal termination of Gaussian 16 at Fri Aug 22 18:42:50 2025.
