 Gaussian 16, Revision C.01,
 Gaussian 16:  ES64L-G16RevC.01  3-Jul-2019

 -----------------------------------------
 # sp b3lyp/6-311g** Force nosymm scf=(qc)
 -----------------------------------------

 -------------------
 Title Card Required
 -------------------
 Symbolic Z-matrix:
 Charge =  0 Multiplicity = 2

                          Input orientation:
 ---------------------------------------------------------------------
 Center     Atomic      Atomic             Coordinates (Angstroms)
 Number     Number       Type             X           Y           Z
 ---------------------------------------------------------------------
      1          1           0        0.000000    0.000000    0.000000
      2          1           0       -0.600000    0.000000    0.000000
      3          9           0        2.300000    0.000000    0.000000
 ---------------------------------------------------------------------

 SCF Done:  E(UB3LYP) =  -100.914535649     a.u. after  135 cycles

 Alpha  occ. eigenvalues --  -24.76961  -1.22759  -0.55920  -0.48360  -0.47067
 Alpha  occ. eigenvalues --   -0.44908
 Alpha virt. eigenvalues --    0.10220   0.20150   0.52601   0.85449   0.90288
 Alpha virt. eigenvalues --    0.93870   1.10794   1.10845   1.14618   1.62157
 Alpha virt. eigenvalues --    1.82795   1.93339   1.93378   2.41093   3.64335

  Beta  occ. eigenvalues --  -24.73797  -1.13667  -0.47016  -0.43894  -0.43075
  Beta virt. eigenvalues --   -0.26531   0.10348   0.20249   0.52691   0.91773
  Beta virt. eigenvalues --    0.94831   0.95690   1.10852   1.10852   1.18177
  Beta virt. eigenvalues --    1.62202   1.82807   1.93344   1.93376   2.41124

 Mulliken charges and spin densities:
               1          2
     1  H   -0.010125  -0.002466
     2  H   -0.007791  -0.000319
     3  F    0.017916   1.002785
 Sum of Mulliken charges =   0.00000   1.00000

 Dipole moment (field-independent basis, Debye):
    X=              0.1758    Y=              0.0000    Z=             -0.0000  Tot=              0.1758
 Quadrupole moment (field-independent basis, Debye-Ang):
   XX=             -6.0005   YY=             -6.0456   ZZ=             -6.5894
   XY=             -0.0000   XZ=              0.0000   YZ=             -0.3351

  Exact polarizability:       7.060      -0.000       2.275      -0.000      -0.162       2.012
 Approx polarizability:       7.537      -0.000       2.463       0.000      -0.210       2.121

 ******    2 imaginary frequencies (negative Signs) ******

                      1                      2                      3
                      A                      A                      A
 Frequencies --  -2741.8426             -2701.8164               317.4642
 Red. masses --      1.0092                 1.0092                 1.1085
 Frc consts  --      4.4699                 4.3403                 0.0658
 IR Inten    --      0.1067                 0.0415                 0.7914

                      4
                      A
 Frequencies --   7044.1112
 Red. masses --      1.0078
 Frc consts  --     29.4637
 IR Inten    --      6.2121

 - Thermochemistry -
 -------------------
 Temperature   298.150 Kelvin.  Pressure   1.00000 Atm.
 Atom     1 has atomic number  1 and mass   1.00783

 Molecular mass:    21.01405 amu.
 Principal axes and moments of inertia in atomic units:
                           1         2         3
     Eigenvalues --     0.00000  44.63913  44.63913
           X            1.00000  -0.00000   0.00000
           Y            0.00000   1.00000   0.00000
           Z            0.00000   0.00000   1.00000
 This molecule is a prolate symmetric top.
 Rotational symmetry number  1.
 Rotational temperature (Kelvin)      1.94031
 Rotational constant (GHZ):          40.429582
    2 imaginary frequencies ignored.
 Zero-point vibrational energy      44032.0 (Joules/Mol)
                                   10.52390 (Kcal/Mol)
 Warning -- explicit consideration of   1 degrees of freedom as
           vibrations may cause significant error
 Vibrational temperatures:    456.76 10134.90
          (Kelvin)

 Zero-point correction=                           0.016771 (Hartree/Particle)
 Thermal correction to Energy=                    0.019530
 Thermal correction to Enthalpy=                  0.020474
 Thermal correction to Gibbs Free Energy=        -0.003169
 Sum of electronic and zero-point Energies=           -100.897765
 Sum of electronic and thermal Energies=              -100.895006
 Sum of electronic and thermal Enthalpies=            -100.894061
 Sum of electronic and thermal Free Energies=         -100.917704

                     E (Thermal)             CV                S
                      KCal/Mol        Cal/Mol-Kelvin    Cal/Mol-Kelvin
 Total                   12.255              6.608             49.761
 Electronic               0.000              0.000              1.377
 Translational            0.889              2.981             35.068
 Rotational               0.592              1.987             11.992
 Vibrational             10.774              1.640              1.323
 Vibration     1          0.704              1.640              1.323

 Normal termination of Gaussian 16 at Fri Aug 22 17:19:55 2025.
