 Gaussian 16, Revision C.01,
 Gaussian 16:  ES64L-G16RevC.01  3-Jul-2019

 -----------------------------------------
 # sp b3lyp/6-311g** Force nosymm scf=(qc)
 -----------------------------------------

 -------------------
 Title Card Required
 -------------------
 Symbolic Z-matrix:
 Charge =  0 Multiplicity = 2

                          Input orientation:
 ---------------------------------------------------------------------
 Center     Atomic      Atomic             Coordinates (Angstroms)
 Number     Number       Type             X           Y           Z
 ---------------------------------------------------------------------
      1          1           0        0.000000    0.000000    0.000000
      2          1           0       -1.150000    0.000000    0.000000
      3          9           0        1.750000    0.000000    0.000000
 ---------------------------------------------------------------------

 SCF Done:  E(UB3LYP) =  -100.893444663     a.u. after   13 cycles

 Alpha  occ. eigenvalues --  -24.70310  -1.16839  -0.51127  -0.41703  -0.41703
 Alpha  occ. eigenvalues --   -0.40261
 Alpha virt. eigenvalues --   -0.02456   0.20929   0.33179   0.91645   0.91645
 Alpha virt. eigenvalues --    0.93890   1.07138   1.09118   1.09118   1.50707
 Alpha virt. eigenvalues --    1.54364   1.54364   2.12673   2.27871   2.54352

  Beta  occ. eigenvalues --  -24.67760  -1.09722  -0.40811  -0.39193  -0.39193
  Beta virt. eigenvalues --   -0.24139  -0.00220   0.22361   0.33997   0.92621
  Beta virt. eigenvalues --    0.92621   1.00304   1.09885   1.11397   1.11397
  Beta virt. eigenvalues --    1.54408   1.55665   1.55665   2.15081   2.30290

 Mulliken charges and spin densities:
               1          2
     1  H    0.095245  -0.137034
     2  H    0.059296   0.344317
     3  F   -0.154541   0.792717
 Sum of Mulliken charges =  -0.00000   1.00000

 Dipole moment (field-independent basis, Debye):
    X=             -1.6303    Y=             -0.0000    Z=             -0.0000  Tot=              1.6303
 Quadrupole moment (field-independent basis, Debye-Ang):
   XX=             -7.2438   YY=             -7.2482   ZZ=             -7.2482
   XY=             -0.0000   XZ=             -0.0000   YZ=              0.0000

  Exact polarizability:      36.881      -0.000       2.257      -0.000       0.000       2.257
 Approx polarizability:      55.261       0.000       2.241       0.000      -0.000       2.241

 ******    1 imaginary frequencies (negative Signs) ******

                      1                      2                      3
                      A                      A                      A
 Frequencies --  -1763.6763               358.5251              1346.3389
 Red. masses --      1.0248                 1.0886                 1.0137
 Frc consts  --      1.8782                 0.0824                 1.0826
 IR Inten    --   1170.5552                23.3372                 1.3362

                      4
                      A
 Frequencies --   1346.3389
 Red. masses --      1.0137
 Frc consts  --      1.0826
 IR Inten    --      1.3362

 - Thermochemistry -
 -------------------
 Temperature   298.150 Kelvin.  Pressure   1.00000 Atm.
 Atom     1 has atomic number  1 and mass   1.00783

 Molecular mass:    21.01405 amu.
 Principal axes and moments of inertia in atomic units:
                           1         2         3
     Eigenvalues --     0.00000  37.55743  37.55743
           X            1.00000  -0.00000   0.00000
           Y            0.00000   1.00000   0.00000
           Z            0.00000   0.00000   1.00000
 This molecule is a prolate symmetric top.
 Rotational symmetry number  1.
 Rotational temperature (Kelvin)      2.30617
 Rotational constant (GHZ):          48.052838
    1 imaginary frequencies ignored.
 Zero-point vibrational energy      18250.2 (Joules/Mol)
                                    4.36191 (Kcal/Mol)
 Warning -- explicit consideration of   1 degrees of freedom as
           vibrations may cause significant error
 Vibrational temperatures:    515.84  1937.08  1937.08
          (Kelvin)

 Zero-point correction=                           0.006951 (Hartree/Particle)
 Thermal correction to Energy=                    0.009682
 Thermal correction to Enthalpy=                  0.010626
 Thermal correction to Gibbs Free Energy=        -0.012782
 Sum of electronic and zero-point Energies=           -100.886494
 Sum of electronic and thermal Energies=              -100.883763
 Sum of electronic and thermal Enthalpies=            -100.882818
 Sum of electronic and thermal Free Energies=         -100.906227

                     E (Thermal)             CV                S
                      KCal/Mol        Cal/Mol-Kelvin    Cal/Mol-Kelvin
 Total                    6.076              6.779             49.268
 Electronic               0.000              0.000              1.377
 Translational            0.889              2.981             35.068
 Rotational               0.592              1.987             11.649
 Vibrational              4.594              1.811              1.173
 Vibration     1          0.733              1.558              1.128

 Normal termination of Gaussian 16 at Fri Aug 22 16:39:40 2025.
