 Gaussian 16, Revision C.01,
 Gaussian 16:  ES64L-G16RevC.01  3-Jul-2019

 -----------------------------------------
 # sp b3lyp/6-311g** Force nosymm scf=(qc)
 -----------------------------------------

 -------------------
 Title Card Required
 -------------------
 Symbolic Z-matrix:
 Charge =  0 Multiplicity = 2

                          Input orientation:
 ---------------------------------------------------------------------
 Center     Atomic      Atomic             Coordinates (Angstroms)
 Number     Number       Type             X           Y           Z
 ---------------------------------------------------------------------
      1          1           0        0.000000    0.000000    0.000000
      2          1           0       -4.000000    0.000000    0.000000
      3          9           0        0.900000    0.000000    0.000000
 ---------------------------------------------------------------------

 SCF Done:  E(UB3LYP) =  -100.971434533     a.u. after    5 cycles

 Alpha  occ. eigenvalues --  -24.64007  -1.19058  -0.53869  -0.39666  -0.39666
 Alpha  occ. eigenvalues --   -0.33290
 Alpha virt. eigenvalues --    0.03116   0.23838   0.39636   0.94322   0.94322
 Alpha virt. eigenvalues --    0.97733   1.24149   1.24215   1.24215   1.28872
 Alpha virt. eigenvalues --    1.37250   1.37250   2.00132   2.14229   2.37158

  Beta  occ. eigenvalues --  -24.64006  -1.19057  -0.53868  -0.39666  -0.39666
  Beta virt. eigenvalues --   -0.04795   0.03281   0.37538   0.40983   0.94323
  Beta virt. eigenvalues --    0.94323   0.97733   1.28819   1.37250   1.37250
  Beta virt. eigenvalues --    1.50607   1.51083   1.51083   2.00321   2.37010

 Mulliken charges and spin densities:
               1          2
     1  H    0.296029   0.000238
     2  H    0.000315   0.999653
     3  F   -0.296344   0.000110
 Sum of Mulliken charges =   0.00000   1.00000

 Dipole moment (field-independent basis, Debye):
    X=             -1.8833    Y=             -0.0000    Z=              0.0000  Tot=              1.8833
 Quadrupole moment (field-independent basis, Debye-Ang):
   XX=             -7.9578   YY=             -6.8691   ZZ=             -6.8691
   XY=             -0.0000   XZ=              0.0000   YZ=              0.0000

  Exact polarizability:       5.249      -0.000       2.422       0.000      -0.000       2.422
 Approx polarizability:       6.214      -0.000       2.399      -0.000      -0.000       2.399

 ******    3 imaginary frequencies (negative Signs) ******

                      1                      2                      3
                      A                      A                      A
 Frequencies --   -627.6373              -627.6373               -28.9411
 Red. masses --      1.0404                 1.0404                 1.0532
 Frc consts  --      0.2415                 0.2415                 0.0005
 IR Inten    --    184.0100               184.0100                 0.0090

                      4
                      A
 Frequencies --   4432.3935
 Red. masses --      1.0583
 Frc consts  --     12.2501
 IR Inten    --     96.5284

 - Thermochemistry -
 -------------------
 Temperature   298.150 Kelvin.  Pressure   1.00000 Atm.
 Atom     1 has atomic number  1 and mass   1.00783

 Molecular mass:    21.01405 amu.
 Principal axes and moments of inertia in atomic units:
                           1         2         3
     Eigenvalues --     0.00000  83.52090  83.52090
           X            1.00000  -0.00000   0.00000
           Y            0.00000   1.00000   0.00000
           Z            0.00000   0.00000   1.00000
 This molecule is a prolate symmetric top.
 Rotational symmetry number  1.
 Rotational temperature (Kelvin)      1.03703
 Rotational constant (GHZ):          21.608260
    3 imaginary frequencies ignored.
 Zero-point vibrational energy      26511.6 (Joules/Mol)
                                    6.33642 (Kcal/Mol)
 Vibrational temperatures:   6377.23
          (Kelvin)

 Zero-point correction=                           0.010098 (Hartree/Particle)
 Thermal correction to Energy=                    0.012458
 Thermal correction to Enthalpy=                  0.013402
 Thermal correction to Gibbs Free Energy=        -0.010203
 Sum of electronic and zero-point Energies=           -100.961337
 Sum of electronic and thermal Energies=              -100.958976
 Sum of electronic and thermal Enthalpies=            -100.958032
 Sum of electronic and thermal Free Energies=         -100.981638

                     E (Thermal)             CV                S
                      KCal/Mol        Cal/Mol-Kelvin    Cal/Mol-Kelvin
 Total                    7.818              4.968             49.683
 Electronic               0.000              0.000              1.377
 Translational            0.889              2.981             35.068
 Rotational               0.592              1.987             13.237
 Vibrational              6.336              0.000              0.000

 Normal termination of Gaussian 16 at Fri Aug 22 15:57:04 2025.
