 Gaussian 16, Revision C.01,
 Gaussian 16:  ES64L-G16RevC.01  3-Jul-2019

 -----------------------------------------
 # sp b3lyp/6-311g** Force nosymm scf=(qc)
 -----------------------------------------

 -------------------
 Title Card Required
 -------------------
 Symbolic Z-matrix:
 Charge =  0 Multiplicity = 2

                          Input orientation:
 ---------------------------------------------------------------------
 Center     Atomic      Atomic             Coordinates (Angstroms)
 Number     Number       Type             X           Y           Z
 ---------------------------------------------------------------------
      1          1           0        0.000000    0.000000    0.000000
      2          1           0       -2.200000    0.000000    0.000000
      3          9           0        2.550000    0.000000    0.000000
 ---------------------------------------------------------------------

 SCF Done:  E(UB3LYP) =  -100.774882268     a.u. after   19 cycles

 Alpha  occ. eigenvalues --  -24.72081  -1.18266  -0.51184  -0.42983  -0.42983
 Alpha  occ. eigenvalues --   -0.34264
 Alpha virt. eigenvalues --   -0.12422   0.25007   0.32555   0.90245   0.93454
 Alpha virt. eigenvalues --    0.93454   1.06336   1.23567   1.23567   1.25075
 Alpha virt. eigenvalues --    1.36355   1.36355   1.43797   2.12598   2.33531

  Beta  occ. eigenvalues --  -24.69210  -1.10083  -0.40119  -0.40119  -0.35049
  Beta virt. eigenvalues --   -0.23642  -0.10835   0.26328   0.33243   0.94840
  Beta virt. eigenvalues --    0.94840   0.97604   1.09492   1.22766   1.22766
  Beta virt. eigenvalues --    1.27104   1.38968   1.38968   1.44731   2.13123

 Mulliken charges and spin densities:
               1          2
     1  H    0.060677  -0.836535
     2  H    0.019729   0.928796
     3  F   -0.080406   0.907739
 Sum of Mulliken charges =   0.00000   1.00000

 Dipole moment (field-independent basis, Debye):
    X=             -1.2528    Y=              0.0000    Z=             -0.0000  Tot=              1.2528
 Quadrupole moment (field-independent basis, Debye-Ang):
   XX=             -8.3974   YY=             -7.6452   ZZ=             -7.6452
   XY=              0.0000   XZ=             -0.0000   YZ=              0.0000

  Exact polarizability:      53.503       0.000       2.009      -0.000       0.000       2.009
 Approx polarizability:      54.630       0.000       1.920      -0.000      -0.000       1.920

 ******    2 imaginary frequencies (negative Signs) ******

                      1                      2                      3
                      A                      A                      A
 Frequencies --  -1088.9485              -369.0087               429.1849
 Red. masses --      1.0107                 1.1051                 1.0163
 Frc consts  --      0.7061                 0.0887                 0.1103
 IR Inten    --     45.4902                42.7807                 2.4818

                      4
                      A
 Frequencies --    429.1849
 Red. masses --      1.0163
 Frc consts  --      0.1103
 IR Inten    --      2.4818

 - Thermochemistry -
 -------------------
 Temperature   298.150 Kelvin.  Pressure   1.00000 Atm.
 Atom     1 has atomic number  1 and mass   1.00783

 Molecular mass:    21.01405 amu.
 Principal axes and moments of inertia in atomic units:
                           1         2         3
     Eigenvalues --     0.00000  95.40696  95.40696
           X            1.00000  -0.00000   0.00000
           Y            0.00000   1.00000   0.00000
           Z            0.00000   0.00000   1.00000
 This molecule is a prolate symmetric top.
 Rotational symmetry number  1.
 Rotational temperature (Kelvin)      0.90784
 Rotational constant (GHZ):          18.916242
    2 imaginary frequencies ignored.
 Zero-point vibrational energy       5134.2 (Joules/Mol)
                                    1.22710 (Kcal/Mol)
 Warning -- explicit consideration of   2 degrees of freedom as
           vibrations may cause significant error
 Vibrational temperatures:    617.50   617.50
          (Kelvin)

 Zero-point correction=                           0.001956 (Hartree/Particle)
 Thermal correction to Energy=                    0.004880
 Thermal correction to Enthalpy=                  0.005824
 Thermal correction to Gibbs Free Energy=        -0.018726
 Sum of electronic and zero-point Energies=           -100.772927
 Sum of electronic and thermal Energies=              -100.770002
 Sum of electronic and thermal Enthalpies=            -100.769058
 Sum of electronic and thermal Free Energies=         -100.793608

                     E (Thermal)             CV                S
                      KCal/Mol        Cal/Mol-Kelvin    Cal/Mol-Kelvin
 Total                    3.062              7.781             51.670
 Electronic               0.000              0.000              1.377
 Translational            0.889              2.981             35.068
 Rotational               0.592              1.987             13.502
 Vibrational              1.581              2.813              1.723
 Vibration     1          0.791              1.407              0.861
 Vibration     2          0.791              1.407              0.861

 Normal termination of Gaussian 16 at Fri Aug 22 17:54:02 2025.
