 Gaussian 16, Revision C.01,
 Gaussian 16:  ES64L-G16RevC.01  3-Jul-2019

 -----------------------------------------
 # sp b3lyp/6-311g** Force nosymm scf=(qc)
 -----------------------------------------

 -------------------
 Title Card Required
 -------------------
 Symbolic Z-matrix:
 Charge =  0 Multiplicity = 2

                          Input orientation:
 ---------------------------------------------------------------------
 Center     Atomic      Atomic             Coordinates (Angstroms)
 Number     Number       Type             X           Y           Z
 ---------------------------------------------------------------------
      1          1           0        0.000000    0.000000    0.000000
      2          1           0       -2.250000    0.000000    0.000000
      3          9           0        1.200000    0.000000    0.000000
 ---------------------------------------------------------------------

 SCF Done:  E(UB3LYP) =  -100.926868945     a.u. after    7 cycles

 Alpha  occ. eigenvalues --  -24.63976  -1.12011  -0.47711  -0.37221  -0.37221
 Alpha  occ. eigenvalues --   -0.35923
 Alpha virt. eigenvalues --   -0.04128   0.24430   0.28592   0.93475   0.93475
 Alpha virt. eigenvalues --    1.00936   1.17146   1.21560   1.21560   1.35011
 Alpha virt. eigenvalues --    1.35011   1.37625   1.73526   2.12224   2.30198

  Beta  occ. eigenvalues --  -24.63890  -1.11795  -0.47310  -0.37143  -0.37143
  Beta virt. eigenvalues --   -0.12902  -0.01215   0.28536   0.35456   0.93472
  Beta virt. eigenvalues --    0.93472   1.01169   1.24823   1.34753   1.34753
  Beta virt. eigenvalues --    1.41841   1.41841   1.49231   1.73674   2.27767

 Mulliken charges and spin densities:
               1          2
     1  H    0.340782  -0.003195
     2  H    0.016989   0.977463
     3  F   -0.357771   0.025732
 Sum of Mulliken charges =   0.00000   1.00000

 Dipole moment (field-independent basis, Debye):
    X=             -2.4874    Y=              0.0000    Z=             -0.0000  Tot=              2.4874
 Quadrupole moment (field-independent basis, Debye-Ang):
   XX=             -8.3995   YY=             -7.1113   ZZ=             -7.1113
   XY=             -0.0000   XZ=             -0.0000   YZ=              0.0000

  Exact polarizability:      14.094       0.000       2.361      -0.000      -0.000       2.361
 Approx polarizability:      17.689      -0.000       2.321       0.000      -0.000       2.321

 ******    1 imaginary frequencies (negative Signs) ******

                      1                      2                      3
                      A                      A                      A
 Frequencies --   -261.9951               877.7365              1171.0301
 Red. masses --      1.0378                 1.0744                 1.0270
 Frc consts  --      0.0420                 0.4877                 0.8298
 IR Inten    --     17.6102               149.5814               121.6256

                      4
                      A
 Frequencies --   1171.0301
 Red. masses --      1.0270
 Frc consts  --      0.8298
 IR Inten    --    121.6256

 - Thermochemistry -
 -------------------
 Temperature   298.150 Kelvin.  Pressure   1.00000 Atm.
 Atom     1 has atomic number  1 and mass   1.00783

 Molecular mass:    21.01405 amu.
 Principal axes and moments of inertia in atomic units:
                           1         2         3
     Eigenvalues --     0.00000  44.28758  44.28758
           X            1.00000  -0.00000   0.00000
           Y            0.00000   1.00000   0.00000
           Z            0.00000   0.00000   1.00000
 This molecule is a prolate symmetric top.
 Rotational symmetry number  1.
 Rotational temperature (Kelvin)      1.95572
 Rotational constant (GHZ):          40.750505
    1 imaginary frequencies ignored.
 Zero-point vibrational energy      19258.7 (Joules/Mol)
                                    4.60293 (Kcal/Mol)
 Vibrational temperatures:   1262.87  1684.85  1684.85
          (Kelvin)

 Zero-point correction=                           0.007335 (Hartree/Particle)
 Thermal correction to Energy=                    0.009792
 Thermal correction to Enthalpy=                  0.010736
 Thermal correction to Gibbs Free Energy=        -0.012387
 Sum of electronic and zero-point Energies=           -100.919534
 Sum of electronic and thermal Energies=              -100.917077
 Sum of electronic and thermal Enthalpies=            -100.916133
 Sum of electronic and thermal Free Energies=         -100.939256

                     E (Thermal)             CV                S
                      KCal/Mol        Cal/Mol-Kelvin    Cal/Mol-Kelvin
 Total                    6.145              5.948             48.668
 Electronic               0.000              0.000              1.377
 Translational            0.889              2.981             35.068
 Rotational               0.592              1.987             11.977
 Vibrational              4.663              0.980              0.246

 Normal termination of Gaussian 16 at Fri Aug 22 16:10:19 2025.
