 Gaussian 16, Revision C.01,
 Gaussian 16:  ES64L-G16RevC.01  3-Jul-2019

 -----------------------------------------
 # sp b3lyp/6-311g** Force nosymm scf=(qc)
 -----------------------------------------

 -------------------
 Title Card Required
 -------------------
 Symbolic Z-matrix:
 Charge =  0 Multiplicity = 2

                          Input orientation:
 ---------------------------------------------------------------------
 Center     Atomic      Atomic             Coordinates (Angstroms)
 Number     Number       Type             X           Y           Z
 ---------------------------------------------------------------------
      1          1           0        0.000000    0.000000    0.000000
      2          1           0       -0.800000    0.000000    0.000000
      3          9           0        3.400000    0.000000    0.000000
 ---------------------------------------------------------------------

 SCF Done:  E(UB3LYP) =  -100.932218637     a.u. after  258 cycles

 Alpha  occ. eigenvalues --  -24.76401  -1.22250  -0.55449  -0.46654  -0.46602
 Alpha  occ. eigenvalues --   -0.42134
 Alpha virt. eigenvalues --    0.04817   0.20135   0.44780   0.85970   0.90845
 Alpha virt. eigenvalues --    0.93039   1.02355   1.08328   1.08331   1.52396
 Alpha virt. eigenvalues --    1.78993   1.78998   2.05058   2.38191   3.05429

  Beta  occ. eigenvalues --  -24.73242  -1.13169  -0.43517  -0.43435  -0.42103
  Beta virt. eigenvalues --   -0.26085   0.04835   0.20148   0.44844   0.92344
  Beta virt. eigenvalues --    0.94602   0.95432   1.06351   1.08327   1.08331
  Beta virt. eigenvalues --    1.52405   1.78993   1.78997   2.05077   2.38194

 Mulliken charges and spin densities:
               1          2
     1  H   -0.002091  -0.000534
     2  H   -0.002693  -0.000031
     3  F    0.004784   1.000565
 Sum of Mulliken charges =   0.00000   1.00000

 Dipole moment (field-independent basis, Debye):
    X=              0.0560    Y=              0.0000    Z=              0.0000  Tot=              0.0560
 Quadrupole moment (field-independent basis, Debye-Ang):
   XX=             -6.1839   YY=             -6.2841   ZZ=             -6.8980
   XY=             -0.0000   XZ=             -0.0000   YZ=              0.3041

  Exact polarizability:       9.057      -0.000       2.380      -0.000       0.163       2.051
 Approx polarizability:      10.648      -0.000       2.553      -0.000       0.205       2.140

                      1                      2                      3
                      A                      A                      A
 Frequencies --     23.7699              1074.5216              1075.8808
 Red. masses --      1.1085                 1.0089                 1.0089
 Frc consts  --      0.0004                 0.6863                 0.6881
 IR Inten    --      0.1667                 0.0013                 0.0010

                      4
                      A
 Frequencies --   3694.7056
 Red. masses --      1.0078
 Frc consts  --      8.1058
 IR Inten    --      0.1216

 - Thermochemistry -
 -------------------
 Temperature   298.150 Kelvin.  Pressure   1.00000 Atm.
 Atom     1 has atomic number  1 and mass   1.00783

 Molecular mass:    21.01405 amu.
 Principal axes and moments of inertia in atomic units:
                           1         2         3
     Eigenvalues --     0.00000  95.12127  95.12127
           X            1.00000  -0.00000   0.00000
           Y            0.00000   1.00000   0.00000
           Z            0.00000   0.00000   1.00000
 This molecule is a prolate symmetric top.
 Rotational symmetry number  1.
 Rotational temperature (Kelvin)      0.91056
 Rotational constant (GHZ):          18.973055
 Zero-point vibrational energy      35103.7 (Joules/Mol)
                                    8.38998 (Kcal/Mol)
 Warning -- explicit consideration of   1 degrees of freedom as
           vibrations may cause significant error
 Vibrational temperatures:     34.20  1546.00  1547.95  5315.86
          (Kelvin)

 Zero-point correction=                           0.013370 (Hartree/Particle)
 Thermal correction to Energy=                    0.016677
 Thermal correction to Enthalpy=                  0.017621
 Thermal correction to Gibbs Free Energy=        -0.009162
 Sum of electronic and zero-point Energies=           -100.918848
 Sum of electronic and thermal Energies=              -100.915542
 Sum of electronic and thermal Enthalpies=            -100.914598
 Sum of electronic and thermal Free Energies=         -100.941381

                     E (Thermal)             CV                S
                      KCal/Mol        Cal/Mol-Kelvin    Cal/Mol-Kelvin
 Total                   10.465              7.557             56.370
 Electronic               0.000              0.000              1.377
 Translational            0.889              2.981             35.068
 Rotational               0.592              1.987             13.496
 Vibrational              8.984              2.589              6.429
 Vibration     1          0.593              1.985              6.291

 Normal termination of Gaussian 16 at Fri Aug 22 21:07:30 2025.
