 Gaussian 16, Revision C.01,
 Gaussian 16:  ES64L-G16RevC.01  3-Jul-2019

 -----------------------------------------
 # sp b3lyp/6-311g** Force nosymm scf=(qc)
 -----------------------------------------

 -------------------
 Title Card Required
 -------------------
 Symbolic Z-matrix:
 Charge =  0 Multiplicity = 2

                          Input orientation:
 ---------------------------------------------------------------------
 Center     Atomic      Atomic             Coordinates (Angstroms)
 Number     Number       Type             X           Y           Z
 ---------------------------------------------------------------------
      1          1           0        0.000000    0.000000    0.000000
      2          1           0       -1.350000    0.000000    0.000000
      3          9           0        0.700000    0.000000    0.000000
 ---------------------------------------------------------------------

 SCF Done:  E(UB3LYP) =  -100.864430943     a.u. after    7 cycles

 Alpha  occ. eigenvalues --  -24.63413  -1.28813  -0.60121  -0.42030  -0.42030
 Alpha  occ. eigenvalues --   -0.35925
 Alpha virt. eigenvalues --    0.14322   0.20923   0.56032   0.92557   0.92557
 Alpha virt. eigenvalues --    0.94471   1.14399   1.14399   1.41117   1.52341
 Alpha virt. eigenvalues --    1.52341   1.62350   1.99001   2.23193   3.29173

  Beta  occ. eigenvalues --  -24.63226  -1.28273  -0.58985  -0.41882  -0.41882
  Beta virt. eigenvalues --   -0.13017   0.15451   0.28250   0.60946   0.92925
  Beta virt. eigenvalues --    0.92925   0.94884   1.25778   1.25778   1.44101
  Beta virt. eigenvalues --    1.57635   1.57635   1.72725   1.99214   2.44247

 Mulliken charges and spin densities:
               1          2
     1  H    0.248856   0.012294
     2  H    0.010322   0.958250
     3  F   -0.259178   0.029455
 Sum of Mulliken charges =   0.00000   1.00000

 Dipole moment (field-independent basis, Debye):
    X=             -1.5849    Y=             -0.0000    Z=             -0.0000  Tot=              1.5849
 Quadrupole moment (field-independent basis, Debye-Ang):
   XX=             -7.1497   YY=             -6.5498   ZZ=             -6.5498
   XY=             -0.0000   XZ=             -0.0000   YZ=             -0.0000

  Exact polarizability:       7.569       0.000       2.551      -0.000      -0.000       2.551
 Approx polarizability:       7.383       0.000       2.572       0.000      -0.000       2.572

 ******    2 imaginary frequencies (negative Signs) ******

                      1                      2                      3
                      A                      A                      A
 Frequencies --  -3478.1891             -3478.1891              1071.6146
 Red. masses --      1.0275                 1.0275                 1.0537
 Frc consts  --      7.3236                 7.3236                 0.7129
 IR Inten    --    142.2494               142.2494                11.2507

                      4
                      A
 Frequencies --   9039.4194
 Red. masses --      1.0579
 Frc consts  --     50.9288
 IR Inten    --    133.5677

 - Thermochemistry -
 -------------------
 Temperature   298.150 Kelvin.  Pressure   1.00000 Atm.
 Atom     1 has atomic number  1 and mass   1.00783

 Molecular mass:    21.01405 amu.
 Principal axes and moments of inertia in atomic units:
                           1         2         3
     Eigenvalues --     0.00000  15.58301  15.58301
           X            1.00000  -0.00000   0.00000
           Y            0.00000   1.00000   0.00000
           Z            0.00000   0.00000   1.00000
 This molecule is a prolate symmetric top.
 Rotational symmetry number  1.
 Rotational temperature (Kelvin)      5.55823
 Rotational constant (GHZ):         115.814689
    2 imaginary frequencies ignored.
 Zero-point vibrational energy      60477.4 (Joules/Mol)
                                   14.45445 (Kcal/Mol)
 Vibrational temperatures:   1541.81 13005.71
          (Kelvin)

 Zero-point correction=                           0.023035 (Hartree/Particle)
 Thermal correction to Energy=                    0.025423
 Thermal correction to Enthalpy=                  0.026367
 Thermal correction to Gibbs Free Energy=         0.004313
 Sum of electronic and zero-point Energies=           -100.841396
 Sum of electronic and thermal Energies=              -100.839008
 Sum of electronic and thermal Enthalpies=            -100.838064
 Sum of electronic and thermal Free Energies=         -100.860118

                     E (Thermal)             CV                S
                      KCal/Mol        Cal/Mol-Kelvin    Cal/Mol-Kelvin
 Total                   15.953              5.273             46.416
 Electronic               0.000              0.000              1.377
 Translational            0.889              2.981             35.068
 Rotational               0.592              1.987              9.901
 Vibrational             14.472              0.305              0.070

 Normal termination of Gaussian 16 at Fri Aug 22 15:45:58 2025.
