 Gaussian 16, Revision C.01,
 Gaussian 16:  ES64L-G16RevC.01  3-Jul-2019

 -----------------------------------------
 # sp b3lyp/6-311g** Force nosymm scf=(qc)
 -----------------------------------------

 -------------------
 Title Card Required
 -------------------
 Symbolic Z-matrix:
 Charge =  0 Multiplicity = 2

                          Input orientation:
 ---------------------------------------------------------------------
 Center     Atomic      Atomic             Coordinates (Angstroms)
 Number     Number       Type             X           Y           Z
 ---------------------------------------------------------------------
      1          1           0        0.000000    0.000000    0.000000
      2          1           0       -2.950000    0.000000    0.000000
      3          9           0        1.050000    0.000000    0.000000
 ---------------------------------------------------------------------

 SCF Done:  E(UB3LYP) =  -100.958429996     a.u. after    6 cycles

 Alpha  occ. eigenvalues --  -24.64203  -1.14839  -0.50587  -0.38395  -0.38395
 Alpha  occ. eigenvalues --   -0.34334
 Alpha virt. eigenvalues --   -0.00588   0.24606   0.32298   0.93847   0.93847
 Alpha virt. eigenvalues --    0.99091   1.22705   1.23199   1.23199   1.31516
 Alpha virt. eigenvalues --    1.35573   1.35573   1.85008   2.14331   2.33396

  Beta  occ. eigenvalues --  -24.64194  -1.14817  -0.50556  -0.38387  -0.38387
  Beta virt. eigenvalues --   -0.08130   0.00785   0.32015   0.38086   0.93848
  Beta virt. eigenvalues --    0.93848   0.99101   1.30003   1.35561   1.35561
  Beta virt. eigenvalues --    1.47013   1.47013   1.48471   1.85179   2.33361

 Mulliken charges and spin densities:
               1          2
     1  H    0.329041   0.001251
     2  H    0.003257   0.995894
     3  F   -0.332298   0.002855
 Sum of Mulliken charges =   0.00000   1.00000

 Dipole moment (field-independent basis, Debye):
    X=             -2.1386    Y=             -0.0000    Z=             -0.0000  Tot=              2.1386
 Quadrupole moment (field-independent basis, Debye-Ang):
   XX=             -8.2649   YY=             -7.0052   ZZ=             -7.0052
   XY=             -0.0000   XZ=             -0.0000   YZ=              0.0000

  Exact polarizability:       8.333       0.000       2.392      -0.000      -0.000       2.392
 Approx polarizability:      10.144      -0.000       2.363       0.000      -0.000       2.363

 ******    1 imaginary frequencies (negative Signs) ******

                      1                      2                      3
                      A                      A                      A
 Frequencies --    -83.7778              1111.9792              1111.9792
 Red. masses --      1.0530                 1.0335                 1.0335
 Frc consts  --      0.0044                 0.7530                 0.7530
 IR Inten    --      0.3706               157.2028               157.2028

                      4
                      A
 Frequencies --   2447.2354
 Red. masses --      1.0586
 Frc consts  --      3.7352
 IR Inten    --     97.1438

 - Thermochemistry -
 -------------------
 Temperature   298.150 Kelvin.  Pressure   1.00000 Atm.
 Atom     1 has atomic number  1 and mass   1.00783

 Molecular mass:    21.01405 amu.
 Principal axes and moments of inertia in atomic units:
                           1         2         3
     Eigenvalues --     0.00000  57.15014  57.15014
           X            1.00000  -0.00000   0.00000
           Y            0.00000   1.00000   0.00000
           Z            0.00000   0.00000   1.00000
 This molecule is a prolate symmetric top.
 Rotational symmetry number  1.
 Rotational temperature (Kelvin)      1.51555
 Rotational constant (GHZ):          31.578949
    1 imaginary frequencies ignored.
 Zero-point vibrational energy      27939.9 (Joules/Mol)
                                    6.67781 (Kcal/Mol)
 Vibrational temperatures:   1599.89  1599.89  3521.03
          (Kelvin)

 Zero-point correction=                           0.010642 (Hartree/Particle)
 Thermal correction to Energy=                    0.013050
 Thermal correction to Enthalpy=                  0.013994
 Thermal correction to Gibbs Free Energy=        -0.009310
 Sum of electronic and zero-point Energies=           -100.947788
 Sum of electronic and thermal Energies=              -100.945380
 Sum of electronic and thermal Enthalpies=            -100.944436
 Sum of electronic and thermal Free Energies=         -100.967740

                     E (Thermal)             CV                S
                      KCal/Mol        Cal/Mol-Kelvin    Cal/Mol-Kelvin
 Total                    8.189              5.510             49.048
 Electronic               0.000              0.000              1.377
 Translational            0.889              2.981             35.068
 Rotational               0.592              1.987             12.483
 Vibrational              6.708              0.542              0.119

 Normal termination of Gaussian 16 at Fri Aug 22 16:03:34 2025.
