 Gaussian 16, Revision C.01,
 Gaussian 16:  ES64L-G16RevC.01  3-Jul-2019

 -----------------------------------------
 # sp b3lyp/6-311g** Force nosymm scf=(qc)
 -----------------------------------------

 -------------------
 Title Card Required
 -------------------
 Symbolic Z-matrix:
 Charge =  0 Multiplicity = 2

                          Input orientation:
 ---------------------------------------------------------------------
 Center     Atomic      Atomic             Coordinates (Angstroms)
 Number     Number       Type             X           Y           Z
 ---------------------------------------------------------------------
      1          1           0        0.000000    0.000000    0.000000
      2          1           0       -3.650000    0.000000    0.000000
      3          9           0        2.800000    0.000000    0.000000
 ---------------------------------------------------------------------

 SCF Done:  E(UB3LYP) =  -100.762706017     a.u. after   20 cycles

 Alpha  occ. eigenvalues --  -24.73276  -1.19394  -0.52393  -0.43997  -0.43997
 Alpha  occ. eigenvalues --   -0.32624
 Alpha virt. eigenvalues --   -0.08745   0.23767   0.35932   0.89856   0.92755
 Alpha virt. eigenvalues --    0.92755   1.05043   1.24880   1.24880   1.24970
 Alpha virt. eigenvalues --    1.43024   1.43024   1.43986   2.14517   2.39278

  Beta  occ. eigenvalues --  -24.70307  -1.10903  -0.41029  -0.41029  -0.34284
  Beta virt. eigenvalues --   -0.24301  -0.06392   0.23880   0.38017   0.94195
  Beta virt. eigenvalues --    0.94195   0.98078   1.08422   1.23030   1.23030
  Beta virt. eigenvalues --    1.24598   1.46069   1.46308   1.46308   2.14118

 Mulliken charges and spin densities:
               1          2
     1  H    0.053957  -0.938628
     2  H    0.000409   0.998583
     3  F   -0.054366   0.940045
 Sum of Mulliken charges =  -0.00000   1.00000

 Dipole moment (field-independent basis, Debye):
    X=             -0.7873    Y=             -0.0000    Z=             -0.0000  Tot=              0.7873
 Quadrupole moment (field-independent basis, Debye-Ang):
   XX=             -8.7340   YY=             -7.5964   ZZ=             -7.5964
   XY=             -0.0000   XZ=             -0.0000   YZ=             -0.0000

  Exact polarizability:      31.859      -0.000       2.024      -0.000      -0.000       2.024
 Approx polarizability:      35.890      -0.000       1.923      -0.000       0.000       1.923

 ******    2 imaginary frequencies (negative Signs) ******

                      1                      2                      3
                      A                      A                      A
 Frequencies --   -454.2861              -101.9928               165.6020
 Red. masses --      1.0527                 1.0589                 1.0215
 Frc consts  --      0.1280                 0.0065                 0.0165
 IR Inten    --     54.8270                 0.2331                 2.7847

                      4
                      A
 Frequencies --    165.6020
 Red. masses --      1.0215
 Frc consts  --      0.0165
 IR Inten    --      2.7847

 - Thermochemistry -
 -------------------
 Temperature   298.150 Kelvin.  Pressure   1.00000 Atm.
 Atom     1 has atomic number  1 and mass   1.00783

 Molecular mass:    21.01405 amu.
 Principal axes and moments of inertia in atomic units:
                           1         2         3
     Eigenvalues --     0.00000 163.17530 163.17530
           X            1.00000  -0.00000   0.00000
           Y            0.00000   1.00000   0.00000
           Z            0.00000   0.00000   1.00000
 This molecule is a prolate symmetric top.
 Rotational symmetry number  1.
 Rotational temperature (Kelvin)      0.53080
 Rotational constant (GHZ):          11.060137
    2 imaginary frequencies ignored.
 Zero-point vibrational energy       1981.0 (Joules/Mol)
                                    0.47348 (Kcal/Mol)
 Warning -- explicit consideration of   2 degrees of freedom as
           vibrations may cause significant error
 Vibrational temperatures:    238.26   238.26
          (Kelvin)

 Zero-point correction=                           0.000755 (Hartree/Particle)
 Thermal correction to Energy=                    0.004348
 Thermal correction to Enthalpy=                  0.005292
 Thermal correction to Gibbs Free Energy=        -0.021307
 Sum of electronic and zero-point Energies=           -100.761951
 Sum of electronic and thermal Energies=              -100.758358
 Sum of electronic and thermal Enthalpies=            -100.757414
 Sum of electronic and thermal Free Energies=         -100.784013

                     E (Thermal)             CV                S
                      KCal/Mol        Cal/Mol-Kelvin    Cal/Mol-Kelvin
 Total                    2.729              8.737             55.983
 Electronic               0.000              0.000              1.377
 Translational            0.889              2.981             35.068
 Rotational               0.592              1.987             14.568
 Vibrational              1.247              3.769              4.970
 Vibration     1          0.624              1.885              2.485
 Vibration     2          0.624              1.885              2.485

 Normal termination of Gaussian 16 at Fri Aug 22 18:44:46 2025.
