 Gaussian 16, Revision C.01,
 Gaussian 16:  ES64L-G16RevC.01  3-Jul-2019

 -----------------------------------------
 # sp b3lyp/6-311g** Force nosymm scf=(qc)
 -----------------------------------------

 -------------------
 Title Card Required
 -------------------
 Symbolic Z-matrix:
 Charge =  0 Multiplicity = 2

                          Input orientation:
 ---------------------------------------------------------------------
 Center     Atomic      Atomic             Coordinates (Angstroms)
 Number     Number       Type             X           Y           Z
 ---------------------------------------------------------------------
      1          1           0        0.000000    0.000000    0.000000
      2          1           0       -1.150000    0.000000    0.000000
      3          9           0        2.350000    0.000000    0.000000
 ---------------------------------------------------------------------

 SCF Done:  E(UB3LYP) =  -100.882501609     a.u. after   14 cycles

 Alpha  occ. eigenvalues --  -24.74684  -1.20718  -0.53975  -0.45209  -0.45209
 Alpha  occ. eigenvalues --   -0.38460
 Alpha virt. eigenvalues --   -0.03469   0.22128   0.35777   0.88989   0.91646
 Alpha virt. eigenvalues --    0.91646   1.09089   1.10209   1.10209   1.29015
 Alpha virt. eigenvalues --    1.55530   1.55530   2.10812   2.31654   2.54835

  Beta  occ. eigenvalues --  -24.71661  -1.12070  -0.42187  -0.42187  -0.38196
  Beta virt. eigenvalues --   -0.25692  -0.02696   0.22566   0.36250   0.93071
  Beta virt. eigenvalues --    0.93071   0.96957   1.10686   1.10686   1.12354
  Beta virt. eigenvalues --    1.30744   1.55910   1.55910   2.11418   2.32237

 Mulliken charges and spin densities:
               1          2
     1  H    0.002510  -0.047580
     2  H    0.031205   0.093417
     3  F   -0.033715   0.954163
 Sum of Mulliken charges =   0.00000   1.00000

 Dipole moment (field-independent basis, Debye):
    X=             -0.5662    Y=              0.0000    Z=              0.0000  Tot=              0.5662
 Quadrupole moment (field-independent basis, Debye-Ang):
   XX=             -6.2118   YY=             -7.4026   ZZ=             -7.4026
   XY=              0.0000   XZ=              0.0000   YZ=             -0.0000

  Exact polarizability:      35.266       0.000       2.143       0.000       0.000       2.143
 Approx polarizability:      44.501       0.000       2.135       0.000       0.000       2.135

 ******    1 imaginary frequencies (negative Signs) ******

                      1                      2                      3
                      A                      A                      A
 Frequencies --   -582.8274               307.0781              1439.2617
 Red. masses --      1.0462                 1.0655                 1.0116
 Frc consts  --      0.2094                 0.0592                 1.2346
 IR Inten    --    340.6289                55.6356                 0.0043

                      4
                      A
 Frequencies --   1439.2617
 Red. masses --      1.0116
 Frc consts  --      1.2346
 IR Inten    --      0.0043

 - Thermochemistry -
 -------------------
 Temperature   298.150 Kelvin.  Pressure   1.00000 Atm.
 Atom     1 has atomic number  1 and mass   1.00783

 Molecular mass:    21.01405 amu.
 Principal axes and moments of inertia in atomic units:
                           1         2         3
     Eigenvalues --     0.00000  58.05634  58.05634
           X            1.00000  -0.00000   0.00000
           Y            0.00000   1.00000   0.00000
           Z            0.00000   0.00000   1.00000
 This molecule is a prolate symmetric top.
 Rotational symmetry number  1.
 Rotational temperature (Kelvin)      1.49189
 Rotational constant (GHZ):          31.086032
    1 imaginary frequencies ignored.
 Zero-point vibrational energy      19054.1 (Joules/Mol)
                                    4.55405 (Kcal/Mol)
 Warning -- explicit consideration of   1 degrees of freedom as
           vibrations may cause significant error
 Vibrational temperatures:    441.82  2070.78  2070.78
          (Kelvin)

 Zero-point correction=                           0.007257 (Hartree/Particle)
 Thermal correction to Energy=                    0.010042
 Thermal correction to Enthalpy=                  0.010986
 Thermal correction to Gibbs Free Energy=        -0.012946
 Sum of electronic and zero-point Energies=           -100.875244
 Sum of electronic and thermal Energies=              -100.872460
 Sum of electronic and thermal Enthalpies=            -100.871516
 Sum of electronic and thermal Free Energies=         -100.895447

                     E (Thermal)             CV                S
                      KCal/Mol        Cal/Mol-Kelvin    Cal/Mol-Kelvin
 Total                    6.301              6.813             50.368
 Electronic               0.000              0.000              1.377
 Translational            0.889              2.981             35.068
 Rotational               0.592              1.987             12.515
 Vibrational              4.820              1.845              1.408
 Vibration     1          0.697              1.660              1.378

 Normal termination of Gaussian 16 at Fri Aug 22 17:25:27 2025.
