 Gaussian 16, Revision C.01,
 Gaussian 16:  ES64L-G16RevC.01  3-Jul-2019

 -----------------------------------------
 # sp b3lyp/6-311g** Force nosymm scf=(qc)
 -----------------------------------------

 -------------------
 Title Card Required
 -------------------
 Symbolic Z-matrix:
 Charge =  0 Multiplicity = 2

                          Input orientation:
 ---------------------------------------------------------------------
 Center     Atomic      Atomic             Coordinates (Angstroms)
 Number     Number       Type             X           Y           Z
 ---------------------------------------------------------------------
      1          1           0        0.000000    0.000000    0.000000
      2          1           0       -0.700000    0.000000    0.000000
      3          9           0        3.900000    0.000000    0.000000
 ---------------------------------------------------------------------

 SCF Done:  E(UB3LYP) =  -100.932260083     a.u. after   63 cycles

 Alpha  occ. eigenvalues --  -24.76191  -1.22081  -0.55285  -0.46462  -0.46441
 Alpha  occ. eigenvalues --   -0.44251
 Alpha virt. eigenvalues --    0.06676   0.19482   0.48337   0.86090   0.90967
 Alpha virt. eigenvalues --    0.91836   1.01145   1.08905   1.08907   1.57355
 Alpha virt. eigenvalues --    1.85804   1.85806   1.89164   2.37708   3.56840

  Beta  occ. eigenvalues --  -24.73035  -1.13006  -0.44263  -0.43285  -0.43277
  Beta virt. eigenvalues --   -0.25933   0.06682   0.19485   0.48365   0.92467
  Beta virt. eigenvalues --    0.93325   0.95556   1.05274   1.08905   1.08907
  Beta virt. eigenvalues --    1.57357   1.85804   1.85806   1.89174   2.37709

 Mulliken charges and spin densities:
               1          2
     1  H   -0.000006  -0.000191
     2  H   -0.001601   0.000018
     3  F    0.001606   1.000173
 Sum of Mulliken charges =   0.00000   1.00000

 Dipole moment (field-independent basis, Debye):
    X=              0.0235    Y=              0.0000    Z=              0.0000  Tot=              0.0235
 Quadrupole moment (field-independent basis, Debye-Ang):
   XX=             -6.2756   YY=             -6.1762   ZZ=             -6.7206
   XY=             -0.0000   XZ=             -0.0000   YZ=              0.3358

  Exact polarizability:       7.418      -0.000       2.309      -0.000       0.181       2.016
 Approx polarizability:       8.423      -0.000       2.482      -0.000       0.226       2.115

 ******    3 imaginary frequencies (negative Signs) ******

                      1                      2                      3
                      A                      A                      A
 Frequencies --  -1183.6557             -1181.6307               -53.0354
 Red. masses --      1.0085                 1.0085                 1.1085
 Frc consts  --      0.8325                 0.8296                 0.0018
 IR Inten    --      0.0000                 0.0000                 0.0535

                      4
                      A
 Frequencies --   5087.7465
 Red. masses --      1.0078
 Frc consts  --     15.3704
 IR Inten    --      0.0210

 - Thermochemistry -
 -------------------
 Temperature   298.150 Kelvin.  Pressure   1.00000 Atm.
 Atom     1 has atomic number  1 and mass   1.00783

 Molecular mass:    21.01405 amu.
 Principal axes and moments of inertia in atomic units:
                           1         2         3
     Eigenvalues --     0.00000 118.42509 118.42509
           X            1.00000  -0.00000   0.00000
           Y            0.00000   1.00000   0.00000
           Z            0.00000   0.00000   1.00000
 This molecule is a prolate symmetric top.
 Rotational symmetry number  1.
 Rotational temperature (Kelvin)      0.73138
 Rotational constant (GHZ):          15.239517
    3 imaginary frequencies ignored.
 Zero-point vibrational energy      30431.5 (Joules/Mol)
                                    7.27330 (Kcal/Mol)
 Vibrational temperatures:   7320.13
          (Kelvin)

 Zero-point correction=                           0.011591 (Hartree/Particle)
 Thermal correction to Energy=                    0.013951
 Thermal correction to Enthalpy=                  0.014895
 Thermal correction to Gibbs Free Energy=        -0.009040
 Sum of electronic and zero-point Energies=           -100.920669
 Sum of electronic and thermal Energies=              -100.918309
 Sum of electronic and thermal Enthalpies=            -100.917365
 Sum of electronic and thermal Free Energies=         -100.941300

                     E (Thermal)             CV                S
                      KCal/Mol        Cal/Mol-Kelvin    Cal/Mol-Kelvin
 Total                    8.755              4.968             50.377
 Electronic               0.000              0.000              1.377
 Translational            0.889              2.981             35.068
 Rotational               0.592              1.987             13.931
 Vibrational              7.273              0.000              0.000

 Normal termination of Gaussian 16 at Sat Aug 23 01:12:56 2025.
