 Gaussian 16, Revision C.01,
 Gaussian 16:  ES64L-G16RevC.01  3-Jul-2019

 -----------------------------------------
 # sp b3lyp/6-311g** Force nosymm scf=(qc)
 -----------------------------------------

 -------------------
 Title Card Required
 -------------------
 Symbolic Z-matrix:
 Charge =  0 Multiplicity = 2

                          Input orientation:
 ---------------------------------------------------------------------
 Center     Atomic      Atomic             Coordinates (Angstroms)
 Number     Number       Type             X           Y           Z
 ---------------------------------------------------------------------
      1          1           0        0.000000    0.000000    0.000000
      2          1           0       -2.750000    0.000000    0.000000
      3          9           0        1.500000    0.000000    0.000000
 ---------------------------------------------------------------------

 SCF Done:  E(UB3LYP) =  -100.855424945     a.u. after    8 cycles

 Alpha  occ. eigenvalues --  -24.64208  -1.09699  -0.43308  -0.36318  -0.36318
 Alpha  occ. eigenvalues --   -0.35114
 Alpha virt. eigenvalues --   -0.13933   0.22100   0.27115   0.93699   0.93699
 Alpha virt. eigenvalues --    1.03491   1.10399   1.22392   1.22392   1.23662
 Alpha virt. eigenvalues --    1.31687   1.31687   1.74097   2.13421   2.19819

  Beta  occ. eigenvalues --  -24.64029  -1.09226  -0.42831  -0.36148  -0.36148
  Beta virt. eigenvalues --   -0.15454  -0.07680   0.24597   0.36433   0.93631
  Beta virt. eigenvalues --    0.93631   1.03938   1.10533   1.30874   1.30874
  Beta virt. eigenvalues --    1.43707   1.43707   1.43830   1.73975   2.18549

 Mulliken charges and spin densities:
               1          2
     1  H    0.340892  -0.043998
     2  H    0.011158   0.987548
     3  F   -0.352050   0.056450
 Sum of Mulliken charges =  -0.00000   1.00000

 Dipole moment (field-independent basis, Debye):
    X=             -2.7405    Y=              0.0000    Z=             -0.0000  Tot=              2.7405
 Quadrupole moment (field-independent basis, Debye-Ang):
   XX=             -9.5433   YY=             -7.3249   ZZ=             -7.3249
   XY=              0.0000   XZ=             -0.0000   YZ=              0.0000

  Exact polarizability:      19.714      -0.000       2.196       0.000      -0.000       2.196
 Approx polarizability:      32.724       0.000       2.123       0.000      -0.000       2.123

 ******    2 imaginary frequencies (negative Signs) ******

                      1                      2                      3
                      A                      A                      A
 Frequencies --  -1268.9291              -194.1772               999.9369
 Red. masses --      1.0523                 1.0593                 1.0267
 Frc consts  --      0.9983                 0.0235                 0.6048
 IR Inten    --     79.6646                 1.8782               105.8810

                      4
                      A
 Frequencies --    999.9369
 Red. masses --      1.0267
 Frc consts  --      0.6048
 IR Inten    --    105.8810

 - Thermochemistry -
 -------------------
 Temperature   298.150 Kelvin.  Pressure   1.00000 Atm.
 Atom     1 has atomic number  1 and mass   1.00783

 Molecular mass:    21.01405 amu.
 Principal axes and moments of inertia in atomic units:
                           1         2         3
     Eigenvalues --     0.00000  67.39804  67.39804
           X            1.00000  -0.00000   0.00000
           Y            0.00000   1.00000   0.00000
           Z            0.00000   0.00000   1.00000
 This molecule is a prolate symmetric top.
 Rotational symmetry number  1.
 Rotational temperature (Kelvin)      1.28511
 Rotational constant (GHZ):          26.777352
    2 imaginary frequencies ignored.
 Zero-point vibrational energy      11961.9 (Joules/Mol)
                                    2.85896 (Kcal/Mol)
 Vibrational temperatures:   1438.69  1438.69
          (Kelvin)

 Zero-point correction=                           0.004556 (Hartree/Particle)
 Thermal correction to Energy=                    0.006990
 Thermal correction to Enthalpy=                  0.007934
 Thermal correction to Gibbs Free Energy=        -0.015558
 Sum of electronic and zero-point Energies=           -100.850869
 Sum of electronic and thermal Energies=              -100.848435
 Sum of electronic and thermal Enthalpies=            -100.847491
 Sum of electronic and thermal Free Energies=         -100.870983

                     E (Thermal)             CV                S
                      KCal/Mol        Cal/Mol-Kelvin    Cal/Mol-Kelvin
 Total                    4.386              5.723             49.444
 Electronic               0.000              0.000              1.377
 Translational            0.889              2.981             35.068
 Rotational               0.592              1.987             12.811
 Vibrational              2.905              0.755              0.187

 Normal termination of Gaussian 16 at Fri Aug 22 16:26:06 2025.
