 Gaussian 16, Revision C.01,
 Gaussian 16:  ES64L-G16RevC.01  3-Jul-2019

 -----------------------------------------
 # sp b3lyp/6-311g** Force nosymm scf=(qc)
 -----------------------------------------

 -------------------
 Title Card Required
 -------------------
 Symbolic Z-matrix:
 Charge =  0 Multiplicity = 2

                          Input orientation:
 ---------------------------------------------------------------------
 Center     Atomic      Atomic             Coordinates (Angstroms)
 Number     Number       Type             X           Y           Z
 ---------------------------------------------------------------------
      1          1           0        0.000000    0.000000    0.000000
      2          1           0       -2.500000    0.000000    0.000000
      3          9           0        1.750000    0.000000    0.000000
 ---------------------------------------------------------------------

 SCF Done:  E(UB3LYP) =  -100.813588171     a.u. after   21 cycles

 Alpha  occ. eigenvalues --  -24.65959  -1.12102  -0.44792  -0.37781  -0.37781
 Alpha  occ. eigenvalues --   -0.35492
 Alpha virt. eigenvalues --   -0.14547   0.23409   0.28820   0.94850   0.94850
 Alpha virt. eigenvalues --    0.95127   1.06521   1.22128   1.22128   1.24966
 Alpha virt. eigenvalues --    1.33522   1.33522   1.72014   2.13090   2.25265

  Beta  occ. eigenvalues --  -24.64218  -1.07331  -0.39479  -0.36088  -0.36088
  Beta virt. eigenvalues --   -0.19060  -0.09688   0.24185   0.34720   0.94756
  Beta virt. eigenvalues --    0.94756   0.96316   1.08389   1.24906   1.24906
  Beta virt. eigenvalues --    1.41148   1.41148   1.42517   1.68179   2.13443

 Mulliken charges and spin densities:
               1          2
     1  H    0.253628  -0.518688
     2  H    0.020776   0.970804
     3  F   -0.274404   0.547884
 Sum of Mulliken charges =   0.00000   1.00000

 Dipole moment (field-independent basis, Debye):
    X=             -2.5907    Y=             -0.0000    Z=             -0.0000  Tot=              2.5907
 Quadrupole moment (field-independent basis, Debye-Ang):
   XX=             -9.5141   YY=             -7.4462   ZZ=             -7.4462
   XY=             -0.0000   XZ=             -0.0000   YZ=              0.0000

  Exact polarizability:      32.600       0.000       2.113       0.000      -0.000       2.113
 Approx polarizability:      43.412      -0.000       2.012      -0.000      -0.000       2.012

 ******    2 imaginary frequencies (negative Signs) ******

                      1                      2                      3
                      A                      A                      A
 Frequencies --  -1665.4606              -368.2516               712.6392
 Red. masses --      1.0502                 1.0614                 1.0228
 Frc consts  --      1.7162                 0.0848                 0.3060
 IR Inten    --     86.9337                10.7700                53.2245

                      4
                      A
 Frequencies --    712.6392
 Red. masses --      1.0228
 Frc consts  --      0.3060
 IR Inten    --     53.2245

 - Thermochemistry -
 -------------------
 Temperature   298.150 Kelvin.  Pressure   1.00000 Atm.
 Atom     1 has atomic number  1 and mass   1.00783

 Molecular mass:    21.01405 amu.
 Principal axes and moments of inertia in atomic units:
                           1         2         3
     Eigenvalues --     0.00000  69.81521  69.81521
           X            1.00000  -0.00000   0.00000
           Y            0.00000   1.00000   0.00000
           Z            0.00000   0.00000   1.00000
 This molecule is a prolate symmetric top.
 Rotational symmetry number  1.
 Rotational temperature (Kelvin)      1.24062
 Rotational constant (GHZ):          25.850259
    2 imaginary frequencies ignored.
 Zero-point vibrational energy       8525.1 (Joules/Mol)
                                    2.03754 (Kcal/Mol)
 Vibrational temperatures:   1025.33  1025.33
          (Kelvin)

 Zero-point correction=                           0.003247 (Hartree/Particle)
 Thermal correction to Energy=                    0.005823
 Thermal correction to Enthalpy=                  0.006767
 Thermal correction to Gibbs Free Energy=        -0.016947
 Sum of electronic and zero-point Energies=           -100.810341
 Sum of electronic and thermal Energies=              -100.807765
 Sum of electronic and thermal Enthalpies=            -100.806821
 Sum of electronic and thermal Free Energies=         -100.830535

                     E (Thermal)             CV                S
                      KCal/Mol        Cal/Mol-Kelvin    Cal/Mol-Kelvin
 Total                    3.654              6.578             49.909
 Electronic               0.000              0.000              1.377
 Translational            0.889              2.981             35.068
 Rotational               0.592              1.987             12.881
 Vibrational              2.173              1.610              0.583

 Normal termination of Gaussian 16 at Fri Aug 22 16:40:57 2025.
