 Gaussian 16, Revision C.01,
 Gaussian 16:  ES64L-G16RevC.01  3-Jul-2019

 -----------------------------------------
 # sp b3lyp/6-311g** Force nosymm scf=(qc)
 -----------------------------------------

 -------------------
 Title Card Required
 -------------------
 Symbolic Z-matrix:
 Charge =  0 Multiplicity = 2

                          Input orientation:
 ---------------------------------------------------------------------
 Center     Atomic      Atomic             Coordinates (Angstroms)
 Number     Number       Type             X           Y           Z
 ---------------------------------------------------------------------
      1          1           0        0.000000    0.000000    0.000000
      2          1           0       -2.450000    0.000000    0.000000
      3          9           0        1.000000    0.000000    0.000000
 ---------------------------------------------------------------------

 SCF Done:  E(UB3LYP) =  -100.966606170     a.u. after    6 cycles

 Alpha  occ. eigenvalues --  -24.64037  -1.15940  -0.51609  -0.38676  -0.38676
 Alpha  occ. eigenvalues --   -0.35100
 Alpha virt. eigenvalues --    0.01887   0.25070   0.34287   0.94157   0.94157
 Alpha virt. eigenvalues --    0.98521   1.19243   1.22448   1.22448   1.36060
 Alpha virt. eigenvalues --    1.36060   1.38879   1.90860   2.13415   2.34498

  Beta  occ. eigenvalues --  -24.64011  -1.15876  -0.51494  -0.38654  -0.38654
  Beta virt. eigenvalues --   -0.10207   0.03734   0.34043   0.37175   0.94160
  Beta virt. eigenvalues --    0.94160   0.98630   1.28537   1.36011   1.36011
  Beta virt. eigenvalues --    1.43836   1.43836   1.50760   1.90858   2.33665

 Mulliken charges and spin densities:
               1          2
     1  H    0.314232   0.003116
     2  H    0.007783   0.989120
     3  F   -0.322015   0.007764
 Sum of Mulliken charges =   0.00000   1.00000

 Dipole moment (field-independent basis, Debye):
    X=             -2.1254    Y=              0.0000    Z=             -0.0000  Tot=              2.1254
 Quadrupole moment (field-independent basis, Debye-Ang):
   XX=             -7.9591   YY=             -6.9531   ZZ=             -6.9531
   XY=             -0.0000   XZ=             -0.0000   YZ=              0.0000

  Exact polarizability:       9.026      -0.000       2.429       0.000       0.000       2.429
 Approx polarizability:      10.240       0.000       2.405       0.000       0.000       2.405

 ******    1 imaginary frequencies (negative Signs) ******

                      1                      2                      3
                      A                      A                      A
 Frequencies --    -87.4782               962.5866               962.5866
 Red. masses --      1.0528                 1.0313                 1.0313
 Frc consts  --      0.0047                 0.5630                 0.5630
 IR Inten    --      1.2072               152.8318               152.8318

                      4
                      A
 Frequencies --   3011.2480
 Red. masses --      1.0588
 Frc consts  --      5.6564
 IR Inten    --    130.0331

 - Thermochemistry -
 -------------------
 Temperature   298.150 Kelvin.  Pressure   1.00000 Atm.
 Atom     1 has atomic number  1 and mass   1.00783

 Molecular mass:    21.01405 amu.
 Principal axes and moments of inertia in atomic units:
                           1         2         3
     Eigenvalues --     0.00000  43.01816  43.01816
           X            1.00000  -0.00000   0.00000
           Y            0.00000   1.00000   0.00000
           Z            0.00000   0.00000   1.00000
 This molecule is a prolate symmetric top.
 Rotational symmetry number  1.
 Rotational temperature (Kelvin)      2.01343
 Rotational constant (GHZ):          41.953009
    1 imaginary frequencies ignored.
 Zero-point vibrational energy      29526.4 (Joules/Mol)
                                    7.05697 (Kcal/Mol)
 Vibrational temperatures:   1384.95  1384.95  4332.51
          (Kelvin)

 Zero-point correction=                           0.011246 (Hartree/Particle)
 Thermal correction to Energy=                    0.013692
 Thermal correction to Enthalpy=                  0.014636
 Thermal correction to Gibbs Free Energy=        -0.008447
 Sum of electronic and zero-point Energies=           -100.955360
 Sum of electronic and thermal Energies=              -100.952915
 Sum of electronic and thermal Enthalpies=            -100.951970
 Sum of electronic and thermal Free Energies=         -100.975053

                     E (Thermal)             CV                S
                      KCal/Mol        Cal/Mol-Kelvin    Cal/Mol-Kelvin
 Total                    8.592              5.808             48.582
 Electronic               0.000              0.000              1.377
 Translational            0.889              2.981             35.068
 Rotational               0.592              1.987             11.919
 Vibrational              7.110              0.840              0.217

 Normal termination of Gaussian 16 at Fri Aug 22 16:00:51 2025.
