 Gaussian 16, Revision C.01,
 Gaussian 16:  ES64L-G16RevC.01  3-Jul-2019

 -----------------------------------------
 # sp b3lyp/6-311g** Force nosymm scf=(qc)
 -----------------------------------------

 -------------------
 Title Card Required
 -------------------
 Symbolic Z-matrix:
 Charge =  0 Multiplicity = 2

                          Input orientation:
 ---------------------------------------------------------------------
 Center     Atomic      Atomic             Coordinates (Angstroms)
 Number     Number       Type             X           Y           Z
 ---------------------------------------------------------------------
      1          1           0        0.000000    0.000000    0.000000
      2          1           0       -1.250000    0.000000    0.000000
      3          9           0        2.500000    0.000000    0.000000
 ---------------------------------------------------------------------

 SCF Done:  E(UB3LYP) =  -100.864063369     a.u. after   21 cycles

 Alpha  occ. eigenvalues --  -24.74860  -1.20874  -0.54078  -0.45351  -0.45351
 Alpha  occ. eigenvalues --   -0.37172
 Alpha virt. eigenvalues --   -0.05830   0.22759   0.33865   0.89363   0.91657
 Alpha virt. eigenvalues --    0.91657   1.07954   1.12683   1.12683   1.20183
 Alpha virt. eigenvalues --    1.50472   1.50472   2.01850   2.29051   2.53895

  Beta  occ. eigenvalues --  -24.71817  -1.12158  -0.42307  -0.42307  -0.36901
  Beta virt. eigenvalues --   -0.25718  -0.05199   0.23142   0.34365   0.93100
  Beta virt. eigenvalues --    0.93100   0.97422   1.11193   1.13065   1.13065
  Beta virt. eigenvalues --    1.21888   1.50797   1.50797   2.02319   2.29570

 Mulliken charges and spin densities:
               1          2
     1  H    0.000513  -0.055319
     2  H    0.028070   0.093664
     3  F   -0.028583   0.961656
 Sum of Mulliken charges =  -0.00000   1.00000

 Dipole moment (field-independent basis, Debye):
    X=             -0.5272    Y=             -0.0000    Z=              0.0000  Tot=              0.5272
 Quadrupole moment (field-independent basis, Debye-Ang):
   XX=             -6.1730   YY=             -7.5103   ZZ=             -7.5103
   XY=             -0.0000   XZ=              0.0000   YZ=             -0.0000

  Exact polarizability:      39.797       0.000       2.034      -0.000       0.000       2.034
 Approx polarizability:      51.300      -0.000       2.109       0.000       0.000       2.109

 ******    2 imaginary frequencies (negative Signs) ******

                      1                      2                      3
                      A                      A                      A
 Frequencies --  -1048.6119              -196.3146              1427.8420
 Red. masses --      1.0104                 1.1054                 1.0117
 Frc consts  --      0.6546                 0.0251                 1.2153
 IR Inten    --    352.7287                 6.4758                 0.5232

                      4
                      A
 Frequencies --   1427.8421
 Red. masses --      1.0117
 Frc consts  --      1.2153
 IR Inten    --      0.5232

 - Thermochemistry -
 -------------------
 Temperature   298.150 Kelvin.  Pressure   1.00000 Atm.
 Atom     1 has atomic number  1 and mass   1.00783

 Molecular mass:    21.01405 amu.
 Principal axes and moments of inertia in atomic units:
                           1         2         3
     Eigenvalues --     0.00000  66.36240  66.36240
           X            1.00000  -0.00000   0.00000
           Y            0.00000   1.00000   0.00000
           Z            0.00000   0.00000   1.00000
 This molecule is a prolate symmetric top.
 Rotational symmetry number  1.
 Rotational temperature (Kelvin)      1.30517
 Rotational constant (GHZ):          27.195236
    2 imaginary frequencies ignored.
 Zero-point vibrational energy      17080.8 (Joules/Mol)
                                    4.08241 (Kcal/Mol)
 Vibrational temperatures:   2054.35  2054.35
          (Kelvin)

 Zero-point correction=                           0.006506 (Hartree/Particle)
 Thermal correction to Energy=                    0.008879
 Thermal correction to Enthalpy=                  0.009824
 Thermal correction to Gibbs Free Energy=        -0.013580
 Sum of electronic and zero-point Energies=           -100.857558
 Sum of electronic and thermal Energies=              -100.855184
 Sum of electronic and thermal Enthalpies=            -100.854240
 Sum of electronic and thermal Free Energies=         -100.877644

                     E (Thermal)             CV                S
                      KCal/Mol        Cal/Mol-Kelvin    Cal/Mol-Kelvin
 Total                    5.572              5.160             49.258
 Electronic               0.000              0.000              1.377
 Translational            0.889              2.981             35.068
 Rotational               0.592              1.987             12.780
 Vibrational              4.091              0.192              0.032

 Normal termination of Gaussian 16 at Fri Aug 22 17:43:56 2025.
