 Gaussian 16, Revision C.01,
 Gaussian 16:  ES64L-G16RevC.01  3-Jul-2019

 -----------------------------------------
 # sp b3lyp/6-311g** Force nosymm scf=(qc)
 -----------------------------------------

 -------------------
 Title Card Required
 -------------------
 Symbolic Z-matrix:
 Charge =  0 Multiplicity = 2

                          Input orientation:
 ---------------------------------------------------------------------
 Center     Atomic      Atomic             Coordinates (Angstroms)
 Number     Number       Type             X           Y           Z
 ---------------------------------------------------------------------
      1          1           0        0.000000    0.000000    0.000000
      2          1           0       -2.600000    0.000000    0.000000
      3          9           0        2.000000    0.000000    0.000000
 ---------------------------------------------------------------------

 SCF Done:  E(UB3LYP) =  -100.789849795     a.u. after   12 cycles

 Alpha  occ. eigenvalues --  -24.68145  -1.14461  -0.47132  -0.39676  -0.39676
 Alpha  occ. eigenvalues --   -0.34635
 Alpha virt. eigenvalues --   -0.13831   0.23788   0.30991   0.89607   0.94935
 Alpha virt. eigenvalues --    0.94935   1.06193   1.22981   1.22981   1.25329
 Alpha virt. eigenvalues --    1.35079   1.35079   1.60358   2.14016   2.29061

  Beta  occ. eigenvalues --  -24.65775  -1.07838  -0.37773  -0.37341  -0.37341
  Beta virt. eigenvalues --   -0.20807  -0.09515   0.24557   0.35111   0.91630
  Beta virt. eigenvalues --    0.95587   0.95587   1.08639   1.22263   1.22263
  Beta virt. eigenvalues --    1.41962   1.41962   1.42663   1.54167   2.13215

 Mulliken charges and spin densities:
               1          2
     1  H    0.178508  -0.721910
     2  H    0.014368   0.976737
     3  F   -0.192876   0.745173
 Sum of Mulliken charges =  -0.00000   1.00000

 Dipole moment (field-independent basis, Debye):
    X=             -2.0864    Y=              0.0000    Z=             -0.0000  Tot=              2.0864
 Quadrupole moment (field-independent basis, Debye-Ang):
   XX=             -9.5153   YY=             -7.5168   ZZ=             -7.5168
   XY=              0.0000   XZ=             -0.0000   YZ=             -0.0000

  Exact polarizability:      35.477       0.000       2.059      -0.000      -0.000       2.059
 Approx polarizability:      44.030       0.000       1.950      -0.000       0.000       1.950

 ******    2 imaginary frequencies (negative Signs) ******

                      1                      2                      3
                      A                      A                      A
 Frequencies --  -1191.2697              -352.7705               499.8720
 Red. masses --      1.0466                 1.0651                 1.0214
 Frc consts  --      0.8751                 0.0781                 0.1504
 IR Inten    --     99.9665                10.9921                26.8984

                      4
                      A
 Frequencies --    499.8720
 Red. masses --      1.0214
 Frc consts  --      0.1504
 IR Inten    --     26.8984

 - Thermochemistry -
 -------------------
 Temperature   298.150 Kelvin.  Pressure   1.00000 Atm.
 Atom     1 has atomic number  1 and mass   1.00783

 Molecular mass:    21.01405 amu.
 Principal axes and moments of inertia in atomic units:
                           1         2         3
     Eigenvalues --     0.00000  83.03230  83.03230
           X            1.00000  -0.00000   0.00000
           Y            0.00000   1.00000   0.00000
           Z            0.00000   0.00000   1.00000
 This molecule is a prolate symmetric top.
 Rotational symmetry number  1.
 Rotational temperature (Kelvin)      1.04314
 Rotational constant (GHZ):          21.735412
    2 imaginary frequencies ignored.
 Zero-point vibrational energy       5979.8 (Joules/Mol)
                                    1.42921 (Kcal/Mol)
 Warning -- explicit consideration of   2 degrees of freedom as
           vibrations may cause significant error
 Vibrational temperatures:    719.20   719.20
          (Kelvin)

 Zero-point correction=                           0.002278 (Hartree/Particle)
 Thermal correction to Energy=                    0.005086
 Thermal correction to Enthalpy=                  0.006031
 Thermal correction to Gibbs Free Energy=        -0.018195
 Sum of electronic and zero-point Energies=           -100.787572
 Sum of electronic and thermal Energies=              -100.784763
 Sum of electronic and thermal Enthalpies=            -100.783819
 Sum of electronic and thermal Free Energies=         -100.808045

                     E (Thermal)             CV                S
                      KCal/Mol        Cal/Mol-Kelvin    Cal/Mol-Kelvin
 Total                    3.192              7.469             50.988
 Electronic               0.000              0.000              1.377
 Translational            0.889              2.981             35.068
 Rotational               0.592              1.987             13.226
 Vibrational              1.711              2.501              1.317
 Vibration     1          0.855              1.250              0.658
 Vibration     2          0.855              1.250              0.658

 Normal termination of Gaussian 16 at Fri Aug 22 16:57:00 2025.
