 Gaussian 16, Revision C.01,
 Gaussian 16:  ES64L-G16RevC.01  3-Jul-2019

 -----------------------------------------
 # sp b3lyp/6-311g** Force nosymm scf=(qc)
 -----------------------------------------

 -------------------
 Title Card Required
 -------------------
 Symbolic Z-matrix:
 Charge =  0 Multiplicity = 2

                          Input orientation:
 ---------------------------------------------------------------------
 Center     Atomic      Atomic             Coordinates (Angstroms)
 Number     Number       Type             X           Y           Z
 ---------------------------------------------------------------------
      1          1           0        0.000000    0.000000    0.000000
      2          1           0       -1.500000    0.000000    0.000000
      3          9           0        0.850000    0.000000    0.000000
 ---------------------------------------------------------------------

 SCF Done:  E(UB3LYP) =  -100.962774810     a.u. after    5 cycles

 Alpha  occ. eigenvalues --  -24.63523  -1.20832  -0.55977  -0.39911  -0.39911
 Alpha  occ. eigenvalues --   -0.36582
 Alpha virt. eigenvalues --    0.11475   0.21337   0.42311   0.94229   0.94229
 Alpha virt. eigenvalues --    0.97453   1.16352   1.16352   1.25481   1.43444
 Alpha virt. eigenvalues --    1.43444   1.54127   2.07277   2.20137   2.70313

  Beta  occ. eigenvalues --  -24.63337  -1.20348  -0.54756  -0.39754  -0.39754
  Beta virt. eigenvalues --   -0.14076   0.13178   0.28274   0.46113   0.94404
  Beta virt. eigenvalues --    0.94404   0.97846   1.27969   1.27969   1.33332
  Beta virt. eigenvalues --    1.48815   1.48815   1.59140   2.14934   2.31263

 Mulliken charges and spin densities:
               1          2
     1  H    0.264306   0.009278
     2  H    0.021834   0.948915
     3  F   -0.286140   0.041807
 Sum of Mulliken charges =   0.00000   1.00000

 Dipole moment (field-independent basis, Debye):
    X=             -1.9654    Y=              0.0000    Z=              0.0000  Tot=              1.9654
 Quadrupole moment (field-independent basis, Debye-Ang):
   XX=             -7.3774   YY=             -6.7098   ZZ=             -6.7098
   XY=              0.0000   XZ=              0.0000   YZ=             -0.0000

  Exact polarizability:       9.608       0.000       2.543      -0.000      -0.000       2.543
 Approx polarizability:       9.799      -0.000       2.548      -0.000      -0.000       2.548

 ******    2 imaginary frequencies (negative Signs) ******

                      1                      2                      3
                      A                      A                      A
 Frequencies --  -1351.9936             -1351.9936               656.9991
 Red. masses --      1.0260                 1.0260                 1.0527
 Frc consts  --      1.1050                 1.1050                 0.2677
 IR Inten    --    124.3298               124.3298                 0.8325

                      4
                      A
 Frequencies --   5226.4431
 Red. masses --      1.0588
 Frc consts  --     17.0406
 IR Inten    --    189.4523

 - Thermochemistry -
 -------------------
 Temperature   298.150 Kelvin.  Pressure   1.00000 Atm.
 Atom     1 has atomic number  1 and mass   1.00783

 Molecular mass:    21.01405 amu.
 Principal axes and moments of inertia in atomic units:
                           1         2         3
     Eigenvalues --     0.00000  20.70831  20.70831
           X            1.00000  -0.00000   0.00000
           Y            0.00000   1.00000   0.00000
           Z            0.00000   0.00000   1.00000
 This molecule is a prolate symmetric top.
 Rotational symmetry number  1.
 Rotational temperature (Kelvin)      4.18257
 Rotational constant (GHZ):          87.150564
    2 imaginary frequencies ignored.
 Zero-point vibrational energy      35190.8 (Joules/Mol)
                                    8.41080 (Kcal/Mol)
 Vibrational temperatures:    945.28  7519.69
          (Kelvin)

 Zero-point correction=                           0.013403 (Hartree/Particle)
 Thermal correction to Energy=                    0.015895
 Thermal correction to Enthalpy=                  0.016839
 Thermal correction to Gibbs Free Energy=        -0.005621
 Sum of electronic and zero-point Energies=           -100.949371
 Sum of electronic and thermal Energies=              -100.946880
 Sum of electronic and thermal Enthalpies=            -100.945936
 Sum of electronic and thermal Free Energies=         -100.968396

                     E (Thermal)             CV                S
                      KCal/Mol        Cal/Mol-Kelvin    Cal/Mol-Kelvin
 Total                    9.974              5.882             47.273
 Electronic               0.000              0.000              1.377
 Translational            0.889              2.981             35.068
 Rotational               0.592              1.987             10.466
 Vibrational              8.493              0.914              0.361

 Normal termination of Gaussian 16 at Fri Aug 22 15:53:07 2025.
