 Gaussian 16, Revision C.01,
 Gaussian 16:  ES64L-G16RevC.01  3-Jul-2019

 -----------------------------------------
 # sp b3lyp/6-311g** Force nosymm scf=(qc)
 -----------------------------------------

 -------------------
 Title Card Required
 -------------------
 Symbolic Z-matrix:
 Charge =  0 Multiplicity = 2

                          Input orientation:
 ---------------------------------------------------------------------
 Center     Atomic      Atomic             Coordinates (Angstroms)
 Number     Number       Type             X           Y           Z
 ---------------------------------------------------------------------
      1          1           0        0.000000    0.000000    0.000000
      2          1           0       -0.850000    0.000000    0.000000
      3          9           0        1.000000    0.000000    0.000000
 ---------------------------------------------------------------------

 SCF Done:  E(UB3LYP) =  -100.948060965     a.u. after    5 cycles

 Alpha  occ. eigenvalues --  -24.65904  -1.18920  -0.60740  -0.40545  -0.40545
 Alpha  occ. eigenvalues --   -0.35921
 Alpha virt. eigenvalues --    0.13406   0.18477   0.50982   0.88322   0.88322
 Alpha virt. eigenvalues --    0.96271   1.08659   1.08659   1.45066   1.70114
 Alpha virt. eigenvalues --    1.70114   1.71756   2.15142   2.30414   3.29408

  Beta  occ. eigenvalues --  -24.64636  -1.15714  -0.54012  -0.39404  -0.39404
  Beta virt. eigenvalues --   -0.18344   0.15413   0.20462   0.56465   0.90192
  Beta virt. eigenvalues --    0.90192   0.98864   1.13450   1.13450   1.47125
  Beta virt. eigenvalues --    1.74521   1.74521   1.80335   2.14775   2.40752

 Mulliken charges and spin densities:
               1          2
     1  H    0.277402  -0.021726
     2  H   -0.007819   0.697813
     3  F   -0.269583   0.323912
 Sum of Mulliken charges =   0.00000   1.00000

 Dipole moment (field-independent basis, Debye):
    X=             -1.7237    Y=             -0.0000    Z=              0.0000  Tot=              1.7237
 Quadrupole moment (field-independent basis, Debye-Ang):
   XX=             -7.5566   YY=             -6.6124   ZZ=             -6.6124
   XY=             -0.0000   XZ=              0.0000   YZ=             -0.0000

  Exact polarizability:      14.334      -0.000       2.560      -0.000      -0.000       2.560
 Approx polarizability:      17.165       0.000       2.602      -0.000       0.000       2.602

 ******    2 imaginary frequencies (negative Signs) ******

                      1                      2                      3
                      A                      A                      A
 Frequencies --  -1261.8864             -1261.8864              2068.9248
 Red. masses --      1.0161                 1.0161                 1.1055
 Frc consts  --      0.9533                 0.9533                 2.7879
 IR Inten    --     43.2534                43.2534                53.7022

                      4
                      A
 Frequencies --   2669.8143
 Red. masses --      1.0104
 Frc consts  --      4.2431
 IR Inten    --     75.6763

 - Thermochemistry -
 -------------------
 Temperature   298.150 Kelvin.  Pressure   1.00000 Atm.
 Atom     1 has atomic number  1 and mass   1.00783

 Molecular mass:    21.01405 amu.
 Principal axes and moments of inertia in atomic units:
                           1         2         3
     Eigenvalues --     0.00000  14.51462  14.51462
           X            1.00000  -0.00000   0.00000
           Y            0.00000   1.00000   0.00000
           Z            0.00000   0.00000   1.00000
 This molecule is a prolate symmetric top.
 Rotational symmetry number  1.
 Rotational temperature (Kelvin)      5.96736
 Rotational constant (GHZ):         124.339580
    2 imaginary frequencies ignored.
 Zero-point vibrational energy      28344.0 (Joules/Mol)
                                    6.77437 (Kcal/Mol)
 Vibrational temperatures:   2976.72  3841.27
          (Kelvin)

 Zero-point correction=                           0.010796 (Hartree/Particle)
 Thermal correction to Energy=                    0.013157
 Thermal correction to Enthalpy=                  0.014101
 Thermal correction to Gibbs Free Energy=        -0.007853
 Sum of electronic and zero-point Energies=           -100.937265
 Sum of electronic and thermal Energies=              -100.934904
 Sum of electronic and thermal Enthalpies=            -100.933960
 Sum of electronic and thermal Free Energies=         -100.955914

                     E (Thermal)             CV                S
                      KCal/Mol        Cal/Mol-Kelvin    Cal/Mol-Kelvin
 Total                    8.256              4.978             46.206
 Electronic               0.000              0.000              1.377
 Translational            0.889              2.981             35.068
 Rotational               0.592              1.987              9.760
 Vibrational              6.775              0.010              0.001

 Normal termination of Gaussian 16 at Fri Aug 22 15:59:44 2025.
