 Gaussian 16, Revision C.01,
 Gaussian 16:  ES64L-G16RevC.01  3-Jul-2019

 -----------------------------------------
 # sp b3lyp/6-311g** Force nosymm scf=(qc)
 -----------------------------------------

 -------------------
 Title Card Required
 -------------------
 Symbolic Z-matrix:
 Charge =  0 Multiplicity = 2

                          Input orientation:
 ---------------------------------------------------------------------
 Center     Atomic      Atomic             Coordinates (Angstroms)
 Number     Number       Type             X           Y           Z
 ---------------------------------------------------------------------
      1          1           0        0.000000    0.000000    0.000000
      2          1           0       -2.450000    0.000000    0.000000
      3          9           0        1.450000    0.000000    0.000000
 ---------------------------------------------------------------------

 SCF Done:  E(UB3LYP) =  -100.867324696     a.u. after    8 cycles

 Alpha  occ. eigenvalues --  -24.64032  -1.09834  -0.43940  -0.36297  -0.36297
 Alpha  occ. eigenvalues --   -0.35776
 Alpha virt. eigenvalues --   -0.12212   0.23301   0.26699   0.93612   0.93612
 Alpha virt. eigenvalues --    1.03574   1.12631   1.21695   1.21695   1.25408
 Alpha virt. eigenvalues --    1.32597   1.32597   1.73908   2.12564   2.21347

  Beta  occ. eigenvalues --  -24.63832  -1.09310  -0.43292  -0.36108  -0.36108
  Beta virt. eigenvalues --   -0.15286  -0.07213   0.25611   0.35442   0.93552
  Beta virt. eigenvalues --    0.93552   1.04067   1.13643   1.31815   1.31815
  Beta virt. eigenvalues --    1.42058   1.42058   1.43658   1.73918   2.19682

 Mulliken charges and spin densities:
               1          2
     1  H    0.338737  -0.040171
     2  H    0.019073   0.977523
     3  F   -0.357810   0.062648
 Sum of Mulliken charges =   0.00000   1.00000

 Dipole moment (field-independent basis, Debye):
    X=             -2.7847    Y=             -0.0000    Z=             -0.0000  Tot=              2.7847
 Quadrupole moment (field-independent basis, Debye-Ang):
   XX=             -9.1842   YY=             -7.2926   ZZ=             -7.2926
   XY=             -0.0000   XZ=             -0.0000   YZ=              0.0000

  Exact polarizability:      20.522       0.000       2.228       0.000      -0.000       2.228
 Approx polarizability:      31.347      -0.000       2.161      -0.000      -0.000       2.161

 ******    2 imaginary frequencies (negative Signs) ******

                      1                      2                      3
                      A                      A                      A
 Frequencies --  -1262.8114              -245.2645              1030.8231
 Red. masses --      1.0474                 1.0643                 1.0254
 Frc consts  --      0.9841                 0.0377                 0.6419
 IR Inten    --    131.1497                 2.0419               101.4460

                      4
                      A
 Frequencies --   1030.8231
 Red. masses --      1.0254
 Frc consts  --      0.6419
 IR Inten    --    101.4460

 - Thermochemistry -
 -------------------
 Temperature   298.150 Kelvin.  Pressure   1.00000 Atm.
 Atom     1 has atomic number  1 and mass   1.00783

 Molecular mass:    21.01405 amu.
 Principal axes and moments of inertia in atomic units:
                           1         2         3
     Eigenvalues --     0.00000  57.36739  57.36739
           X            1.00000  -0.00000   0.00000
           Y            0.00000   1.00000   0.00000
           Z            0.00000   0.00000   1.00000
 This molecule is a prolate symmetric top.
 Rotational symmetry number  1.
 Rotational temperature (Kelvin)      1.50981
 Rotational constant (GHZ):          31.459355
    2 imaginary frequencies ignored.
 Zero-point vibrational energy      12331.4 (Joules/Mol)
                                    2.94727 (Kcal/Mol)
 Vibrational temperatures:   1483.12  1483.12
          (Kelvin)

 Zero-point correction=                           0.004697 (Hartree/Particle)
 Thermal correction to Energy=                    0.007123
 Thermal correction to Enthalpy=                  0.008067
 Thermal correction to Gibbs Free Energy=        -0.015263
 Sum of electronic and zero-point Energies=           -100.862628
 Sum of electronic and thermal Energies=              -100.860202
 Sum of electronic and thermal Enthalpies=            -100.859258
 Sum of electronic and thermal Free Energies=         -100.882588

                     E (Thermal)             CV                S
                      KCal/Mol        Cal/Mol-Kelvin    Cal/Mol-Kelvin
 Total                    4.470              5.657             49.101
 Electronic               0.000              0.000              1.377
 Translational            0.889              2.981             35.068
 Rotational               0.592              1.987             12.491
 Vibrational              2.988              0.689              0.165

 Normal termination of Gaussian 16 at Fri Aug 22 16:23:09 2025.
