 Gaussian 16, Revision C.01,
 Gaussian 16:  ES64L-G16RevC.01  3-Jul-2019

 -----------------------------------------
 # sp b3lyp/6-311g** Force nosymm scf=(qc)
 -----------------------------------------

 -------------------
 Title Card Required
 -------------------
 Symbolic Z-matrix:
 Charge =  0 Multiplicity = 2

                          Input orientation:
 ---------------------------------------------------------------------
 Center     Atomic      Atomic             Coordinates (Angstroms)
 Number     Number       Type             X           Y           Z
 ---------------------------------------------------------------------
      1          1           0        0.000000    0.000000    0.000000
      2          1           0       -3.750000    0.000000    0.000000
      3          9           0        0.900000    0.000000    0.000000
 ---------------------------------------------------------------------

 SCF Done:  E(UB3LYP) =  -100.971447207     a.u. after    5 cycles

 Alpha  occ. eigenvalues --  -24.64003  -1.19054  -0.53866  -0.39663  -0.39663
 Alpha  occ. eigenvalues --   -0.33436
 Alpha virt. eigenvalues --    0.03115   0.24060   0.39657   0.94326   0.94326
 Alpha virt. eigenvalues --    0.97738   1.23968   1.24073   1.24073   1.29157
 Alpha virt. eigenvalues --    1.37255   1.37255   2.00333   2.14331   2.37184

  Beta  occ. eigenvalues --  -24.64002  -1.19052  -0.53864  -0.39662  -0.39662
  Beta virt. eigenvalues --   -0.05137   0.03444   0.37669   0.40875   0.94326
  Beta virt. eigenvalues --    0.94326   0.97737   1.29035   1.37255   1.37255
  Beta virt. eigenvalues --    1.50522   1.50992   1.50992   2.00479   2.37083

 Mulliken charges and spin densities:
               1          2
     1  H    0.295802   0.000388
     2  H    0.000535   0.999386
     3  F   -0.296337   0.000226
 Sum of Mulliken charges =   0.00000   1.00000

 Dipole moment (field-independent basis, Debye):
    X=             -1.8876    Y=              0.0000    Z=              0.0000  Tot=              1.8876
 Quadrupole moment (field-independent basis, Debye-Ang):
   XX=             -7.9366   YY=             -6.8690   ZZ=             -6.8690
   XY=              0.0000   XZ=              0.0000   YZ=              0.0000

  Exact polarizability:       5.387      -0.000       2.423      -0.000      -0.000       2.423
 Approx polarizability:       6.334      -0.000       2.401      -0.000      -0.000       2.401

 ******    3 imaginary frequencies (negative Signs) ******

                      1                      2                      3
                      A                      A                      A
 Frequencies --   -626.5130              -626.5130               -37.1256
 Red. masses --      1.0395                 1.0395                 1.0532
 Frc consts  --      0.2404                 0.2404                 0.0009
 IR Inten    --    182.9103               182.9103                 0.0198

                      4
                      A
 Frequencies --   4432.2627
 Red. masses --      1.0583
 Frc consts  --     12.2494
 IR Inten    --     97.8913

 - Thermochemistry -
 -------------------
 Temperature   298.150 Kelvin.  Pressure   1.00000 Atm.
 Atom     1 has atomic number  1 and mass   1.00783

 Molecular mass:    21.01405 amu.
 Principal axes and moments of inertia in atomic units:
                           1         2         3
     Eigenvalues --     0.00000  75.41803  75.41803
           X            1.00000  -0.00000   0.00000
           Y            0.00000   1.00000   0.00000
           Z            0.00000   0.00000   1.00000
 This molecule is a prolate symmetric top.
 Rotational symmetry number  1.
 Rotational temperature (Kelvin)      1.14845
 Rotational constant (GHZ):          23.929836
    3 imaginary frequencies ignored.
 Zero-point vibrational energy      26510.8 (Joules/Mol)
                                    6.33624 (Kcal/Mol)
 Vibrational temperatures:   6377.04
          (Kelvin)

 Zero-point correction=                           0.010097 (Hartree/Particle)
 Thermal correction to Energy=                    0.012458
 Thermal correction to Enthalpy=                  0.013402
 Thermal correction to Gibbs Free Energy=        -0.010107
 Sum of electronic and zero-point Energies=           -100.961350
 Sum of electronic and thermal Energies=              -100.958989
 Sum of electronic and thermal Enthalpies=            -100.958045
 Sum of electronic and thermal Free Energies=         -100.981555

                     E (Thermal)             CV                S
                      KCal/Mol        Cal/Mol-Kelvin    Cal/Mol-Kelvin
 Total                    7.817              4.968             49.480
 Electronic               0.000              0.000              1.377
 Translational            0.889              2.981             35.068
 Rotational               0.592              1.987             13.034
 Vibrational              6.336              0.000              0.000

 Normal termination of Gaussian 16 at Fri Aug 22 15:56:55 2025.
