 Gaussian 16, Revision C.01,
 Gaussian 16:  ES64L-G16RevC.01  3-Jul-2019

 -----------------------------------------
 # sp b3lyp/6-311g** Force nosymm scf=(qc)
 -----------------------------------------

 -------------------
 Title Card Required
 -------------------
 Symbolic Z-matrix:
 Charge =  0 Multiplicity = 2

                          Input orientation:
 ---------------------------------------------------------------------
 Center     Atomic      Atomic             Coordinates (Angstroms)
 Number     Number       Type             X           Y           Z
 ---------------------------------------------------------------------
      1          1           0        0.000000    0.000000    0.000000
      2          1           0       -2.550000    0.000000    0.000000
      3          9           0        3.500000    0.000000    0.000000
 ---------------------------------------------------------------------

 SCF Done:  E(UB3LYP) =  -100.762466985     a.u. after   27 cycles

 Alpha  occ. eigenvalues --  -24.75443  -1.21401  -0.54565  -0.45815  -0.45815
 Alpha  occ. eigenvalues --   -0.32645
 Alpha virt. eigenvalues --   -0.09375   0.25624   0.34458   0.87607   0.91443
 Alpha virt. eigenvalues --    0.91443   1.01784   1.24987   1.24987   1.26579
 Alpha virt. eigenvalues --    1.41611   1.41611   1.42908   2.15858   2.37157

  Beta  occ. eigenvalues --  -24.72327  -1.12447  -0.42691  -0.42691  -0.32963
  Beta virt. eigenvalues --   -0.25525  -0.08878   0.25428   0.35189   0.92933
  Beta virt. eigenvalues --    0.92933   0.96775   1.05823   1.24609   1.24609
  Beta virt. eigenvalues --    1.26126   1.42383   1.42383   1.43680   2.16349

 Mulliken charges and spin densities:
               1          2
     1  H    0.008672  -0.962019
     2  H    0.002037   0.974009
     3  F   -0.010709   0.988009
 Sum of Mulliken charges =  -0.00000   1.00000

 Dipole moment (field-independent basis, Debye):
    X=             -0.2172    Y=              0.0000    Z=             -0.0000  Tot=              0.2172
 Quadrupole moment (field-independent basis, Debye-Ang):
   XX=             -7.1368   YY=             -7.6608   ZZ=             -7.6608
   XY=              0.0000   XZ=             -0.0000   YZ=              0.0000

  Exact polarizability:      32.181       0.000       2.026      -0.000      -0.000       2.026
 Approx polarizability:      24.279       0.000       1.929      -0.000      -0.000       1.929

 ******    2 imaginary frequencies (negative Signs) ******

                      1                      2                      3
                      A                      A                      A
 Frequencies --   -625.8969              -138.9645               227.9036
 Red. masses --      1.0081                 1.1082                 1.0146
 Frc consts  --      0.2327                 0.0126                 0.0310
 IR Inten    --      6.0520                 5.9787                 0.0511

                      4
                      A
 Frequencies --    227.9036
 Red. masses --      1.0146
 Frc consts  --      0.0310
 IR Inten    --      0.0511

 - Thermochemistry -
 -------------------
 Temperature   298.150 Kelvin.  Pressure   1.00000 Atm.
 Atom     1 has atomic number  1 and mass   1.00783

 Molecular mass:    21.01405 amu.
 Principal axes and moments of inertia in atomic units:
                           1         2         3
     Eigenvalues --     0.00000 160.07838 160.07838
           X            1.00000  -0.00000   0.00000
           Y            0.00000   1.00000   0.00000
           Z            0.00000   0.00000   1.00000
 This molecule is a prolate symmetric top.
 Rotational symmetry number  1.
 Rotational temperature (Kelvin)      0.54107
 Rotational constant (GHZ):          11.274109
    2 imaginary frequencies ignored.
 Zero-point vibrational energy       2726.3 (Joules/Mol)
                                    0.65161 (Kcal/Mol)
 Warning -- explicit consideration of   2 degrees of freedom as
           vibrations may cause significant error
 Vibrational temperatures:    327.90   327.90
          (Kelvin)

 Zero-point correction=                           0.001038 (Hartree/Particle)
 Thermal correction to Energy=                    0.004435
 Thermal correction to Enthalpy=                  0.005380
 Thermal correction to Gibbs Free Energy=        -0.020642
 Sum of electronic and zero-point Energies=           -100.761429
 Sum of electronic and thermal Energies=              -100.758032
 Sum of electronic and thermal Enthalpies=            -100.757087
 Sum of electronic and thermal Free Energies=         -100.783109

                     E (Thermal)             CV                S
                      KCal/Mol        Cal/Mol-Kelvin    Cal/Mol-Kelvin
 Total                    2.783              8.565             54.766
 Electronic               0.000              0.000              1.377
 Translational            0.889              2.981             35.068
 Rotational               0.592              1.987             14.530
 Vibrational              1.302              3.597              3.791
 Vibration     1          0.651              1.798              1.895
 Vibration     2          0.651              1.798              1.895

 Normal termination of Gaussian 16 at Fri Aug 22 22:09:51 2025.
