 Gaussian 16, Revision C.01,
 Gaussian 16:  ES64L-G16RevC.01  3-Jul-2019

 -----------------------------------------
 # sp b3lyp/6-311g** Force nosymm scf=(qc)
 -----------------------------------------

 -------------------
 Title Card Required
 -------------------
 Symbolic Z-matrix:
 Charge =  0 Multiplicity = 2

                          Input orientation:
 ---------------------------------------------------------------------
 Center     Atomic      Atomic             Coordinates (Angstroms)
 Number     Number       Type             X           Y           Z
 ---------------------------------------------------------------------
      1          1           0        0.000000    0.000000    0.000000
      2          1           0       -2.250000    0.000000    0.000000
      3          9           0        0.800000    0.000000    0.000000
 ---------------------------------------------------------------------

 SCF Done:  E(UB3LYP) =  -100.950556391     a.u. after    6 cycles

 Alpha  occ. eigenvalues --  -24.63551  -1.22932  -0.56175  -0.40536  -0.40536
 Alpha  occ. eigenvalues --   -0.35092
 Alpha virt. eigenvalues --    0.07429   0.25056   0.45265   0.94308   0.94308
 Alpha virt. eigenvalues --    0.96793   1.15915   1.22446   1.22446   1.39938
 Alpha virt. eigenvalues --    1.39938   1.47074   2.00681   2.16030   2.53116

  Beta  occ. eigenvalues --  -24.63528  -1.22871  -0.56070  -0.40518  -0.40518
  Beta virt. eigenvalues --   -0.09944   0.09086   0.36786   0.45088   0.94310
  Beta virt. eigenvalues --    0.94310   0.97086   1.26043   1.39797   1.39797
  Beta virt. eigenvalues --    1.43438   1.43438   1.58369   2.02063   2.41976

 Mulliken charges and spin densities:
               1          2
     1  H    0.266614   0.005681
     2  H    0.007854   0.988006
     3  F   -0.274468   0.006313
 Sum of Mulliken charges =   0.00000   1.00000

 Dipole moment (field-independent basis, Debye):
    X=             -1.8250    Y=             -0.0000    Z=             -0.0000  Tot=              1.8250
 Quadrupole moment (field-independent basis, Debye-Ang):
   XX=             -7.3436   YY=             -6.7519   ZZ=             -6.7519
   XY=             -0.0000   XZ=             -0.0000   YZ=             -0.0000

  Exact polarizability:       6.941       0.000       2.484      -0.000       0.000       2.484
 Approx polarizability:       7.168      -0.000       2.471       0.000       0.000       2.471

 ******    2 imaginary frequencies (negative Signs) ******

                      1                      2                      3
                      A                      A                      A
 Frequencies --  -1953.5959             -1953.5959               167.4678
 Red. masses --      1.0336                 1.0336                 1.0532
 Frc consts  --      2.3241                 2.3241                 0.0174
 IR Inten    --    173.6395               173.6395                 0.5251

                      4
                      A
 Frequencies --   6343.6833
 Red. masses --      1.0583
 Frc consts  --     25.0935
 IR Inten    --    140.8107

 - Thermochemistry -
 -------------------
 Temperature   298.150 Kelvin.  Pressure   1.00000 Atm.
 Atom     1 has atomic number  1 and mass   1.00783

 Molecular mass:    21.01405 amu.
 Principal axes and moments of inertia in atomic units:
                           1         2         3
     Eigenvalues --     0.00000  33.22468  33.22468
           X            1.00000  -0.00000   0.00000
           Y            0.00000   1.00000   0.00000
           Z            0.00000   0.00000   1.00000
 This molecule is a prolate symmetric top.
 Rotational symmetry number  1.
 Rotational temperature (Kelvin)      2.60692
 Rotational constant (GHZ):          54.319301
    2 imaginary frequencies ignored.
 Zero-point vibrational energy      38945.3 (Joules/Mol)
                                    9.30816 (Kcal/Mol)
 Warning -- explicit consideration of   1 degrees of freedom as
           vibrations may cause significant error
 Vibrational temperatures:    240.95  9127.15
          (Kelvin)

 Zero-point correction=                           0.014833 (Hartree/Particle)
 Thermal correction to Energy=                    0.017807
 Thermal correction to Enthalpy=                  0.018752
 Thermal correction to Gibbs Free Energy=        -0.005154
 Sum of electronic and zero-point Energies=           -100.935723
 Sum of electronic and thermal Energies=              -100.932749
 Sum of electronic and thermal Enthalpies=            -100.931805
 Sum of electronic and thermal Free Energies=         -100.955711

                     E (Thermal)             CV                S
                      KCal/Mol        Cal/Mol-Kelvin    Cal/Mol-Kelvin
 Total                   11.174              6.851             50.315
 Electronic               0.000              0.000              1.377
 Translational            0.889              2.981             35.068
 Rotational               0.592              1.987             11.405
 Vibrational              9.693              1.882              2.464
 Vibration     1          0.624              1.882              2.464

 Normal termination of Gaussian 16 at Fri Aug 22 15:51:16 2025.
