 Gaussian 16, Revision C.01,
 Gaussian 16:  ES64L-G16RevC.01  3-Jul-2019

 -----------------------------------------
 # sp b3lyp/6-311g** Force nosymm scf=(qc)
 -----------------------------------------

 -------------------
 Title Card Required
 -------------------
 Symbolic Z-matrix:
 Charge =  0 Multiplicity = 2

                          Input orientation:
 ---------------------------------------------------------------------
 Center     Atomic      Atomic             Coordinates (Angstroms)
 Number     Number       Type             X           Y           Z
 ---------------------------------------------------------------------
      1          1           0        0.000000    0.000000    0.000000
      2          1           0       -0.550000    0.000000    0.000000
      3          9           0        3.550000    0.000000    0.000000
 ---------------------------------------------------------------------

 SCF Done:  E(UB3LYP) =  -100.894230811     a.u. after  265 cycles

 Alpha  occ. eigenvalues --  -24.76316  -1.22170  -0.55372  -0.47891  -0.46539
 Alpha  occ. eigenvalues --   -0.46525
 Alpha virt. eigenvalues --    0.09241   0.18599   0.53574   0.86038   0.90914
 Alpha virt. eigenvalues --    0.93129   1.02346   1.11084   1.11087   1.61302
 Alpha virt. eigenvalues --    1.82468   1.96209   1.96213   2.36569   3.64857

  Beta  occ. eigenvalues --  -24.73158  -1.13091  -0.47879  -0.43382  -0.43359
  Beta virt. eigenvalues --   -0.26010   0.09265   0.18611   0.53653   0.92413
  Beta virt. eigenvalues --    0.94682   0.95501   1.06327   1.11084   1.11087
  Beta virt. eigenvalues --    1.61311   1.82494   1.96209   1.96213   2.36570

 Mulliken charges and spin densities:
               1          2
     1  H   -0.003049  -0.000636
     2  H   -0.001263   0.000138
     3  F    0.004312   1.000498
 Sum of Mulliken charges =   0.00000   1.00000

 Dipole moment (field-independent basis, Debye):
    X=              0.0468    Y=              0.0000    Z=              0.0000  Tot=              0.0468
 Quadrupole moment (field-independent basis, Debye-Ang):
   XX=             -6.1193   YY=             -6.6652   ZZ=             -5.8012
   XY=             -0.0000   XZ=             -0.0000   YZ=              0.0075

  Exact polarizability:       5.957       0.000       1.834      -0.000       0.004       2.299
 Approx polarizability:       6.372      -0.000       1.917      -0.000       0.005       2.498

 ******    3 imaginary frequencies (negative Signs) ******

                      1                      2                      3
                      A                      A                      A
 Frequencies --  -3696.3636             -3696.0496               -28.4739
 Red. masses --      1.0083                 1.0083                 1.1085
 Frc consts  --      8.1173                 8.1159                 0.0005
 IR Inten    --      0.0073                 0.0064                 0.1234

                      4
                      A
 Frequencies --   8343.1009
 Red. masses --      1.0078
 Frc consts  --     41.3324
 IR Inten    --      0.0514

 - Thermochemistry -
 -------------------
 Temperature   298.150 Kelvin.  Pressure   1.00000 Atm.
 Atom     1 has atomic number  1 and mass   1.00783

 Molecular mass:    21.01405 amu.
 Principal axes and moments of inertia in atomic units:
                           1         2         3
     Eigenvalues --     0.00000  95.75445  95.75445
           X            1.00000  -0.00000   0.00000
           Y            0.00000   1.00000   0.00000
           Z            0.00000   0.00000   1.00000
 This molecule is a prolate symmetric top.
 Rotational symmetry number  1.
 Rotational temperature (Kelvin)      0.90454
 Rotational constant (GHZ):          18.847596
    3 imaginary frequencies ignored.
 Zero-point vibrational energy      49902.8 (Joules/Mol)
                                   11.92706 (Kcal/Mol)
 Vibrational temperatures:  12003.86
          (Kelvin)

 Zero-point correction=                           0.019007 (Hartree/Particle)
 Thermal correction to Energy=                    0.021367
 Thermal correction to Enthalpy=                  0.022312
 Thermal correction to Gibbs Free Energy=        -0.001423
 Sum of electronic and zero-point Energies=           -100.875224
 Sum of electronic and thermal Energies=              -100.872863
 Sum of electronic and thermal Enthalpies=            -100.871919
 Sum of electronic and thermal Free Energies=         -100.895654

                     E (Thermal)             CV                S
                      KCal/Mol        Cal/Mol-Kelvin    Cal/Mol-Kelvin
 Total                   13.408              4.968             49.954
 Electronic               0.000              0.000              1.377
 Translational            0.889              2.981             35.068
 Rotational               0.592              1.987             13.509
 Vibrational             11.927              0.000              0.000

 Normal termination of Gaussian 16 at Fri Aug 22 22:13:09 2025.
