 Gaussian 16, Revision C.01,
 Gaussian 16:  ES64L-G16RevC.01  3-Jul-2019

 -----------------------------------------
 # sp b3lyp/6-311g** Force nosymm scf=(qc)
 -----------------------------------------

 -------------------
 Title Card Required
 -------------------
 Symbolic Z-matrix:
 Charge =  0 Multiplicity = 2

                          Input orientation:
 ---------------------------------------------------------------------
 Center     Atomic      Atomic             Coordinates (Angstroms)
 Number     Number       Type             X           Y           Z
 ---------------------------------------------------------------------
      1          1           0        0.000000    0.000000    0.000000
      2          1           0       -2.150000    0.000000    0.000000
      3          9           0        0.650000    0.000000    0.000000
 ---------------------------------------------------------------------

 SCF Done:  E(UB3LYP) =  -100.800588556     a.u. after    6 cycles

 Alpha  occ. eigenvalues --  -24.62863  -1.31249  -0.59827  -0.42283  -0.42283
 Alpha  occ. eigenvalues --   -0.34942
 Alpha virt. eigenvalues --    0.09838   0.24898   0.53406   0.92950   0.92950
 Alpha virt. eigenvalues --    0.94946   1.16469   1.22580   1.22580   1.46991
 Alpha virt. eigenvalues --    1.46991   1.53013   1.95595   2.17218   3.09760

  Beta  occ. eigenvalues --  -24.62843  -1.31189  -0.59746  -0.42270  -0.42270
  Beta virt. eigenvalues --   -0.09511   0.11326   0.36652   0.53525   0.92942
  Beta virt. eigenvalues --    0.92942   0.95115   1.27356   1.43258   1.43258
  Beta virt. eigenvalues --    1.47113   1.47113   1.63002   1.97920   2.43854

 Mulliken charges and spin densities:
               1          2
     1  H    0.243213   0.007303
     2  H    0.007779   0.988461
     3  F   -0.250992   0.004236
 Sum of Mulliken charges =   0.00000   1.00000

 Dipole moment (field-independent basis, Debye):
    X=             -1.5833    Y=              0.0000    Z=             -0.0000  Tot=              1.5833
 Quadrupole moment (field-independent basis, Debye-Ang):
   XX=             -6.9013   YY=             -6.5870   ZZ=             -6.5870
   XY=              0.0000   XZ=             -0.0000   YZ=             -0.0000

  Exact polarizability:       5.823      -0.000       2.485       0.000       0.000       2.485
 Approx polarizability:       5.763      -0.000       2.475       0.000       0.000       2.475

 ******    2 imaginary frequencies (negative Signs) ******

                      1                      2                      3
                      A                      A                      A
 Frequencies --  -4537.0428             -4537.0428               265.8442
 Red. masses --      1.0361                 1.0361                 1.0533
 Frc consts  --     12.5661                12.5661                 0.0439
 IR Inten    --    198.0550               198.0550                 0.1424

                      4
                      A
 Frequencies --  10872.3888
 Red. masses --      1.0583
 Frc consts  --     73.7065
 IR Inten    --    125.4104

 - Thermochemistry -
 -------------------
 Temperature   298.150 Kelvin.  Pressure   1.00000 Atm.
 Atom     1 has atomic number  1 and mass   1.00783

 Molecular mass:    21.01405 amu.
 Principal axes and moments of inertia in atomic units:
                           1         2         3
     Eigenvalues --     0.00000  27.68235  27.68235
           X            1.00000  -0.00000   0.00000
           Y            0.00000   1.00000   0.00000
           Z            0.00000   0.00000   1.00000
 This molecule is a prolate symmetric top.
 Rotational symmetry number  1.
 Rotational temperature (Kelvin)      3.12885
 Rotational constant (GHZ):          65.194643
    2 imaginary frequencies ignored.
 Zero-point vibrational energy      66621.4 (Joules/Mol)
                                   15.92290 (Kcal/Mol)
 Warning -- explicit consideration of   1 degrees of freedom as
           vibrations may cause significant error
 Vibrational temperatures:    382.49 15642.94
          (Kelvin)

 Zero-point correction=                           0.025375 (Hartree/Particle)
 Thermal correction to Energy=                    0.028200
 Thermal correction to Enthalpy=                  0.029144
 Thermal correction to Gibbs Free Energy=         0.005810
 Sum of electronic and zero-point Energies=           -100.775214
 Sum of electronic and thermal Energies=              -100.772389
 Sum of electronic and thermal Enthalpies=            -100.771445
 Sum of electronic and thermal Free Energies=         -100.794779

                     E (Thermal)             CV                S
                      KCal/Mol        Cal/Mol-Kelvin    Cal/Mol-Kelvin
 Total                   17.696              6.704             49.111
 Electronic               0.000              0.000              1.377
 Translational            0.889              2.981             35.068
 Rotational               0.592              1.987             11.043
 Vibrational             16.214              1.736              1.623
 Vibration     1          0.672              1.736              1.623

 Normal termination of Gaussian 16 at Fri Aug 22 15:44:10 2025.
