 Gaussian 16, Revision C.01,
 Gaussian 16:  ES64L-G16RevC.01  3-Jul-2019

 -----------------------------------------
 # sp b3lyp/6-311g** Force nosymm scf=(qc)
 -----------------------------------------

 -------------------
 Title Card Required
 -------------------
 Symbolic Z-matrix:
 Charge =  0 Multiplicity = 2

                          Input orientation:
 ---------------------------------------------------------------------
 Center     Atomic      Atomic             Coordinates (Angstroms)
 Number     Number       Type             X           Y           Z
 ---------------------------------------------------------------------
      1          1           0        0.000000    0.000000    0.000000
      2          1           0       -0.700000    0.000000    0.000000
      3          9           0        1.550000    0.000000    0.000000
 ---------------------------------------------------------------------

 SCF Done:  E(UB3LYP) =  -100.934193418     a.u. after    7 cycles

 Alpha  occ. eigenvalues --  -24.71996  -1.18881  -0.56346  -0.43818  -0.43352
 Alpha  occ. eigenvalues --   -0.43352
 Alpha virt. eigenvalues --    0.09697   0.19858   0.45165   0.88848   0.88848
 Alpha virt. eigenvalues --    0.97030   1.08774   1.08774   1.28442   1.68772
 Alpha virt. eigenvalues --    1.84538   1.84538   1.91244   2.44609   3.28674

  Beta  occ. eigenvalues --  -24.69244  -1.11275  -0.48202  -0.40665  -0.40665
  Beta virt. eigenvalues --   -0.23723   0.10817   0.20687   0.47161   0.90041
  Beta virt. eigenvalues --    0.90041   1.03488   1.10697   1.10697   1.32145
  Beta virt. eigenvalues --    1.71445   1.85605   1.85605   1.92159   2.46877

 Mulliken charges and spin densities:
               1          2
     1  H    0.108235  -0.038267
     2  H    0.015366   0.201335
     3  F   -0.123601   0.836933
 Sum of Mulliken charges =   0.00000   1.00000

 Dipole moment (field-independent basis, Debye):
    X=             -0.9803    Y=             -0.0000    Z=             -0.0000  Tot=              0.9803
 Quadrupole moment (field-independent basis, Debye-Ang):
   XX=             -6.7044   YY=             -6.7465   ZZ=             -6.7465
   XY=             -0.0000   XZ=             -0.0000   YZ=              0.0000

  Exact polarizability:      18.557       0.000       2.258      -0.000       0.000       2.258
 Approx polarizability:      22.887       0.000       2.305      -0.000      -0.000       2.305

 ******    3 imaginary frequencies (negative Signs) ******

                      1                      2                      3
                      A                      A                      A
 Frequencies --  -1492.0189             -1492.0189              -150.0611
 Red. masses --      1.0111                 1.0111                 1.1083
 Frc consts  --      1.3262                 1.3262                 0.0147
 IR Inten    --      0.2317                 0.2317                77.0461

                      4
                      A
 Frequencies --   4848.6693
 Red. masses --      1.0080
 Frc consts  --     13.9619
 IR Inten    --    603.8488

 - Thermochemistry -
 -------------------
 Temperature   298.150 Kelvin.  Pressure   1.00000 Atm.
 Atom     1 has atomic number  1 and mass   1.00783

 Molecular mass:    21.01405 amu.
 Principal axes and moments of inertia in atomic units:
                           1         2         3
     Eigenvalues --     0.00000  24.37415  24.37415
           X            1.00000  -0.00000   0.00000
           Y            0.00000   1.00000   0.00000
           Z            0.00000   0.00000   1.00000
 This molecule is a prolate symmetric top.
 Rotational symmetry number  1.
 Rotational temperature (Kelvin)      3.55351
 Rotational constant (GHZ):          74.043232
    3 imaginary frequencies ignored.
 Zero-point vibrational energy      29001.5 (Joules/Mol)
                                    6.93152 (Kcal/Mol)
 Vibrational temperatures:   6976.15
          (Kelvin)

 Zero-point correction=                           0.011046 (Hartree/Particle)
 Thermal correction to Energy=                    0.013407
 Thermal correction to Enthalpy=                  0.014351
 Thermal correction to Gibbs Free Energy=        -0.008092
 Sum of electronic and zero-point Energies=           -100.923147
 Sum of electronic and thermal Energies=              -100.920787
 Sum of electronic and thermal Enthalpies=            -100.919843
 Sum of electronic and thermal Free Energies=         -100.942286

                     E (Thermal)             CV                S
                      KCal/Mol        Cal/Mol-Kelvin    Cal/Mol-Kelvin
 Total                    8.413              4.968             47.235
 Electronic               0.000              0.000              1.377
 Translational            0.889              2.981             35.068
 Rotational               0.592              1.987             10.790
 Vibrational              6.932              0.000              0.000

 Normal termination of Gaussian 16 at Fri Aug 22 16:27:08 2025.
