 Gaussian 16, Revision C.01,
 Gaussian 16:  ES64L-G16RevC.01  3-Jul-2019

 -----------------------------------------
 # sp b3lyp/6-311g** Force nosymm scf=(qc)
 -----------------------------------------

 -------------------
 Title Card Required
 -------------------
 Symbolic Z-matrix:
 Charge =  0 Multiplicity = 2

                          Input orientation:
 ---------------------------------------------------------------------
 Center     Atomic      Atomic             Coordinates (Angstroms)
 Number     Number       Type             X           Y           Z
 ---------------------------------------------------------------------
      1          1           0        0.000000    0.000000    0.000000
      2          1           0       -0.700000    0.000000    0.000000
      3          9           0        2.750000    0.000000    0.000000
 ---------------------------------------------------------------------

 SCF Done:  E(UB3LYP) =  -100.933128950     a.u. after   61 cycles

 Alpha  occ. eigenvalues --  -24.76749  -1.22533  -0.55718  -0.47122  -0.46866
 Alpha  occ. eigenvalues --   -0.43838
 Alpha virt. eigenvalues --    0.07400   0.19907   0.49368   0.85766   0.90635
 Alpha virt. eigenvalues --    0.93776   1.09146   1.09158   1.09349   1.57898
 Alpha virt. eigenvalues --    1.86050   1.86064   1.91471   2.39232   3.57164

  Beta  occ. eigenvalues --  -24.73586  -1.13442  -0.44655  -0.43694  -0.43129
  Beta virt. eigenvalues --   -0.26333   0.07470   0.19953   0.49482   0.92133
  Beta virt. eigenvalues --    0.95217   0.95707   1.09148   1.09157   1.12881
  Beta virt. eigenvalues --    1.57906   1.86049   1.86062   1.91496   2.39241

 Mulliken charges and spin densities:
               1          2
     1  H   -0.007925  -0.001757
     2  H   -0.004756  -0.000066
     3  F    0.012681   1.001823
 Sum of Mulliken charges =   0.00000   1.00000

 Dipole moment (field-independent basis, Debye):
    X=              0.1199    Y=             -0.0000    Z=              0.0000  Tot=              0.1199
 Quadrupole moment (field-independent basis, Debye-Ang):
   XX=             -6.0236   YY=             -6.4611   ZZ=             -6.4606
   XY=             -0.0000   XZ=              0.0000   YZ=             -0.4316

  Exact polarizability:       8.149       0.000       2.171      -0.000      -0.226       2.171
 Approx polarizability:       9.053       0.000       2.311      -0.000      -0.286       2.311

 ******    2 imaginary frequencies (negative Signs) ******

                      1                      2                      3
                      A                      A                      A
 Frequencies --  -1160.7999             -1160.3065               109.1077
 Red. masses --      1.0091                 1.0091                 1.1085
 Frc consts  --      0.8011                 0.8004                 0.0078
 IR Inten    --      0.0217                 0.0260                 0.3343

                      4
                      A
 Frequencies --   5088.2125
 Red. masses --      1.0078
 Frc consts  --     15.3733
 IR Inten    --      1.0901

 - Thermochemistry -
 -------------------
 Temperature   298.150 Kelvin.  Pressure   1.00000 Atm.
 Atom     1 has atomic number  1 and mass   1.00783

 Molecular mass:    21.01405 amu.
 Principal axes and moments of inertia in atomic units:
                           1         2         3
     Eigenvalues --     0.00000  63.41969  63.41969
           X            1.00000  -0.00000   0.00000
           Y            0.00000   1.00000   0.00000
           Z            0.00000   0.00000   1.00000
 This molecule is a prolate symmetric top.
 Rotational symmetry number  1.
 Rotational temperature (Kelvin)      1.36573
 Rotational constant (GHZ):          28.457111
    2 imaginary frequencies ignored.
 Zero-point vibrational energy      31086.9 (Joules/Mol)
                                    7.42994 (Kcal/Mol)
 Warning -- explicit consideration of   1 degrees of freedom as
           vibrations may cause significant error
 Vibrational temperatures:    156.98  7320.80
          (Kelvin)

 Zero-point correction=                           0.011840 (Hartree/Particle)
 Thermal correction to Energy=                    0.014918
 Thermal correction to Enthalpy=                  0.015862
 Thermal correction to Gibbs Free Energy=        -0.009044
 Sum of electronic and zero-point Energies=           -100.921289
 Sum of electronic and thermal Energies=              -100.918211
 Sum of electronic and thermal Enthalpies=            -100.917267
 Sum of electronic and thermal Free Energies=         -100.942173

                     E (Thermal)             CV                S
                      KCal/Mol        Cal/Mol-Kelvin    Cal/Mol-Kelvin
 Total                    9.361              6.910             52.420
 Electronic               0.000              0.000              1.377
 Translational            0.889              2.981             35.068
 Rotational               0.592              1.987             12.690
 Vibrational              7.880              1.942              3.285
 Vibration     1          0.606              1.942              3.285

 Normal termination of Gaussian 16 at Fri Aug 22 18:28:19 2025.
