 Gaussian 16, Revision C.01,
 Gaussian 16:  ES64L-G16RevC.01  3-Jul-2019

 -----------------------------------------
 # sp b3lyp/6-311g** Force nosymm scf=(qc)
 -----------------------------------------

 -------------------
 Title Card Required
 -------------------
 Symbolic Z-matrix:
 Charge =  0 Multiplicity = 2

                          Input orientation:
 ---------------------------------------------------------------------
 Center     Atomic      Atomic             Coordinates (Angstroms)
 Number     Number       Type             X           Y           Z
 ---------------------------------------------------------------------
      1          1           0        0.000000    0.000000    0.000000
      2          1           0       -3.400000    0.000000    0.000000
      3          9           0        2.500000    0.000000    0.000000
 ---------------------------------------------------------------------

 SCF Done:  E(UB3LYP) =  -100.767592317     a.u. after   19 cycles

 Alpha  occ. eigenvalues --  -24.71738  -1.17954  -0.50840  -0.42710  -0.42710
 Alpha  occ. eigenvalues --   -0.32948
 Alpha virt. eigenvalues --   -0.10360   0.23560   0.35163   0.89686   0.93615
 Alpha virt. eigenvalues --    0.93615   1.06294   1.24566   1.24566   1.24811
 Alpha virt. eigenvalues --    1.40570   1.40570   1.44712   2.14605   2.36232

  Beta  occ. eigenvalues --  -24.68897  -1.09867  -0.39878  -0.39878  -0.35360
  Beta virt. eigenvalues --   -0.23340  -0.06937   0.24020   0.37737   0.94977
  Beta virt. eigenvalues --    0.94977   0.96051   1.08643   1.22102   1.22102
  Beta virt. eigenvalues --    1.29699   1.45498   1.45761   1.45761   2.13039

 Mulliken charges and spin densities:
               1          2
     1  H    0.089254  -0.895165
     2  H    0.001154   0.997324
     3  F   -0.090408   0.897841
 Sum of Mulliken charges =  -0.00000   1.00000

 Dipole moment (field-independent basis, Debye):
    X=             -1.1685    Y=              0.0000    Z=              0.0000  Tot=              1.1685
 Quadrupole moment (field-independent basis, Debye-Ang):
   XX=             -9.2806   YY=             -7.5728   ZZ=             -7.5728
   XY=             -0.0000   XZ=              0.0000   YZ=              0.0000

  Exact polarizability:      31.376      -0.000       2.025       0.000       0.000       2.025
 Approx polarizability:      39.230      -0.000       1.920       0.000      -0.000       1.920

 ******    2 imaginary frequencies (negative Signs) ******

                      1                      2                      3
                      A                      A                      A
 Frequencies --   -622.9372              -135.7387               243.4964
 Red. masses --      1.0530                 1.0585                 1.0221
 Frc consts  --      0.2408                 0.0115                 0.0357
 IR Inten    --     79.9427                 0.4763                 7.5496

                      4
                      A
 Frequencies --    243.4964
 Red. masses --      1.0221
 Frc consts  --      0.0357
 IR Inten    --      7.5496

 - Thermochemistry -
 -------------------
 Temperature   298.150 Kelvin.  Pressure   1.00000 Atm.
 Atom     1 has atomic number  1 and mass   1.00783

 Molecular mass:    21.01405 amu.
 Principal axes and moments of inertia in atomic units:
                           1         2         3
     Eigenvalues --     0.00000 135.59615 135.59615
           X            1.00000  -0.00000   0.00000
           Y            0.00000   1.00000   0.00000
           Z            0.00000   0.00000   1.00000
 This molecule is a prolate symmetric top.
 Rotational symmetry number  1.
 Rotational temperature (Kelvin)      0.63876
 Rotational constant (GHZ):          13.309679
    2 imaginary frequencies ignored.
 Zero-point vibrational energy       2912.9 (Joules/Mol)
                                    0.69619 (Kcal/Mol)
 Warning -- explicit consideration of   2 degrees of freedom as
           vibrations may cause significant error
 Vibrational temperatures:    350.34   350.34
          (Kelvin)

 Zero-point correction=                           0.001109 (Hartree/Particle)
 Thermal correction to Energy=                    0.004461
 Thermal correction to Enthalpy=                  0.005405
 Thermal correction to Gibbs Free Energy=        -0.020347
 Sum of electronic and zero-point Energies=           -100.766483
 Sum of electronic and thermal Energies=              -100.763131
 Sum of electronic and thermal Enthalpies=            -100.762187
 Sum of electronic and thermal Free Energies=         -100.787939

                     E (Thermal)             CV                S
                      KCal/Mol        Cal/Mol-Kelvin    Cal/Mol-Kelvin
 Total                    2.799              8.515             54.200
 Electronic               0.000              0.000              1.377
 Translational            0.889              2.981             35.068
 Rotational               0.592              1.987             14.200
 Vibrational              1.318              3.547              3.554
 Vibration     1          0.659              1.774              1.777
 Vibration     2          0.659              1.774              1.777

 Normal termination of Gaussian 16 at Fri Aug 22 17:46:09 2025.
