 Gaussian 16, Revision C.01,
 Gaussian 16:  ES64L-G16RevC.01  3-Jul-2019

 -----------------------------------------
 # sp b3lyp/6-311g** Force nosymm scf=(qc)
 -----------------------------------------

 -------------------
 Title Card Required
 -------------------
 Symbolic Z-matrix:
 Charge =  0 Multiplicity = 2

                          Input orientation:
 ---------------------------------------------------------------------
 Center     Atomic      Atomic             Coordinates (Angstroms)
 Number     Number       Type             X           Y           Z
 ---------------------------------------------------------------------
      1          1           0        0.000000    0.000000    0.000000
      2          1           0       -0.700000    0.000000    0.000000
      3          9           0        0.700000    0.000000    0.000000
 ---------------------------------------------------------------------

 SCF Done:  E(UB3LYP) =  -100.752883794     a.u. after    6 cycles

 Alpha  occ. eigenvalues --  -24.67435  -1.35535  -0.69246  -0.45838  -0.45838
 Alpha  occ. eigenvalues --   -0.30215
 Alpha virt. eigenvalues --    0.16944   0.18116   0.79727   0.85773   0.85773
 Alpha virt. eigenvalues --    0.93057   1.10037   1.10037   1.42116   1.66467
 Alpha virt. eigenvalues --    1.86689   1.86689   2.08463   2.83104   3.75094

  Beta  occ. eigenvalues --  -24.66558  -1.32899  -0.65053  -0.45090  -0.45090
  Beta virt. eigenvalues --   -0.11471   0.17553   0.23156   0.83568   0.87626
  Beta virt. eigenvalues --    0.87626   0.95950   1.15448   1.15448   1.44450
  Beta virt. eigenvalues --    1.72398   1.92234   1.92234   2.14892   2.90646

 Mulliken charges and spin densities:
               1          2
     1  H    0.269714  -0.047169
     2  H   -0.094880   0.906289
     3  F   -0.174834   0.140880
 Sum of Mulliken charges =   0.00000   1.00000

 Dipole moment (field-independent basis, Debye):
    X=             -0.7687    Y=             -0.0000    Z=              0.0000  Tot=              0.7687
 Quadrupole moment (field-independent basis, Debye-Ang):
   XX=             -7.5131   YY=             -6.4437   ZZ=             -6.4437
   XY=             -0.0000   XZ=              0.0000   YZ=             -0.0000

  Exact polarizability:       8.649       0.000       2.497       0.000       0.000       2.497
 Approx polarizability:       8.729      -0.000       2.586      -0.000       0.000       2.586

 ******    2 imaginary frequencies (negative Signs) ******

                      1                      2                      3
                      A                      A                      A
 Frequencies --  -4329.0546             -4329.0546              3877.7830
 Red. masses --      1.0179                 1.0179                 1.0680
 Frc consts  --     11.2399                11.2399                 9.4622
 IR Inten    --    114.0389               114.0389               234.4196

                      4
                      A
 Frequencies --   9373.5676
 Red. masses --      1.0438
 Frc consts  --     54.0359
 IR Inten    --     38.2847

 - Thermochemistry -
 -------------------
 Temperature   298.150 Kelvin.  Pressure   1.00000 Atm.
 Atom     1 has atomic number  1 and mass   1.00783

 Molecular mass:    21.01405 amu.
 Principal axes and moments of inertia in atomic units:
                           1         2         3
     Eigenvalues --     0.00000   8.05637   8.05637
           X            1.00000  -0.00000   0.00000
           Y            0.00000   1.00000   0.00000
           Z            0.00000   0.00000   1.00000
 This molecule is a prolate symmetric top.
 Rotational symmetry number  1.
 Rotational temperature (Kelvin)     10.75098
 Rotational constant (GHZ):         224.014067
    2 imaginary frequencies ignored.
 Zero-point vibrational energy      79260.7 (Joules/Mol)
                                   18.94376 (Kcal/Mol)
 Vibrational temperatures:   5579.26 13486.47
          (Kelvin)

 Zero-point correction=                           0.030189 (Hartree/Particle)
 Thermal correction to Energy=                    0.032549
 Thermal correction to Enthalpy=                  0.033493
 Thermal correction to Gibbs Free Energy=         0.012096
 Sum of electronic and zero-point Energies=           -100.722695
 Sum of electronic and thermal Energies=              -100.720335
 Sum of electronic and thermal Enthalpies=            -100.719390
 Sum of electronic and thermal Free Energies=         -100.740788

                     E (Thermal)             CV                S
                      KCal/Mol        Cal/Mol-Kelvin    Cal/Mol-Kelvin
 Total                   20.425              4.968             45.035
 Electronic               0.000              0.000              1.377
 Translational            0.889              2.981             35.068
 Rotational               0.592              1.987              8.590
 Vibrational             18.944              0.000              0.000

 Normal termination of Gaussian 16 at Fri Aug 22 15:45:31 2025.
