 Gaussian 16, Revision C.01,
 Gaussian 16:  ES64L-G16RevC.01  3-Jul-2019

 -----------------------------------------
 # sp b3lyp/6-311g** Force nosymm scf=(qc)
 -----------------------------------------

 -------------------
 Title Card Required
 -------------------
 Symbolic Z-matrix:
 Charge =  0 Multiplicity = 2

                          Input orientation:
 ---------------------------------------------------------------------
 Center     Atomic      Atomic             Coordinates (Angstroms)
 Number     Number       Type             X           Y           Z
 ---------------------------------------------------------------------
      1          1           0        0.000000    0.000000    0.000000
      2          1           0       -2.650000    0.000000    0.000000
      3          9           0        3.350000    0.000000    0.000000
 ---------------------------------------------------------------------

 SCF Done:  E(UB3LYP) =  -100.761985588     a.u. after   28 cycles

 Alpha  occ. eigenvalues --  -24.75146  -1.21126  -0.54267  -0.45564  -0.45564
 Alpha  occ. eigenvalues --   -0.32667
 Alpha virt. eigenvalues --   -0.09269   0.25430   0.34531   0.88135   0.91628
 Alpha virt. eigenvalues --    0.91628   1.02253   1.24933   1.24933   1.26445
 Alpha virt. eigenvalues --    1.41883   1.41883   1.42712   2.15891   2.37804

  Beta  occ. eigenvalues --  -24.72049  -1.12230  -0.42460  -0.42460  -0.33130
  Beta virt. eigenvalues --   -0.25367  -0.08575   0.25253   0.35515   0.93112
  Beta virt. eigenvalues --    0.93112   0.97202   1.06241   1.24381   1.24381
  Beta virt. eigenvalues --    1.25787   1.42985   1.42985   1.43807   2.16513

 Mulliken charges and spin densities:
               1          2
     1  H    0.014107  -0.962530
     2  H    0.002137   0.980591
     3  F   -0.016244   0.981938
 Sum of Mulliken charges =  -0.00000   1.00000

 Dipole moment (field-independent basis, Debye):
    X=             -0.3065    Y=              0.0000    Z=              0.0000  Tot=              0.3065
 Quadrupole moment (field-independent basis, Debye-Ang):
   XX=             -7.4115   YY=             -7.6510   ZZ=             -7.6510
   XY=             -0.0000   XZ=             -0.0000   YZ=             -0.0000

  Exact polarizability:      34.542      -0.000       2.023      -0.000      -0.000       2.023
 Approx polarizability:      27.447      -0.000       1.928      -0.000       0.000       1.928

 ******    2 imaginary frequencies (negative Signs) ******

                      1                      2                      3
                      A                      A                      A
 Frequencies --   -556.0035              -163.2765               201.4659
 Red. masses --      1.0089                 1.1073                 1.0154
 Frc consts  --      0.1838                 0.0174                 0.0243
 IR Inten    --     10.5004                 8.6498                 0.1544

                      4
                      A
 Frequencies --    201.4659
 Red. masses --      1.0154
 Frc consts  --      0.0243
 IR Inten    --      0.1544

 - Thermochemistry -
 -------------------
 Temperature   298.150 Kelvin.  Pressure   1.00000 Atm.
 Atom     1 has atomic number  1 and mass   1.00783

 Molecular mass:    21.01405 amu.
 Principal axes and moments of inertia in atomic units:
                           1         2         3
     Eigenvalues --     0.00000 154.86445 154.86445
           X            1.00000  -0.00000   0.00000
           Y            0.00000   1.00000   0.00000
           Z            0.00000   0.00000   1.00000
 This molecule is a prolate symmetric top.
 Rotational symmetry number  1.
 Rotational temperature (Kelvin)      0.55929
 Rotational constant (GHZ):          11.653683
    2 imaginary frequencies ignored.
 Zero-point vibrational energy       2410.1 (Joules/Mol)
                                    0.57602 (Kcal/Mol)
 Warning -- explicit consideration of   2 degrees of freedom as
           vibrations may cause significant error
 Vibrational temperatures:    289.86   289.86
          (Kelvin)

 Zero-point correction=                           0.000918 (Hartree/Particle)
 Thermal correction to Energy=                    0.004395
 Thermal correction to Enthalpy=                  0.005339
 Thermal correction to Gibbs Free Energy=        -0.020864
 Sum of electronic and zero-point Energies=           -100.761068
 Sum of electronic and thermal Energies=              -100.757590
 Sum of electronic and thermal Enthalpies=            -100.756646
 Sum of electronic and thermal Free Energies=         -100.782849

                     E (Thermal)             CV                S
                      KCal/Mol        Cal/Mol-Kelvin    Cal/Mol-Kelvin
 Total                    2.758              8.644             55.149
 Electronic               0.000              0.000              1.377
 Translational            0.889              2.981             35.068
 Rotational               0.592              1.987             14.464
 Vibrational              1.277              3.676              4.239
 Vibration     1          0.638              1.838              2.120
 Vibration     2          0.638              1.838              2.120

 Normal termination of Gaussian 16 at Fri Aug 22 21:02:08 2025.
