 Gaussian 16, Revision C.01,
 Gaussian 16:  ES64L-G16RevC.01  3-Jul-2019

 -----------------------------------------
 # sp b3lyp/6-311g** Force nosymm scf=(qc)
 -----------------------------------------

 -------------------
 Title Card Required
 -------------------
 Symbolic Z-matrix:
 Charge =  0 Multiplicity = 2

                          Input orientation:
 ---------------------------------------------------------------------
 Center     Atomic      Atomic             Coordinates (Angstroms)
 Number     Number       Type             X           Y           Z
 ---------------------------------------------------------------------
      1          1           0        0.000000    0.000000    0.000000
      2          1           0       -2.900000    0.000000    0.000000
      3          9           0        2.050000    0.000000    0.000000
 ---------------------------------------------------------------------

 SCF Done:  E(UB3LYP) =  -100.783313502     a.u. after   28 cycles

 Alpha  occ. eigenvalues --  -24.65851  -1.07835  -0.37833  -0.37409  -0.37409
 Alpha  occ. eigenvalues --   -0.33595
 Alpha virt. eigenvalues --   -0.20866   0.21304   0.27372   0.90939   0.95779
 Alpha virt. eigenvalues --    0.95779   1.08526   1.21766   1.21766   1.23598
 Alpha virt. eigenvalues --    1.23598   1.24400   1.50670   2.12660   2.14518

  Beta  occ. eigenvalues --  -24.68272  -1.14615  -0.47264  -0.39798  -0.39798
  Beta virt. eigenvalues --   -0.14111  -0.05078   0.30773   0.38942   0.89276
  Beta virt. eigenvalues --    0.95026   0.95026   1.06433   1.35942   1.35942
  Beta virt. eigenvalues --    1.46803   1.46803   1.47375   1.58556   2.30922

 Mulliken charges and spin densities:
               1          2
     1  H    0.180220   0.767295
     2  H    0.006165   0.994012
     3  F   -0.186385  -0.761307
 Sum of Mulliken charges =   0.00000   1.00000

 Dipole moment (field-independent basis, Debye):
    X=             -1.9814    Y=             -0.0000    Z=             -0.0000  Tot=              1.9814
 Quadrupole moment (field-independent basis, Debye-Ang):
   XX=             -9.9982   YY=             -7.4842   ZZ=             -7.4842
   XY=             -0.0000   XZ=             -0.0000   YZ=              0.0000

  Exact polarizability:      32.498      -0.000       2.055      -0.000      -0.000       2.055
 Approx polarizability:      45.238      -0.000       1.944       0.000      -0.000       1.944

 ******    1 imaginary frequencies (negative Signs) ******

                      1                      2                      3
                      A                      A                      A
 Frequencies --  -1030.5722               139.5709               435.6199
 Red. masses --      1.0615                 1.0501                 1.0226
 Frc consts  --      0.6643                 0.0121                 0.1143
 IR Inten    --     82.3490                 3.9387                28.9885

                      4
                      A
 Frequencies --    435.6199
 Red. masses --      1.0226
 Frc consts  --      0.1143
 IR Inten    --     28.9885

 - Thermochemistry -
 -------------------
 Temperature   298.150 Kelvin.  Pressure   1.00000 Atm.
 Atom     1 has atomic number  1 and mass   1.00783

 Molecular mass:    21.01405 amu.
 Principal axes and moments of inertia in atomic units:
                           1         2         3
     Eigenvalues --     0.00000  94.85180  94.85180
           X            1.00000  -0.00000   0.00000
           Y            0.00000   1.00000   0.00000
           Z            0.00000   0.00000   1.00000
 This molecule is a prolate symmetric top.
 Rotational symmetry number  1.
 Rotational temperature (Kelvin)      0.91315
 Rotational constant (GHZ):          19.026958
    1 imaginary frequencies ignored.
 Zero-point vibrational energy       6046.0 (Joules/Mol)
                                    1.44503 (Kcal/Mol)
 Warning -- explicit consideration of   3 degrees of freedom as
           vibrations may cause significant error
 Vibrational temperatures:    200.81   626.76   626.76
          (Kelvin)

 Zero-point correction=                           0.002303 (Hartree/Particle)
 Thermal correction to Energy=                    0.005877
 Thermal correction to Enthalpy=                  0.006822
 Thermal correction to Gibbs Free Energy=        -0.019038
 Sum of electronic and zero-point Energies=           -100.781011
 Sum of electronic and thermal Energies=              -100.777436
 Sum of electronic and thermal Enthalpies=            -100.776492
 Sum of electronic and thermal Free Energies=         -100.802351

                     E (Thermal)             CV                S
                      KCal/Mol        Cal/Mol-Kelvin    Cal/Mol-Kelvin
 Total                    3.688              9.667             54.426
 Electronic               0.000              0.000              1.377
 Translational            0.889              2.981             35.068
 Rotational               0.592              1.987             13.490
 Vibrational              2.207              4.699              4.491
 Vibration     1          0.615              1.914              2.810
 Vibration     2          0.796              1.393              0.840
 Vibration     3          0.796              1.393              0.840

 Normal termination of Gaussian 16 at Fri Aug 22 17:01:03 2025.
