 Gaussian 16, Revision C.01,
 Gaussian 16:  ES64L-G16RevC.01  3-Jul-2019

 -----------------------------------------
 # sp b3lyp/6-311g** Force nosymm scf=(qc)
 -----------------------------------------

 -------------------
 Title Card Required
 -------------------
 Symbolic Z-matrix:
 Charge =  0 Multiplicity = 2

                          Input orientation:
 ---------------------------------------------------------------------
 Center     Atomic      Atomic             Coordinates (Angstroms)
 Number     Number       Type             X           Y           Z
 ---------------------------------------------------------------------
      1          1           0        0.000000    0.000000    0.000000
      2          1           0       -2.500000    0.000000    0.000000
      3          9           0        2.450000    0.000000    0.000000
 ---------------------------------------------------------------------

 SCF Done:  E(UB3LYP) =  -100.772247365     a.u. after   15 cycles

 Alpha  occ. eigenvalues --  -24.71439  -1.17664  -0.50533  -0.42449  -0.42449
 Alpha  occ. eigenvalues --   -0.33886
 Alpha virt. eigenvalues --   -0.12109   0.24738   0.33055   0.89925   0.93788
 Alpha virt. eigenvalues --    0.93788   1.06659   1.23767   1.23767   1.26732
 Alpha virt. eigenvalues --    1.37664   1.37664   1.43761   2.14602   2.32982

  Beta  occ. eigenvalues --  -24.68625  -1.09664  -0.39646  -0.39646  -0.35502
  Beta virt. eigenvalues --   -0.23185  -0.09632   0.25789   0.34669   0.95128
  Beta virt. eigenvalues --    0.95128   0.96406   1.09334   1.22199   1.22199
  Beta virt. eigenvalues --    1.31745   1.41545   1.41545   1.43297   2.14109

 Mulliken charges and spin densities:
               1          2
     1  H    0.085009  -0.859295
     2  H    0.011600   0.970607
     3  F   -0.096609   0.888688
 Sum of Mulliken charges =  -0.00000   1.00000

 Dipole moment (field-independent basis, Debye):
    X=             -1.3405    Y=             -0.0000    Z=             -0.0000  Tot=              1.3405
 Quadrupole moment (field-independent basis, Debye-Ang):
   XX=             -8.9041   YY=             -7.6048   ZZ=             -7.6048
   XY=             -0.0000   XZ=             -0.0000   YZ=             -0.0000

  Exact polarizability:      43.199      -0.000       2.017      -0.000      -0.000       2.017
 Approx polarizability:      47.235      -0.000       1.919      -0.000       0.000       1.919

 ******    2 imaginary frequencies (negative Signs) ******

                      1                      2                      3
                      A                      A                      A
 Frequencies --   -836.8739              -348.7627               334.2425
 Red. masses --      1.0226                 1.0912                 1.0182
 Frc consts  --      0.4219                 0.0782                 0.0670
 IR Inten    --     58.1773                24.1333                 5.9220

                      4
                      A
 Frequencies --    334.2425
 Red. masses --      1.0182
 Frc consts  --      0.0670
 IR Inten    --      5.9220

 - Thermochemistry -
 -------------------
 Temperature   298.150 Kelvin.  Pressure   1.00000 Atm.
 Atom     1 has atomic number  1 and mass   1.00783

 Molecular mass:    21.01405 amu.
 Principal axes and moments of inertia in atomic units:
                           1         2         3
     Eigenvalues --     0.00000 100.33580 100.33580
           X            1.00000  -0.00000   0.00000
           Y            0.00000   1.00000   0.00000
           Z            0.00000   0.00000   1.00000
 This molecule is a prolate symmetric top.
 Rotational symmetry number  1.
 Rotational temperature (Kelvin)      0.86324
 Rotational constant (GHZ):          17.987011
    2 imaginary frequencies ignored.
 Zero-point vibrational energy       3998.4 (Joules/Mol)
                                    0.95565 (Kcal/Mol)
 Warning -- explicit consideration of   2 degrees of freedom as
           vibrations may cause significant error
 Vibrational temperatures:    480.90   480.90
          (Kelvin)

 Zero-point correction=                           0.001523 (Hartree/Particle)
 Thermal correction to Energy=                    0.004642
 Thermal correction to Enthalpy=                  0.005586
 Thermal correction to Gibbs Free Energy=        -0.019371
 Sum of electronic and zero-point Energies=           -100.770724
 Sum of electronic and thermal Energies=              -100.767606
 Sum of electronic and thermal Enthalpies=            -100.766662
 Sum of electronic and thermal Free Energies=         -100.791619

                     E (Thermal)             CV                S
                      KCal/Mol        Cal/Mol-Kelvin    Cal/Mol-Kelvin
 Total                    2.913              8.182             52.526
 Electronic               0.000              0.000              1.377
 Translational            0.889              2.981             35.068
 Rotational               0.592              1.987             13.602
 Vibrational              1.431              3.214              2.479
 Vibration     1          0.716              1.607              1.239
 Vibration     2          0.716              1.607              1.239

 Normal termination of Gaussian 16 at Fri Aug 22 17:38:48 2025.
