 Gaussian 16, Revision C.01,
 Gaussian 16:  ES64L-G16RevC.01  3-Jul-2019

 -----------------------------------------
 # sp b3lyp/6-311g** Force nosymm scf=(qc)
 -----------------------------------------

 -------------------
 Title Card Required
 -------------------
 Symbolic Z-matrix:
 Charge =  0 Multiplicity = 2

                          Input orientation:
 ---------------------------------------------------------------------
 Center     Atomic      Atomic             Coordinates (Angstroms)
 Number     Number       Type             X           Y           Z
 ---------------------------------------------------------------------
      1          1           0        0.000000    0.000000    0.000000
      2          1           0       -1.450000    0.000000    0.000000
      3          9           0        4.000000    0.000000    0.000000
 ---------------------------------------------------------------------

 SCF Done:  E(UB3LYP) =  -100.828041245     a.u. after  221 cycles

 Alpha  occ. eigenvalues --  -24.76212  -1.22117  -0.55320  -0.46494  -0.46477
 Alpha  occ. eigenvalues --   -0.33973
 Alpha virt. eigenvalues --   -0.09061   0.24605   0.30854   0.86043   0.90921
 Alpha virt. eigenvalues --    0.91221   1.00837   1.08862   1.19145   1.19146
 Alpha virt. eigenvalues --    1.43156   1.43158   1.85661   2.23721   2.47774

  Beta  occ. eigenvalues --  -24.73057  -1.13044  -0.43331  -0.43314  -0.33972
  Beta virt. eigenvalues --   -0.25972  -0.09060   0.24608   0.30861   0.92421
  Beta virt. eigenvalues --    0.92717   0.95510   1.04987   1.08867   1.19145
  Beta virt. eigenvalues --    1.19146   1.43156   1.43158   1.85662   2.23721

 Mulliken charges and spin densities:
               1          2
     1  H    0.001093   0.000150
     2  H   -0.001780  -0.000227
     3  F    0.000688   1.000077
 Sum of Mulliken charges =   0.00000   1.00000

 Dipole moment (field-independent basis, Debye):
    X=              0.0201    Y=             -0.0000    Z=             -0.0000  Tot=              0.0201
 Quadrupole moment (field-independent basis, Debye-Ang):
   XX=             -6.3266   YY=             -7.0354   ZZ=             -7.5451
   XY=             -0.0000   XZ=             -0.0000   YZ=              0.3493

  Exact polarizability:      21.331      -0.000       2.429      -0.000       0.193       2.147
 Approx polarizability:      39.564      -0.000       2.512      -0.000       0.235       2.169

 ******    2 imaginary frequencies (negative Signs) ******

                      1                      2                      3
                      A                      A                      A
 Frequencies --  -1223.0848               -61.4575              1266.5745
 Red. masses --      1.0078                 1.1085                 1.0102
 Frc consts  --      0.8883                 0.0025                 0.9548
 IR Inten    --      0.0523                 0.0340                 0.0117

                      4
                      A
 Frequencies --   1271.3062
 Red. masses --      1.0102
 Frc consts  --      0.9619
 IR Inten    --      0.0015

 - Thermochemistry -
 -------------------
 Temperature   298.150 Kelvin.  Pressure   1.00000 Atm.
 Atom     1 has atomic number  1 and mass   1.00783

 Molecular mass:    21.01405 amu.
 Principal axes and moments of inertia in atomic units:
                           1         2         3
     Eigenvalues --     0.00000 149.06946 149.06946
           X            1.00000  -0.00000   0.00000
           Y            0.00000   1.00000   0.00000
           Z            0.00000   0.00000   1.00000
 This molecule is a prolate symmetric top.
 Rotational symmetry number  1.
 Rotational temperature (Kelvin)      0.58103
 Rotational constant (GHZ):          12.106713
    2 imaginary frequencies ignored.
 Zero-point vibrational energy      15179.9 (Joules/Mol)
                                    3.62808 (Kcal/Mol)
 Vibrational temperatures:   1822.32  1829.13
          (Kelvin)

 Zero-point correction=                           0.005782 (Hartree/Particle)
 Thermal correction to Energy=                    0.008168
 Thermal correction to Enthalpy=                  0.009112
 Thermal correction to Gibbs Free Energy=        -0.015071
 Sum of electronic and zero-point Energies=           -100.822260
 Sum of electronic and thermal Energies=              -100.819874
 Sum of electronic and thermal Enthalpies=            -100.818929
 Sum of electronic and thermal Free Energies=         -100.843112

                     E (Thermal)             CV                S
                      KCal/Mol        Cal/Mol-Kelvin    Cal/Mol-Kelvin
 Total                    5.125              5.296             50.896
 Electronic               0.000              0.000              1.377
 Translational            0.889              2.981             35.068
 Rotational               0.592              1.987             14.388
 Vibrational              3.644              0.328              0.062

 Normal termination of Gaussian 16 at Sat Aug 23 01:49:03 2025.
