 Gaussian 16, Revision C.01,
 Gaussian 16:  ES64L-G16RevC.01  3-Jul-2019

 -----------------------------------------
 # sp b3lyp/6-311g** Force nosymm scf=(qc)
 -----------------------------------------

 -------------------
 Title Card Required
 -------------------
 Symbolic Z-matrix:
 Charge =  0 Multiplicity = 2

                          Input orientation:
 ---------------------------------------------------------------------
 Center     Atomic      Atomic             Coordinates (Angstroms)
 Number     Number       Type             X           Y           Z
 ---------------------------------------------------------------------
      1          1           0        0.000000    0.000000    0.000000
      2          1           0       -0.700000    0.000000    0.000000
      3          9           0        3.050000    0.000000    0.000000
 ---------------------------------------------------------------------

 SCF Done:  E(UB3LYP) =  -100.932967473     a.u. after   31 cycles

 Alpha  occ. eigenvalues --  -24.76577  -1.22386  -0.55579  -0.46855  -0.46729
 Alpha  occ. eigenvalues --   -0.44047
 Alpha virt. eigenvalues --    0.07007   0.19637   0.48610   0.85880   0.90753
 Alpha virt. eigenvalues --    0.93886   1.05594   1.09042   1.09049   1.57952
 Alpha virt. eigenvalues --    1.85947   1.85955   1.91469   2.38520   3.57057

  Beta  occ. eigenvalues --  -24.73416  -1.13299  -0.44369  -0.43560  -0.43359
  Beta virt. eigenvalues --   -0.26203   0.07052   0.19665   0.48714   0.92252
  Beta virt. eigenvalues --    0.95338   0.95693   1.09042   1.09048   1.09265
  Beta virt. eigenvalues --    1.57967   1.85946   1.85954   1.91506   2.38525

 Mulliken charges and spin densities:
               1          2
     1  H   -0.005841  -0.001212
     2  H   -0.003179   0.000027
     3  F    0.009020   1.001185
 Sum of Mulliken charges =   0.00000   1.00000

 Dipole moment (field-independent basis, Debye):
    X=              0.0881    Y=             -0.0000    Z=              0.0000  Tot=              0.0881
 Quadrupole moment (field-independent basis, Debye-Ang):
   XX=             -6.0644   YY=             -6.4578   ZZ=             -6.4576
   XY=              0.0000   XZ=             -0.0000   YZ=             -0.4318

  Exact polarizability:       7.966       0.000       2.164      -0.000      -0.230       2.164
 Approx polarizability:       8.902       0.000       2.303      -0.000      -0.289       2.303

 ******    2 imaginary frequencies (negative Signs) ******

                      1                      2                      3
                      A                      A                      A
 Frequencies --  -1165.9964             -1165.8341                62.4338
 Red. masses --      1.0089                 1.0089                 1.1085
 Frc consts  --      0.8081                 0.8079                 0.0025
 IR Inten    --      0.0137                 0.0132                 0.2149

                      4
                      A
 Frequencies --   5088.2263
 Red. masses --      1.0078
 Frc consts  --     15.3733
 IR Inten    --      0.3255

 - Thermochemistry -
 -------------------
 Temperature   298.150 Kelvin.  Pressure   1.00000 Atm.
 Atom     1 has atomic number  1 and mass   1.00783

 Molecular mass:    21.01405 amu.
 Principal axes and moments of inertia in atomic units:
                           1         2         3
     Eigenvalues --     0.00000  76.10949  76.10949
           X            1.00000  -0.00000   0.00000
           Y            0.00000   1.00000   0.00000
           Z            0.00000   0.00000   1.00000
 This molecule is a prolate symmetric top.
 Rotational symmetry number  1.
 Rotational temperature (Kelvin)      1.13802
 Rotational constant (GHZ):          23.712433
    2 imaginary frequencies ignored.
 Zero-point vibrational energy      30807.8 (Joules/Mol)
                                    7.36324 (Kcal/Mol)
 Warning -- explicit consideration of   1 degrees of freedom as
           vibrations may cause significant error
 Vibrational temperatures:     89.83  7320.82
          (Kelvin)

 Zero-point correction=                           0.011734 (Hartree/Particle)
 Thermal correction to Energy=                    0.014904
 Thermal correction to Enthalpy=                  0.015848
 Thermal correction to Gibbs Free Energy=        -0.009751
 Sum of electronic and zero-point Energies=           -100.921233
 Sum of electronic and thermal Energies=              -100.918064
 Sum of electronic and thermal Enthalpies=            -100.917120
 Sum of electronic and thermal Free Energies=         -100.942718

                     E (Thermal)             CV                S
                      KCal/Mol        Cal/Mol-Kelvin    Cal/Mol-Kelvin
 Total                    9.352              6.940             53.877
 Electronic               0.000              0.000              1.377
 Translational            0.889              2.981             35.068
 Rotational               0.592              1.987             13.053
 Vibrational              7.871              1.972              4.379
 Vibration     1          0.597              1.972              4.379

 Normal termination of Gaussian 16 at Fri Aug 22 19:36:30 2025.
