 Gaussian 16, Revision C.01,
 Gaussian 16:  ES64L-G16RevC.01  3-Jul-2019

 -----------------------------------------
 # sp b3lyp/6-311g** Force nosymm scf=(qc)
 -----------------------------------------

 -------------------
 Title Card Required
 -------------------
 Symbolic Z-matrix:
 Charge =  0 Multiplicity = 2

                          Input orientation:
 ---------------------------------------------------------------------
 Center     Atomic      Atomic             Coordinates (Angstroms)
 Number     Number       Type             X           Y           Z
 ---------------------------------------------------------------------
      1          1           0        0.000000    0.000000    0.000000
      2          1           0       -3.050000    0.000000    0.000000
      3          9           0        2.850000    0.000000    0.000000
 ---------------------------------------------------------------------

 SCF Done:  E(UB3LYP) =  -100.763002503     a.u. after   20 cycles

 Alpha  occ. eigenvalues --  -24.73514  -1.19614  -0.52631  -0.44195  -0.44195
 Alpha  occ. eigenvalues --   -0.32810
 Alpha virt. eigenvalues --   -0.09396   0.24450   0.35056   0.89877   0.92616
 Alpha virt. eigenvalues --    0.92616   1.04839   1.24724   1.24724   1.25457
 Alpha virt. eigenvalues --    1.42121   1.42121   1.42853   2.15325   2.38234

  Beta  occ. eigenvalues --  -24.70528  -1.11069  -0.41209  -0.41209  -0.34154
  Beta virt. eigenvalues --   -0.24447  -0.07566   0.24626   0.36848   0.94063
  Beta virt. eigenvalues --    0.94063   0.98313   1.08451   1.23196   1.23196
  Beta virt. eigenvalues --    1.24688   1.44724   1.44810   1.44810   2.15448

 Mulliken charges and spin densities:
               1          2
     1  H    0.047362  -0.939192
     2  H    0.001781   0.993538
     3  F   -0.049143   0.945654
 Sum of Mulliken charges =  -0.00000   1.00000

 Dipole moment (field-independent basis, Debye):
    X=             -0.7443    Y=              0.0000    Z=             -0.0000  Tot=              0.7443
 Quadrupole moment (field-independent basis, Debye-Ang):
   XX=             -8.5106   YY=             -7.6122   ZZ=             -7.6122
   XY=              0.0000   XZ=             -0.0000   YZ=             -0.0000

  Exact polarizability:      35.126       0.000       2.021      -0.000       0.000       2.021
 Approx polarizability:      37.025       0.000       1.922      -0.000      -0.000       1.922

 ******    2 imaginary frequencies (negative Signs) ******

                      1                      2                      3
                      A                      A                      A
 Frequencies --   -481.0791              -189.5093               178.9382
 Red. masses --      1.0345                 1.0779                 1.0188
 Frc consts  --      0.1411                 0.0228                 0.0192
 IR Inten    --     47.2389                 4.0280                 2.0307

                      4
                      A
 Frequencies --    178.9382
 Red. masses --      1.0188
 Frc consts  --      0.0192
 IR Inten    --      2.0307

 - Thermochemistry -
 -------------------
 Temperature   298.150 Kelvin.  Pressure   1.00000 Atm.
 Atom     1 has atomic number  1 and mass   1.00783

 Molecular mass:    21.01405 amu.
 Principal axes and moments of inertia in atomic units:
                           1         2         3
     Eigenvalues --     0.00000 141.29922 141.29922
           X            1.00000  -0.00000   0.00000
           Y            0.00000   1.00000   0.00000
           Z            0.00000   0.00000   1.00000
 This molecule is a prolate symmetric top.
 Rotational symmetry number  1.
 Rotational temperature (Kelvin)      0.61298
 Rotational constant (GHZ):          12.772478
    2 imaginary frequencies ignored.
 Zero-point vibrational energy       2140.6 (Joules/Mol)
                                    0.51161 (Kcal/Mol)
 Warning -- explicit consideration of   2 degrees of freedom as
           vibrations may cause significant error
 Vibrational temperatures:    257.45   257.45
          (Kelvin)

 Zero-point correction=                           0.000815 (Hartree/Particle)
 Thermal correction to Energy=                    0.004365
 Thermal correction to Enthalpy=                  0.005309
 Thermal correction to Gibbs Free Energy=        -0.021016
 Sum of electronic and zero-point Energies=           -100.762187
 Sum of electronic and thermal Energies=              -100.758638
 Sum of electronic and thermal Enthalpies=            -100.757694
 Sum of electronic and thermal Free Energies=         -100.784019

                     E (Thermal)             CV                S
                      KCal/Mol        Cal/Mol-Kelvin    Cal/Mol-Kelvin
 Total                    2.739              8.704             55.406
 Electronic               0.000              0.000              1.377
 Translational            0.889              2.981             35.068
 Rotational               0.592              1.987             14.282
 Vibrational              1.258              3.736              4.679
 Vibration     1          0.629              1.868              2.339
 Vibration     2          0.629              1.868              2.339

 Normal termination of Gaussian 16 at Fri Aug 22 18:54:28 2025.
