 Gaussian 16, Revision C.01,
 Gaussian 16:  ES64L-G16RevC.01  3-Jul-2019

 -----------------------------------------
 # sp b3lyp/6-311g** Force nosymm scf=(qc)
 -----------------------------------------

 -------------------
 Title Card Required
 -------------------
 Symbolic Z-matrix:
 Charge =  0 Multiplicity = 2

                          Input orientation:
 ---------------------------------------------------------------------
 Center     Atomic      Atomic             Coordinates (Angstroms)
 Number     Number       Type             X           Y           Z
 ---------------------------------------------------------------------
      1          1           0        0.000000    0.000000    0.000000
      2          1           0       -3.350000    0.000000    0.000000
      3          9           0        3.700000    0.000000    0.000000
 ---------------------------------------------------------------------

 SCF Done:  E(UB3LYP) =  -100.759011074     a.u. after   30 cycles

 Alpha  occ. eigenvalues --  -24.75661  -1.21604  -0.54785  -0.45998  -0.45998
 Alpha  occ. eigenvalues --   -0.32317
 Alpha virt. eigenvalues --   -0.07076   0.24500   0.37121   0.87064   0.91309
 Alpha virt. eigenvalues --    0.91309   1.01403   1.25193   1.25193   1.25445
 Alpha virt. eigenvalues --    1.45017   1.45243   1.45243   2.15277   2.40734

  Beta  occ. eigenvalues --  -24.72529  -1.12602  -0.42859  -0.42859  -0.32638
  Beta virt. eigenvalues --   -0.25624  -0.06718   0.24298   0.37707   0.92803
  Beta virt. eigenvalues --    0.92803   0.96321   1.05477   1.24832   1.24832
  Beta virt. eigenvalues --    1.25064   1.45580   1.45811   1.45811   2.15383

 Mulliken charges and spin densities:
               1          2
     1  H    0.006253  -0.989785
     2  H    0.000179   0.996900
     3  F   -0.006432   0.992885
 Sum of Mulliken charges =   0.00000   1.00000

 Dipole moment (field-independent basis, Debye):
    X=             -0.1255    Y=              0.0000    Z=              0.0000  Tot=              0.1255
 Quadrupole moment (field-independent basis, Debye-Ang):
   XX=             -7.1254   YY=             -7.6258   ZZ=             -7.6258
   XY=             -0.0000   XZ=             -0.0000   YZ=             -0.0000

  Exact polarizability:      18.646      -0.000       2.027      -0.000       0.000       2.027
 Approx polarizability:      13.920      -0.000       1.935      -0.000       0.000       1.935

 ******    2 imaginary frequencies (negative Signs) ******

                      1                      2                      3
                      A                      A                      A
 Frequencies --   -243.0818               -97.4001                83.0802
 Red. masses --      1.0138                 1.1013                 1.0168
 Frc consts  --      0.0353                 0.0062                 0.0041
 IR Inten    --      3.8127                 1.4667                 0.0383

                      4
                      A
 Frequencies --     83.0805
 Red. masses --      1.0168
 Frc consts  --      0.0041
 IR Inten    --      0.0383

 - Thermochemistry -
 -------------------
 Temperature   298.150 Kelvin.  Pressure   1.00000 Atm.
 Atom     1 has atomic number  1 and mass   1.00783

 Molecular mass:    21.01405 amu.
 Principal axes and moments of inertia in atomic units:
                           1         2         3
     Eigenvalues --     0.00000 208.20326 208.20326
           X            1.00000  -0.00000   0.00000
           Y            0.00000   1.00000   0.00000
           Z            0.00000   0.00000   1.00000
 This molecule is a prolate symmetric top.
 Rotational symmetry number  1.
 Rotational temperature (Kelvin)      0.41601
 Rotational constant (GHZ):           8.668170
    2 imaginary frequencies ignored.
 Zero-point vibrational energy        993.9 (Joules/Mol)
                                    0.23754 (Kcal/Mol)
 Warning -- explicit consideration of   2 degrees of freedom as
           vibrations may cause significant error
 Vibrational temperatures:    119.53   119.53
          (Kelvin)

 Zero-point correction=                           0.000379 (Hartree/Particle)
 Thermal correction to Energy=                    0.004274
 Thermal correction to Enthalpy=                  0.005218
 Thermal correction to Gibbs Free Energy=        -0.022877
 Sum of electronic and zero-point Energies=           -100.758633
 Sum of electronic and thermal Energies=              -100.754737
 Sum of electronic and thermal Enthalpies=            -100.753793
 Sum of electronic and thermal Free Energies=         -100.781888

                     E (Thermal)             CV                S
                      KCal/Mol        Cal/Mol-Kelvin    Cal/Mol-Kelvin
 Total                    2.682              8.890             59.131
 Electronic               0.000              0.000              1.377
 Translational            0.889              2.981             35.068
 Rotational               0.592              1.987             15.052
 Vibrational              1.201              3.922              7.634
 Vibration     1          0.600              1.961              3.817
 Vibration     2          0.600              1.961              3.817

 Normal termination of Gaussian 16 at Sat Aug 23 00:04:40 2025.
