 Gaussian 16, Revision C.01,
 Gaussian 16:  ES64L-G16RevC.01  3-Jul-2019

 -----------------------------------------
 # sp b3lyp/6-311g** Force nosymm scf=(qc)
 -----------------------------------------

 -------------------
 Title Card Required
 -------------------
 Symbolic Z-matrix:
 Charge =  0 Multiplicity = 2

                          Input orientation:
 ---------------------------------------------------------------------
 Center     Atomic      Atomic             Coordinates (Angstroms)
 Number     Number       Type             X           Y           Z
 ---------------------------------------------------------------------
      1          1           0        0.000000    0.000000    0.000000
      2          1           0       -2.250000    0.000000    0.000000
      3          9           0        1.400000    0.000000    0.000000
 ---------------------------------------------------------------------

 SCF Done:  E(UB3LYP) =  -100.879572138     a.u. after    8 cycles

 Alpha  occ. eigenvalues --  -24.63879  -1.10042  -0.44662  -0.36318  -0.36318
 Alpha  occ. eigenvalues --   -0.36260
 Alpha virt. eigenvalues --   -0.10348   0.23758   0.26847   0.93565   0.93565
 Alpha virt. eigenvalues --    1.03299   1.12669   1.21145   1.21145   1.29568
 Alpha virt. eigenvalues --    1.33431   1.33431   1.72830   2.11113   2.23956

  Beta  occ. eigenvalues --  -24.63659  -1.09469  -0.43822  -0.36112  -0.36112
  Beta virt. eigenvalues --   -0.15411  -0.06027   0.26312   0.34678   0.93514
  Beta virt. eigenvalues --    0.93514   1.03843   1.15767   1.32629   1.32629
  Beta virt. eigenvalues --    1.40778   1.40778   1.45016   1.72878   2.20294

 Mulliken charges and spin densities:
               1          2
     1  H    0.336700  -0.036442
     2  H    0.025538   0.968063
     3  F   -0.362238   0.068379
 Sum of Mulliken charges =   0.00000   1.00000

 Dipole moment (field-independent basis, Debye):
    X=             -2.8014    Y=             -0.0000    Z=             -0.0000  Tot=              2.8014
 Quadrupole moment (field-independent basis, Debye-Ang):
   XX=             -8.8973   YY=             -7.2531   ZZ=             -7.2531
   XY=             -0.0000   XZ=             -0.0000   YZ=             -0.0000

  Exact polarizability:      20.464      -0.000       2.262       0.000      -0.000       2.262
 Approx polarizability:      29.470      -0.000       2.202       0.000      -0.000       2.202

 ******    2 imaginary frequencies (negative Signs) ******

                      1                      2                      3
                      A                      A                      A
 Frequencies --  -1248.5315              -264.9503              1062.3385
 Red. masses --      1.0420                 1.0699                 1.0246
 Frc consts  --      0.9571                 0.0442                 0.6813
 IR Inten    --    172.4731                 0.8246                98.1477

                      4
                      A
 Frequencies --   1062.3385
 Red. masses --      1.0246
 Frc consts  --      0.6813
 IR Inten    --     98.1477

 - Thermochemistry -
 -------------------
 Temperature   298.150 Kelvin.  Pressure   1.00000 Atm.
 Atom     1 has atomic number  1 and mass   1.00783

 Molecular mass:    21.01405 amu.
 Principal axes and moments of inertia in atomic units:
                           1         2         3
     Eigenvalues --     0.00000  50.59994  50.59994
           X            1.00000  -0.00000   0.00000
           Y            0.00000   1.00000   0.00000
           Z            0.00000   0.00000   1.00000
 This molecule is a prolate symmetric top.
 Rotational symmetry number  1.
 Rotational temperature (Kelvin)      1.71174
 Rotational constant (GHZ):          35.666864
    2 imaginary frequencies ignored.
 Zero-point vibrational energy      12708.4 (Joules/Mol)
                                    3.03738 (Kcal/Mol)
 Vibrational temperatures:   1528.47  1528.47
          (Kelvin)

 Zero-point correction=                           0.004840 (Hartree/Particle)
 Thermal correction to Energy=                    0.007259
 Thermal correction to Enthalpy=                  0.008203
 Thermal correction to Gibbs Free Energy=        -0.014999
 Sum of electronic and zero-point Energies=           -100.874732
 Sum of electronic and thermal Energies=              -100.872313
 Sum of electronic and thermal Enthalpies=            -100.871369
 Sum of electronic and thermal Free Energies=         -100.894571

                     E (Thermal)             CV                S
                      KCal/Mol        Cal/Mol-Kelvin    Cal/Mol-Kelvin
 Total                    4.555              5.596             48.832
 Electronic               0.000              0.000              1.377
 Translational            0.889              2.981             35.068
 Rotational               0.592              1.987             12.241
 Vibrational              3.074              0.628              0.145

 Normal termination of Gaussian 16 at Fri Aug 22 16:20:21 2025.
