 Gaussian 16, Revision C.01,
 Gaussian 16:  ES64L-G16RevC.01  3-Jul-2019

 -----------------------------------------
 # sp b3lyp/6-311g** Force nosymm scf=(qc)
 -----------------------------------------

 -------------------
 Title Card Required
 -------------------
 Symbolic Z-matrix:
 Charge =  0 Multiplicity = 2

                          Input orientation:
 ---------------------------------------------------------------------
 Center     Atomic      Atomic             Coordinates (Angstroms)
 Number     Number       Type             X           Y           Z
 ---------------------------------------------------------------------
      1          1           0        0.000000    0.000000    0.000000
      2          1           0       -0.800000    0.000000    0.000000
      3          9           0        0.500000    0.000000    0.000000
 ---------------------------------------------------------------------

 SCF Done:  E(UB3LYP) =  -100.152903679     a.u. after    7 cycles

 Alpha  occ. eigenvalues --  -24.68096  -1.51320  -0.71317  -0.49255  -0.49255
 Alpha  occ. eigenvalues --   -0.29616
 Alpha virt. eigenvalues --    0.16669   0.20693   0.83811   0.83811   0.84064
 Alpha virt. eigenvalues --    0.95730   1.11815   1.11815   1.49226   1.61112
 Alpha virt. eigenvalues --    1.95447   1.95447   2.28689   2.93791   3.71941

  Beta  occ. eigenvalues --  -24.67587  -1.49453  -0.69514  -0.48860  -0.48860
  Beta virt. eigenvalues --   -0.09164   0.17377   0.27979   0.84656   0.85102
  Beta virt. eigenvalues --    0.85102   1.01214   1.19149   1.19149   1.50355
  Beta virt. eigenvalues --    1.68191   2.01122   2.01122   2.39657   3.04006

 Mulliken charges and spin densities:
               1          2
     1  H    0.189480  -0.046591
     2  H   -0.131007   1.025337
     3  F   -0.058473   0.021254
 Sum of Mulliken charges =   0.00000   1.00000

 Dipole moment (field-independent basis, Debye):
    X=             -0.3750    Y=             -0.0000    Z=             -0.0000  Tot=              0.3750
 Quadrupole moment (field-independent basis, Debye-Ang):
   XX=             -7.3945   YY=             -6.3627   ZZ=             -6.3627
   XY=             -0.0000   XZ=              0.0000   YZ=              0.0000

  Exact polarizability:       6.401      -0.000       2.419      -0.000      -0.000       2.419
 Approx polarizability:       6.043       0.000       2.511       0.000      -0.000       2.511

 ******    2 imaginary frequencies (negative Signs) ******

                      1                      2                      3
                      A                      A                      A
 Frequencies --  -9317.7777             -9317.7777              3455.6356
 Red. masses --      1.0245                 1.0245                 1.0553
 Frc consts  --     52.4073                52.4073                 7.4246
 IR Inten    --    188.4747               188.4747               290.8594

                      4
                      A
 Frequencies --  19259.7506
 Red. masses --      1.0563
 Frc consts  --    230.8472
 IR Inten    --      6.8482

 - Thermochemistry -
 -------------------
 Temperature   298.150 Kelvin.  Pressure   1.00000 Atm.
 Atom     1 has atomic number  1 and mass   1.00783

 Molecular mass:    21.01405 amu.
 Principal axes and moments of inertia in atomic units:
                           1         2         3
     Eigenvalues --     0.00000   6.42283   6.42283
           X            1.00000  -0.00000   0.00000
           Y            0.00000   1.00000   0.00000
           Z            0.00000   0.00000   1.00000
 This molecule is a prolate symmetric top.
 Rotational symmetry number  1.
 Rotational temperature (Kelvin)     13.48532
 Rotational constant (GHZ):         280.988467
    2 imaginary frequencies ignored.
 Zero-point vibrational energy     135868.2 (Joules/Mol)
                                   32.47327 (Kcal/Mol)
 Vibrational temperatures:   4971.89 27710.49
          (Kelvin)

 Zero-point correction=                           0.051749 (Hartree/Particle)
 Thermal correction to Energy=                    0.054110
 Thermal correction to Enthalpy=                  0.055054
 Thermal correction to Gibbs Free Energy=         0.033870
 Sum of electronic and zero-point Energies=           -100.101154
 Sum of electronic and thermal Energies=              -100.098794
 Sum of electronic and thermal Enthalpies=            -100.097850
 Sum of electronic and thermal Free Energies=         -100.119033

                     E (Thermal)             CV                S
                      KCal/Mol        Cal/Mol-Kelvin    Cal/Mol-Kelvin
 Total                   33.954              4.968             44.585
 Electronic               0.000              0.000              1.377
 Translational            0.889              2.981             35.068
 Rotational               0.592              1.987              8.140
 Vibrational             32.473              0.000              0.000

 Normal termination of Gaussian 16 at Fri Aug 22 15:36:04 2025.
