 Gaussian 16, Revision C.01,
 Gaussian 16:  ES64L-G16RevC.01  3-Jul-2019

 -----------------------------------------
 # sp b3lyp/6-311g** Force nosymm scf=(qc)
 -----------------------------------------

 -------------------
 Title Card Required
 -------------------
 Symbolic Z-matrix:
 Charge =  0 Multiplicity = 2

                          Input orientation:
 ---------------------------------------------------------------------
 Center     Atomic      Atomic             Coordinates (Angstroms)
 Number     Number       Type             X           Y           Z
 ---------------------------------------------------------------------
      1          1           0        0.000000    0.000000    0.000000
      2          1           0       -1.550000    0.000000    0.000000
      3          9           0        4.000000    0.000000    0.000000
 ---------------------------------------------------------------------

 SCF Done:  E(UB3LYP) =  -100.812568797     a.u. after  149 cycles

 Alpha  occ. eigenvalues --  -24.76202  -1.22108  -0.55312  -0.46484  -0.46468
 Alpha  occ. eigenvalues --   -0.33438
 Alpha virt. eigenvalues --   -0.10077   0.25186   0.30504   0.86050   0.90928
 Alpha virt. eigenvalues --    0.91221   1.00843   1.06872   1.21425   1.21426
 Alpha virt. eigenvalues --    1.40375   1.40377   1.78003   2.20701   2.44840

  Beta  occ. eigenvalues --  -24.73047  -1.13035  -0.43322  -0.43305  -0.33436
  Beta virt. eigenvalues --   -0.25963  -0.10090   0.25186   0.30511   0.92429
  Beta virt. eigenvalues --    0.92706   0.95518   1.04988   1.06874   1.21421
  Beta virt. eigenvalues --    1.21423   1.40371   1.40373   1.78011   2.20735

 Mulliken charges and spin densities:
               1          2
     1  H    0.001058  -0.335348
     2  H   -0.001707   0.335307
     3  F    0.000649   1.000040
 Sum of Mulliken charges =   0.00000   1.00000

 Dipole moment (field-independent basis, Debye):
    X=              0.0201    Y=             -0.0000    Z=             -0.0000  Tot=              0.0201
 Quadrupole moment (field-independent basis, Debye-Ang):
   XX=             -6.4031   YY=             -7.0754   ZZ=             -7.5897
   XY=             -0.0000   XZ=             -0.0000   YZ=              0.3476

  Exact polarizability:      22.998      -0.000       2.400       0.000       0.184       2.126
 Approx polarizability:      42.163      -0.000       2.484      -0.000       0.234       2.137

 ******    2 imaginary frequencies (negative Signs) ******

                      1                      2                      3
                      A                      A                      A
 Frequencies --  -2128.1906               -57.5970              1138.7526
 Red. masses --      1.0078                 1.1085                 1.0104
 Frc consts  --      2.6894                 0.0022                 0.7720
 IR Inten    --      0.0154                 0.0300                 0.0016

                      4
                      A
 Frequencies --   1141.2333
 Red. masses --      1.0104
 Frc consts  --      0.7754
 IR Inten    --      0.0000

 - Thermochemistry -
 -------------------
 Temperature   298.150 Kelvin.  Pressure   1.00000 Atm.
 Atom     1 has atomic number  1 and mass   1.00783

 Molecular mass:    21.01405 amu.
 Principal axes and moments of inertia in atomic units:
                           1         2         3
     Eigenvalues --     0.00000 152.70042 152.70042
           X            1.00000  -0.00000   0.00000
           Y            0.00000   1.00000   0.00000
           Z            0.00000   0.00000   1.00000
 This molecule is a prolate symmetric top.
 Rotational symmetry number  1.
 Rotational temperature (Kelvin)      0.56721
 Rotational constant (GHZ):          11.818836
    2 imaginary frequencies ignored.
 Zero-point vibrational energy      13637.3 (Joules/Mol)
                                    3.25940 (Kcal/Mol)
 Vibrational temperatures:   1638.41  1641.98
          (Kelvin)

 Zero-point correction=                           0.005194 (Hartree/Particle)
 Thermal correction to Energy=                    0.007597
 Thermal correction to Enthalpy=                  0.008541
 Thermal correction to Gibbs Free Energy=        -0.015684
 Sum of electronic and zero-point Energies=           -100.807375
 Sum of electronic and thermal Energies=              -100.804972
 Sum of electronic and thermal Enthalpies=            -100.804027
 Sum of electronic and thermal Free Energies=         -100.828253

                     E (Thermal)             CV                S
                      KCal/Mol        Cal/Mol-Kelvin    Cal/Mol-Kelvin
 Total                    4.767              5.463             50.988
 Electronic               0.000              0.000              1.377
 Translational            0.889              2.981             35.068
 Rotational               0.592              1.987             14.436
 Vibrational              3.286              0.495              0.106

 Normal termination of Gaussian 16 at Sat Aug 23 01:49:56 2025.
