 Gaussian 16, Revision C.01,
 Gaussian 16:  ES64L-G16RevC.01  3-Jul-2019

 -----------------------------------------
 # sp b3lyp/6-311g** Force nosymm scf=(qc)
 -----------------------------------------

 -------------------
 Title Card Required
 -------------------
 Symbolic Z-matrix:
 Charge =  0 Multiplicity = 2

                          Input orientation:
 ---------------------------------------------------------------------
 Center     Atomic      Atomic             Coordinates (Angstroms)
 Number     Number       Type             X           Y           Z
 ---------------------------------------------------------------------
      1          1           0        0.000000    0.000000    0.000000
      2          1           0       -2.550000    0.000000    0.000000
      3          9           0        3.700000    0.000000    0.000000
 ---------------------------------------------------------------------

 SCF Done:  E(UB3LYP) =  -100.762191573     a.u. after   34 cycles

 Alpha  occ. eigenvalues --  -24.75704  -1.21643  -0.54827  -0.46035  -0.46035
 Alpha  occ. eigenvalues --   -0.32564
 Alpha virt. eigenvalues --   -0.09172   0.25691   0.34739   0.87052   0.91279
 Alpha virt. eigenvalues --    0.91279   1.01373   1.25068   1.25068   1.26625
 Alpha virt. eigenvalues --    1.41909   1.41909   1.43200   2.15935   2.37148

  Beta  occ. eigenvalues --  -24.72571  -1.12637  -0.42894  -0.42894  -0.32783
  Beta virt. eigenvalues --   -0.25656  -0.08838   0.25500   0.35225   0.92774
  Beta virt. eigenvalues --    0.92774   0.96331   1.05462   1.24816   1.24816
  Beta virt. eigenvalues --    1.26332   1.42411   1.42411   1.43698   2.16205

 Mulliken charges and spin densities:
               1          2
     1  H    0.004532  -0.967181
     2  H    0.001364   0.973829
     3  F   -0.005895   0.993352
 Sum of Mulliken charges =   0.00000   1.00000

 Dipole moment (field-independent basis, Debye):
    X=             -0.1287    Y=             -0.0000    Z=              0.0000  Tot=              0.1287
 Quadrupole moment (field-independent basis, Debye-Ang):
   XX=             -6.9083   YY=             -7.6623   ZZ=             -7.6623
   XY=             -0.0000   XZ=             -0.0000   YZ=             -0.0000

  Exact polarizability:      25.942       0.000       2.019       0.000       0.000       2.019
 Approx polarizability:      19.192      -0.000       1.930      -0.000       0.000       1.930

 ******    2 imaginary frequencies (negative Signs) ******

                      1                      2                      3
                      A                      A                      A
 Frequencies --   -619.4475              -108.8201               227.4170
 Red. masses --      1.0079                 1.1084                 1.0141
 Frc consts  --      0.2279                 0.0077                 0.0309
 IR Inten    --      2.5642                 2.7184                 0.0152

                      4
                      A
 Frequencies --    227.4170
 Red. masses --      1.0141
 Frc consts  --      0.0309
 IR Inten    --      0.0152

 - Thermochemistry -
 -------------------
 Temperature   298.150 Kelvin.  Pressure   1.00000 Atm.
 Atom     1 has atomic number  1 and mass   1.00783

 Molecular mass:    21.01405 amu.
 Principal axes and moments of inertia in atomic units:
                           1         2         3
     Eigenvalues --     0.00000 172.76818 172.76818
           X            1.00000  -0.00000   0.00000
           Y            0.00000   1.00000   0.00000
           Z            0.00000   0.00000   1.00000
 This molecule is a prolate symmetric top.
 Rotational symmetry number  1.
 Rotational temperature (Kelvin)      0.50133
 Rotational constant (GHZ):          10.446028
    2 imaginary frequencies ignored.
 Zero-point vibrational energy       2720.5 (Joules/Mol)
                                    0.65022 (Kcal/Mol)
 Warning -- explicit consideration of   2 degrees of freedom as
           vibrations may cause significant error
 Vibrational temperatures:    327.20   327.20
          (Kelvin)

 Zero-point correction=                           0.001036 (Hartree/Particle)
 Thermal correction to Energy=                    0.004435
 Thermal correction to Enthalpy=                  0.005379
 Thermal correction to Gibbs Free Energy=        -0.020718
 Sum of electronic and zero-point Energies=           -100.761155
 Sum of electronic and thermal Energies=              -100.757757
 Sum of electronic and thermal Enthalpies=            -100.756813
 Sum of electronic and thermal Free Energies=         -100.782910

                     E (Thermal)             CV                S
                      KCal/Mol        Cal/Mol-Kelvin    Cal/Mol-Kelvin
 Total                    2.783              8.566             54.926
 Electronic               0.000              0.000              1.377
 Translational            0.889              2.981             35.068
 Rotational               0.592              1.987             14.682
 Vibrational              1.302              3.598              3.798
 Vibration     1          0.651              1.799              1.899
 Vibration     2          0.651              1.799              1.899

 Normal termination of Gaussian 16 at Sat Aug 23 00:03:25 2025.
