 Gaussian 16, Revision C.01,
 Gaussian 16:  ES64L-G16RevC.01  3-Jul-2019

 -----------------------------------------
 # sp b3lyp/6-311g** Force nosymm scf=(qc)
 -----------------------------------------

 -------------------
 Title Card Required
 -------------------
 Symbolic Z-matrix:
 Charge =  0 Multiplicity = 2

                          Input orientation:
 ---------------------------------------------------------------------
 Center     Atomic      Atomic             Coordinates (Angstroms)
 Number     Number       Type             X           Y           Z
 ---------------------------------------------------------------------
      1          1           0        0.000000    0.000000    0.000000
      2          1           0       -0.950000    0.000000    0.000000
      3          9           0        3.050000    0.000000    0.000000
 ---------------------------------------------------------------------

 SCF Done:  E(UB3LYP) =  -100.914595775     a.u. after    6 cycles

 Alpha  occ. eigenvalues --  -24.76178  -1.22075  -0.55305  -0.46441  -0.46441
 Alpha  occ. eigenvalues --   -0.39999
 Alpha virt. eigenvalues --    0.01227   0.20859   0.39813   0.89484   0.90947
 Alpha virt. eigenvalues --    0.90947   1.04335   1.08323   1.08323   1.41253
 Alpha virt. eigenvalues --    1.68634   1.68634   2.22249   2.37141   2.64311

  Beta  occ. eigenvalues --  -24.73037  -1.13038  -0.43291  -0.43291  -0.39977
  Beta virt. eigenvalues --   -0.26149   0.01380   0.20977   0.40174   0.92439
  Beta virt. eigenvalues --    0.92439   0.98269   1.08360   1.08360   1.08606
  Beta virt. eigenvalues --    1.41306   1.68663   1.68663   2.22343   2.37197

 Mulliken charges and spin densities:
               1          2
     1  H   -0.009244  -0.003406
     2  H    0.008934   0.007709
     3  F    0.000310   0.995697
 Sum of Mulliken charges =   0.00000   1.00000

 Dipole moment (field-independent basis, Debye):
    X=             -0.0448    Y=              0.0000    Z=             -0.0000  Tot=              0.0448
 Quadrupole moment (field-independent basis, Debye-Ang):
   XX=             -5.5145   YY=             -7.2108   ZZ=             -7.2108
   XY=              0.0000   XZ=              0.0000   YZ=             -0.0000

  Exact polarizability:      13.903       0.000       2.046      -0.000      -0.000       2.046
 Approx polarizability:      16.749       0.000       2.105      -0.000      -0.000       2.105

 ******    1 imaginary frequencies (negative Signs) ******

                      1                      2                      3
                      A                      A                      A
 Frequencies --    -67.9274              1508.7256              1508.7256
 Red. masses --      1.1085                 1.0096                 1.0096
 Frc consts  --      0.0030                 1.3540                 1.3540
 IR Inten    --      0.4128                 0.0855                 0.0855

                      4
                      A
 Frequencies --   2191.4511
 Red. masses --      1.0078
 Frc consts  --      2.8517
 IR Inten    --      5.3109

 - Thermochemistry -
 -------------------
 Temperature   298.150 Kelvin.  Pressure   1.00000 Atm.
 Atom     1 has atomic number  1 and mass   1.00783

 Molecular mass:    21.01405 amu.
 Principal axes and moments of inertia in atomic units:
                           1         2         3
     Eigenvalues --     0.00000  82.48492  82.48492
           X            1.00000  -0.00000   0.00000
           Y            0.00000   1.00000   0.00000
           Z            0.00000   0.00000   1.00000
 This molecule is a prolate symmetric top.
 Rotational symmetry number  1.
 Rotational temperature (Kelvin)      1.05006
 Rotational constant (GHZ):          21.879651
    1 imaginary frequencies ignored.
 Zero-point vibrational energy      31156.2 (Joules/Mol)
                                    7.44650 (Kcal/Mol)
 Vibrational temperatures:   2170.72  2170.72  3153.01
          (Kelvin)

 Zero-point correction=                           0.011867 (Hartree/Particle)
 Thermal correction to Energy=                    0.014237
 Thermal correction to Enthalpy=                  0.015181
 Thermal correction to Gibbs Free Energy=        -0.008424
 Sum of electronic and zero-point Energies=           -100.902729
 Sum of electronic and thermal Energies=              -100.900359
 Sum of electronic and thermal Enthalpies=            -100.899415
 Sum of electronic and thermal Free Energies=         -100.923020

                     E (Thermal)             CV                S
                      KCal/Mol        Cal/Mol-Kelvin    Cal/Mol-Kelvin
 Total                    8.934              5.119             49.681
 Electronic               0.000              0.000              1.377
 Translational            0.889              2.981             35.068
 Rotational               0.592              1.987             13.212
 Vibrational              7.453              0.151              0.023

 Normal termination of Gaussian 16 at Fri Aug 22 19:38:58 2025.
