 Gaussian 16, Revision C.01,
 Gaussian 16:  ES64L-G16RevC.01  3-Jul-2019

 -----------------------------------------
 # sp b3lyp/6-311g** Force nosymm scf=(qc)
 -----------------------------------------

 -------------------
 Title Card Required
 -------------------
 Symbolic Z-matrix:
 Charge =  0 Multiplicity = 2

                          Input orientation:
 ---------------------------------------------------------------------
 Center     Atomic      Atomic             Coordinates (Angstroms)
 Number     Number       Type             X           Y           Z
 ---------------------------------------------------------------------
      1          1           0        0.000000    0.000000    0.000000
      2          1           0       -3.000000    0.000000    0.000000
      3          9           0        1.750000    0.000000    0.000000
 ---------------------------------------------------------------------

 SCF Done:  E(UB3LYP) =  -100.806106329     a.u. after   11 cycles

 Alpha  occ. eigenvalues --  -24.63992  -1.08508  -0.40375  -0.35744  -0.35744
 Alpha  occ. eigenvalues --   -0.34774
 Alpha virt. eigenvalues --   -0.19489   0.20494   0.27282   0.95018   0.95403
 Alpha virt. eigenvalues --    0.95403   1.07902   1.22692   1.22692   1.23250
 Alpha virt. eigenvalues --    1.26791   1.26791   1.68467   2.13357   2.15842

  Beta  occ. eigenvalues --  -24.64029  -1.08609  -0.40357  -0.35780  -0.35780
  Beta virt. eigenvalues --   -0.19682  -0.08067   0.23645   0.36917   0.95174
  Beta virt. eigenvalues --    0.95428   0.95428   1.07950   1.27158   1.27158
  Beta virt. eigenvalues --    1.43988   1.44322   1.44322   1.68812   2.16350

 Mulliken charges and spin densities:
               1          2
     1  H    0.313917   0.021930
     2  H    0.009837   0.989763
     3  F   -0.323754  -0.011692
 Sum of Mulliken charges =  -0.00000   1.00000

 Dipole moment (field-independent basis, Debye):
    X=             -2.9425    Y=             -0.0000    Z=             -0.0000  Tot=              2.9425
 Quadrupole moment (field-independent basis, Debye-Ang):
   XX=            -10.5253   YY=             -7.4435   ZZ=             -7.4435
   XY=             -0.0000   XZ=             -0.0000   YZ=              0.0000

  Exact polarizability:      26.422       0.000       2.086       0.000      -0.000       2.086
 Approx polarizability:      57.508       0.000       1.998       0.000      -0.000       1.998

 ******    2 imaginary frequencies (negative Signs) ******

                      1                      2                      3
                      A                      A                      A
 Frequencies --  -1198.8122              -171.0727               823.4260
 Red. masses --      1.0547                 1.0569                 1.0256
 Frc consts  --      0.8931                 0.0182                 0.4097
 IR Inten    --     82.2102                 3.5342                90.6239

                      4
                      A
 Frequencies --    823.4260
 Red. masses --      1.0256
 Frc consts  --      0.4097
 IR Inten    --     90.6239

 - Thermochemistry -
 -------------------
 Temperature   298.150 Kelvin.  Pressure   1.00000 Atm.
 Atom     1 has atomic number  1 and mass   1.00783

 Molecular mass:    21.01405 amu.
 Principal axes and moments of inertia in atomic units:
                           1         2         3
     Eigenvalues --     0.00000  84.93195  84.93195
           X            1.00000  -0.00000   0.00000
           Y            0.00000   1.00000   0.00000
           Z            0.00000   0.00000   1.00000
 This molecule is a prolate symmetric top.
 Rotational symmetry number  1.
 Rotational temperature (Kelvin)      1.01980
 Rotational constant (GHZ):          21.249261
    2 imaginary frequencies ignored.
 Zero-point vibrational energy       9850.4 (Joules/Mol)
                                    2.35429 (Kcal/Mol)
 Vibrational temperatures:   1184.73  1184.73
          (Kelvin)

 Zero-point correction=                           0.003752 (Hartree/Particle)
 Thermal correction to Energy=                    0.006256
 Thermal correction to Enthalpy=                  0.007200
 Thermal correction to Gibbs Free Energy=        -0.016601
 Sum of electronic and zero-point Energies=           -100.802355
 Sum of electronic and thermal Energies=              -100.799850
 Sum of electronic and thermal Enthalpies=            -100.798906
 Sum of electronic and thermal Free Energies=         -100.822707

                     E (Thermal)             CV                S
                      KCal/Mol        Cal/Mol-Kelvin    Cal/Mol-Kelvin
 Total                    3.926              6.194             50.094
 Electronic               0.000              0.000              1.377
 Translational            0.889              2.981             35.068
 Rotational               0.592              1.987             13.271
 Vibrational              2.445              1.226              0.378

 Normal termination of Gaussian 16 at Fri Aug 22 16:41:22 2025.
