 Gaussian 16, Revision C.01,
 Gaussian 16:  ES64L-G16RevC.01  3-Jul-2019

 -----------------------------------------
 # sp b3lyp/6-311g** Force nosymm scf=(qc)
 -----------------------------------------

 -------------------
 Title Card Required
 -------------------
 Symbolic Z-matrix:
 Charge =  0 Multiplicity = 2

                          Input orientation:
 ---------------------------------------------------------------------
 Center     Atomic      Atomic             Coordinates (Angstroms)
 Number     Number       Type             X           Y           Z
 ---------------------------------------------------------------------
      1          1           0        0.000000    0.000000    0.000000
      2          1           0       -3.600000    0.000000    0.000000
      3          9           0        1.400000    0.000000    0.000000
 ---------------------------------------------------------------------

 SCF Done:  E(UB3LYP) =  -100.877312585     a.u. after    7 cycles

 Alpha  occ. eigenvalues --  -24.64371  -1.10280  -0.44560  -0.36710  -0.36710
 Alpha  occ. eigenvalues --   -0.33857
 Alpha virt. eigenvalues --   -0.11886   0.20751   0.27862   0.93112   0.93112
 Alpha virt. eigenvalues --    1.03162   1.15263   1.23655   1.23655   1.23661
 Alpha virt. eigenvalues --    1.32612   1.32612   1.71491   2.13362   2.21322

  Beta  occ. eigenvalues --  -24.64362  -1.10255  -0.44536  -0.36701  -0.36701
  Beta virt. eigenvalues --   -0.12201  -0.06262   0.23914   0.38357   0.93109
  Beta virt. eigenvalues --    0.93109   1.03187   1.15295   1.32577   1.32577
  Beta virt. eigenvalues --    1.46179   1.46619   1.46619   1.71509   2.20678

 Mulliken charges and spin densities:
               1          2
     1  H    0.356221  -0.001628
     2  H    0.001293   0.998621
     3  F   -0.357514   0.003007
 Sum of Mulliken charges =   0.00000   1.00000

 Dipole moment (field-independent basis, Debye):
    X=             -2.5128    Y=             -0.0000    Z=             -0.0000  Tot=              2.5128
 Quadrupole moment (field-independent basis, Debye-Ang):
   XX=             -9.5569   YY=             -7.2639   ZZ=             -7.2639
   XY=             -0.0000   XZ=             -0.0000   YZ=              0.0000

  Exact polarizability:      13.134       0.000       2.233      -0.000      -0.000       2.233
 Approx polarizability:      22.393      -0.000       2.167      -0.000      -0.000       2.167

 ******    2 imaginary frequencies (negative Signs) ******

                      1                      2                      3
                      A                      A                      A
 Frequencies --  -1015.2544               -63.0533              1093.6416
 Red. masses --      1.0577                 1.0539                 1.0321
 Frc consts  --      0.6423                 0.0025                 0.7273
 IR Inten    --     49.5943                 0.0948               127.0452

                      4
                      A
 Frequencies --   1093.6416
 Red. masses --      1.0321
 Frc consts  --      0.7273
 IR Inten    --    127.0452

 - Thermochemistry -
 -------------------
 Temperature   298.150 Kelvin.  Pressure   1.00000 Atm.
 Atom     1 has atomic number  1 and mass   1.00783

 Molecular mass:    21.01405 amu.
 Principal axes and moments of inertia in atomic units:
                           1         2         3
     Eigenvalues --     0.00000  89.95929  89.95929
           X            1.00000  -0.00000   0.00000
           Y            0.00000   1.00000   0.00000
           Z            0.00000   0.00000   1.00000
 This molecule is a prolate symmetric top.
 Rotational symmetry number  1.
 Rotational temperature (Kelvin)      0.96281
 Rotational constant (GHZ):          20.061754
    2 imaginary frequencies ignored.
 Zero-point vibrational energy      13082.9 (Joules/Mol)
                                    3.12688 (Kcal/Mol)
 Vibrational temperatures:   1573.51  1573.51
          (Kelvin)

 Zero-point correction=                           0.004983 (Hartree/Particle)
 Thermal correction to Energy=                    0.007395
 Thermal correction to Enthalpy=                  0.008339
 Thermal correction to Gibbs Free Energy=        -0.015398
 Sum of electronic and zero-point Energies=           -100.872330
 Sum of electronic and thermal Energies=              -100.869918
 Sum of electronic and thermal Enthalpies=            -100.868974
 Sum of electronic and thermal Free Energies=         -100.892711

                     E (Thermal)             CV                S
                      KCal/Mol        Cal/Mol-Kelvin    Cal/Mol-Kelvin
 Total                    4.640              5.539             49.958
 Electronic               0.000              0.000              1.377
 Translational            0.889              2.981             35.068
 Rotational               0.592              1.987             13.385
 Vibrational              3.159              0.571              0.128

 Normal termination of Gaussian 16 at Fri Aug 22 16:21:16 2025.
