 Gaussian 16, Revision C.01,
 Gaussian 16:  ES64L-G16RevC.01  3-Jul-2019

 -----------------------------------------
 # sp b3lyp/6-311g** Force nosymm scf=(qc)
 -----------------------------------------

 -------------------
 Title Card Required
 -------------------
 Symbolic Z-matrix:
 Charge =  0 Multiplicity = 2

                          Input orientation:
 ---------------------------------------------------------------------
 Center     Atomic      Atomic             Coordinates (Angstroms)
 Number     Number       Type             X           Y           Z
 ---------------------------------------------------------------------
      1          1           0        0.000000    0.000000    0.000000
      2          1           0       -1.700000    0.000000    0.000000
      3          9           0        3.800000    0.000000    0.000000
 ---------------------------------------------------------------------

 SCF Done:  E(UB3LYP) =  -100.794792626     a.u. after  268 cycles

 Alpha  occ. eigenvalues --  -24.76218  -1.22117  -0.55321  -0.46495  -0.46477
 Alpha  occ. eigenvalues --   -0.33065
 Alpha virt. eigenvalues --   -0.10549   0.25741   0.30987   0.86047   0.90925
 Alpha virt. eigenvalues --    0.91448   1.00952   1.07649   1.23851   1.23852
 Alpha virt. eigenvalues --    1.38291   1.38294   1.67682   2.16922   2.41491

  Beta  occ. eigenvalues --  -24.73064  -1.13045  -0.43336  -0.43314  -0.33055
  Beta virt. eigenvalues --   -0.25971  -0.10583   0.25723   0.31026   0.92426
  Beta virt. eigenvalues --    0.92911   0.95515   1.05082   1.07643   1.23847
  Beta virt. eigenvalues --    1.23850   1.38280   1.38281   1.67699   2.17068

 Mulliken charges and spin densities:
               1          2
     1  H    0.000779  -0.612097
     2  H   -0.001866   0.612088
     3  F    0.001087   1.000009
 Sum of Mulliken charges =   0.00000   1.00000

 Dipole moment (field-independent basis, Debye):
    X=              0.0273    Y=             -0.0000    Z=              0.0000  Tot=              0.0273
 Quadrupole moment (field-independent basis, Debye-Ang):
   XX=             -6.5985   YY=             -7.7682   ZZ=             -6.9042
   XY=              0.0000   XZ=              0.0001   YZ=              0.0155

  Exact polarizability:      23.805       0.000       2.019       0.000       0.008       2.482
 Approx polarizability:      37.778       0.000       1.980       0.000       0.010       2.562

 ******    2 imaginary frequencies (negative Signs) ******

                      1                      2                      3
                      A                      A                      A
 Frequencies --  -1906.4055               -43.9816               908.2935
 Red. masses --      1.0078                 1.1085                 1.0111
 Frc consts  --      2.1581                 0.0013                 0.4915
 IR Inten    --      0.0141                 0.0577                 0.0016

                      4
                      A
 Frequencies --    909.0310
 Red. masses --      1.0111
 Frc consts  --      0.4923
 IR Inten    --      0.0009

 - Thermochemistry -
 -------------------
 Temperature   298.150 Kelvin.  Pressure   1.00000 Atm.
 Atom     1 has atomic number  1 and mass   1.00783

 Molecular mass:    21.01405 amu.
 Principal axes and moments of inertia in atomic units:
                           1         2         3
     Eigenvalues --     0.00000 145.91092 145.91092
           X            1.00000  -0.00000   0.00000
           Y            0.00000   1.00000   0.00000
           Z            0.00000   0.00000   1.00000
 This molecule is a prolate symmetric top.
 Rotational symmetry number  1.
 Rotational temperature (Kelvin)      0.59361
 Rotational constant (GHZ):          12.368788
    2 imaginary frequencies ignored.
 Zero-point vibrational energy      10870.0 (Joules/Mol)
                                    2.59800 (Kcal/Mol)
 Vibrational temperatures:   1306.83  1307.89
          (Kelvin)

 Zero-point correction=                           0.004140 (Hartree/Particle)
 Thermal correction to Energy=                    0.006605
 Thermal correction to Enthalpy=                  0.007549
 Thermal correction to Gibbs Free Energy=        -0.016711
 Sum of electronic and zero-point Energies=           -100.790652
 Sum of electronic and thermal Energies=              -100.788187
 Sum of electronic and thermal Enthalpies=            -100.787243
 Sum of electronic and thermal Free Energies=         -100.811504

                     E (Thermal)             CV                S
                      KCal/Mol        Cal/Mol-Kelvin    Cal/Mol-Kelvin
 Total                    4.145              5.945             51.061
 Electronic               0.000              0.000              1.377
 Translational            0.889              2.981             35.068
 Rotational               0.592              1.987             14.346
 Vibrational              2.664              0.977              0.270

 Normal termination of Gaussian 16 at Sat Aug 23 00:43:46 2025.
