 Gaussian 16, Revision C.01,
 Gaussian 16:  ES64L-G16RevC.01  3-Jul-2019

 -----------------------------------------
 # sp b3lyp/6-311g** Force nosymm scf=(qc)
 -----------------------------------------

 -------------------
 Title Card Required
 -------------------
 Symbolic Z-matrix:
 Charge =  0 Multiplicity = 2

                          Input orientation:
 ---------------------------------------------------------------------
 Center     Atomic      Atomic             Coordinates (Angstroms)
 Number     Number       Type             X           Y           Z
 ---------------------------------------------------------------------
      1          1           0        0.000000    0.000000    0.000000
      2          1           0       -3.700000    0.000000    0.000000
      3          9           0        4.000000    0.000000    0.000000
 ---------------------------------------------------------------------

 SCF Done:  E(UB3LYP) =  -100.758493814     a.u. after   35 cycles

 Alpha  occ. eigenvalues --  -24.75878  -1.21806  -0.55003  -0.46182  -0.46182
 Alpha  occ. eigenvalues --   -0.32241
 Alpha virt. eigenvalues --   -0.06338   0.24257   0.37872   0.86561   0.91171
 Alpha virt. eigenvalues --    0.91171   1.01083   1.25257   1.25257   1.25329
 Alpha virt. eigenvalues --    1.45973   1.46175   1.46175   2.14850   2.41755

  Beta  occ. eigenvalues --  -24.72733  -1.12761  -0.43028  -0.43028  -0.32436
  Beta virt. eigenvalues --   -0.25730  -0.06141   0.24104   0.38151   0.92670
  Beta virt. eigenvalues --    0.92670   0.95939   1.05209   1.25048   1.25048
  Beta virt. eigenvalues --    1.25107   1.46291   1.46470   1.46470   2.14821

 Mulliken charges and spin densities:
               1          2
     1  H    0.002390  -0.995984
     2  H    0.000039   0.998685
     3  F   -0.002429   0.997299
 Sum of Mulliken charges =  -0.00000   1.00000

 Dipole moment (field-independent basis, Debye):
    X=             -0.0511    Y=             -0.0000    Z=             -0.0000  Tot=              0.0511
 Quadrupole moment (field-independent basis, Debye-Ang):
   XX=             -6.9133   YY=             -7.6213   ZZ=             -7.6213
   XY=              0.0000   XZ=              0.0000   YZ=              0.0000

  Exact polarizability:      10.429      -0.000       2.034      -0.000       0.000       2.034
 Approx polarizability:       7.811       0.000       1.937       0.000      -0.000       1.937

 ******    2 imaginary frequencies (negative Signs) ******

                      1                      2                      3
                      A                      A                      A
 Frequencies --   -162.2180               -65.8193                53.0588
 Red. masses --      1.0143                 1.1008                 1.0170
 Frc consts  --      0.0157                 0.0028                 0.0017
 IR Inten    --      0.8465                 0.3100                 0.0055

                      4
                      A
 Frequencies --     53.0588
 Red. masses --      1.0170
 Frc consts  --      0.0017
 IR Inten    --      0.0055

 - Thermochemistry -
 -------------------
 Temperature   298.150 Kelvin.  Pressure   1.00000 Atm.
 Atom     1 has atomic number  1 and mass   1.00783

 Molecular mass:    21.01405 amu.
 Principal axes and moments of inertia in atomic units:
                           1         2         3
     Eigenvalues --     0.00000 247.34119 247.34119
           X            1.00000  -0.00000   0.00000
           Y            0.00000   1.00000   0.00000
           Z            0.00000   0.00000   1.00000
 This molecule is a prolate symmetric top.
 Rotational symmetry number  1.
 Rotational temperature (Kelvin)      0.35018
 Rotational constant (GHZ):           7.296565
    2 imaginary frequencies ignored.
 Zero-point vibrational energy        634.7 (Joules/Mol)
                                    0.15170 (Kcal/Mol)
 Warning -- explicit consideration of   2 degrees of freedom as
           vibrations may cause significant error
 Vibrational temperatures:     76.34    76.34
          (Kelvin)

 Zero-point correction=                           0.000242 (Hartree/Particle)
 Thermal correction to Energy=                    0.004259
 Thermal correction to Enthalpy=                  0.005203
 Thermal correction to Gibbs Free Energy=        -0.023894
 Sum of electronic and zero-point Energies=           -100.758252
 Sum of electronic and thermal Energies=              -100.754235
 Sum of electronic and thermal Enthalpies=            -100.753290
 Sum of electronic and thermal Free Energies=         -100.782388

                     E (Thermal)             CV                S
                      KCal/Mol        Cal/Mol-Kelvin    Cal/Mol-Kelvin
 Total                    2.673              8.921             61.240
 Electronic               0.000              0.000              1.377
 Translational            0.889              2.981             35.068
 Rotational               0.592              1.987             15.395
 Vibrational              1.191              3.953              9.400
 Vibration     1          0.596              1.976              4.700
 Vibration     2          0.596              1.976              4.700

 Normal termination of Gaussian 16 at Sat Aug 23 01:58:42 2025.
