 Gaussian 16, Revision C.01,
 Gaussian 16:  ES64L-G16RevC.01  3-Jul-2019

 -----------------------------------------
 # sp b3lyp/6-311g** Force nosymm scf=(qc)
 -----------------------------------------

 -------------------
 Title Card Required
 -------------------
 Symbolic Z-matrix:
 Charge =  0 Multiplicity = 2

                          Input orientation:
 ---------------------------------------------------------------------
 Center     Atomic      Atomic             Coordinates (Angstroms)
 Number     Number       Type             X           Y           Z
 ---------------------------------------------------------------------
      1          1           0        0.000000    0.000000    0.000000
      2          1           0       -1.600000    0.000000    0.000000
      3          9           0        1.800000    0.000000    0.000000
 ---------------------------------------------------------------------

 SCF Done:  E(UB3LYP) =  -100.837114660     a.u. after   16 cycles

 Alpha  occ. eigenvalues --  -24.67351  -1.13773  -0.47131  -0.39067  -0.39067
 Alpha  occ. eigenvalues --   -0.38355
 Alpha virt. eigenvalues --   -0.10855   0.22130   0.30038   0.87127   0.94286
 Alpha virt. eigenvalues --    0.94286   1.03249   1.17528   1.17528   1.34560
 Alpha virt. eigenvalues --    1.36919   1.36919   1.80329   2.17493   2.39654

  Beta  occ. eigenvalues --  -24.65168  -1.07725  -0.38656  -0.36928  -0.36928
  Beta virt. eigenvalues --   -0.22378  -0.08693   0.24826   0.30081   0.90521
  Beta virt. eigenvalues --    0.94753   0.94753   1.07327   1.21400   1.21400
  Beta virt. eigenvalues --    1.37568   1.37568   1.40143   1.82299   2.18282

 Mulliken charges and spin densities:
               1          2
     1  H    0.152908  -0.392374
     2  H    0.068313   0.708855
     3  F   -0.221221   0.683518
 Sum of Mulliken charges =   0.00000   1.00000

 Dipole moment (field-independent basis, Debye):
    X=             -2.4798    Y=              0.0000    Z=             -0.0000  Tot=              2.4798
 Quadrupole moment (field-independent basis, Debye-Ang):
   XX=             -8.1563   YY=             -7.4492   ZZ=             -7.4492
   XY=              0.0000   XZ=             -0.0000   YZ=              0.0000

  Exact polarizability:      47.514       0.000       2.155      -0.000      -0.000       2.155
 Approx polarizability:      69.391      -0.000       2.086       0.000      -0.000       2.086

 ******    2 imaginary frequencies (negative Signs) ******

                      1                      2                      3
                      A                      A                      A
 Frequencies --  -2255.9879              -580.3889               969.2698
 Red. masses --      1.0170                 1.0976                 1.0166
 Frc consts  --      3.0496                 0.2178                 0.5627
 IR Inten    --    505.3032                 6.5304                 9.7379

                      4
                      A
 Frequencies --    969.2698
 Red. masses --      1.0166
 Frc consts  --      0.5627
 IR Inten    --      9.7379

 - Thermochemistry -
 -------------------
 Temperature   298.150 Kelvin.  Pressure   1.00000 Atm.
 Atom     1 has atomic number  1 and mass   1.00783

 Molecular mass:    21.01405 amu.
 Principal axes and moments of inertia in atomic units:
                           1         2         3
     Eigenvalues --     0.00000  48.59804  48.59804
           X            1.00000  -0.00000   0.00000
           Y            0.00000   1.00000   0.00000
           Z            0.00000   0.00000   1.00000
 This molecule is a prolate symmetric top.
 Rotational symmetry number  1.
 Rotational temperature (Kelvin)      1.78225
 Rotational constant (GHZ):          37.136094
    2 imaginary frequencies ignored.
 Zero-point vibrational energy      11595.0 (Joules/Mol)
                                    2.77128 (Kcal/Mol)
 Vibrational temperatures:   1394.56  1394.56
          (Kelvin)

 Zero-point correction=                           0.004416 (Hartree/Particle)
 Thermal correction to Energy=                    0.006860
 Thermal correction to Enthalpy=                  0.007804
 Thermal correction to Gibbs Free Energy=        -0.015391
 Sum of electronic and zero-point Energies=           -100.832698
 Sum of electronic and thermal Energies=              -100.830255
 Sum of electronic and thermal Enthalpies=            -100.829311
 Sum of electronic and thermal Free Energies=         -100.852506

                     E (Thermal)             CV                S
                      KCal/Mol        Cal/Mol-Kelvin    Cal/Mol-Kelvin
 Total                    4.305              5.792             48.818
 Electronic               0.000              0.000              1.377
 Translational            0.889              2.981             35.068
 Rotational               0.592              1.987             12.161
 Vibrational              2.823              0.824              0.212

 Normal termination of Gaussian 16 at Fri Aug 22 16:43:09 2025.
