 Gaussian 16, Revision C.01,
 Gaussian 16:  ES64L-G16RevC.01  3-Jul-2019

 -----------------------------------------
 # sp b3lyp/6-311g** Force nosymm scf=(qc)
 -----------------------------------------

 -------------------
 Title Card Required
 -------------------
 Symbolic Z-matrix:
 Charge =  0 Multiplicity = 2

                          Input orientation:
 ---------------------------------------------------------------------
 Center     Atomic      Atomic             Coordinates (Angstroms)
 Number     Number       Type             X           Y           Z
 ---------------------------------------------------------------------
      1          1           0        0.000000    0.000000    0.000000
      2          1           0       -3.500000    0.000000    0.000000
      3          9           0        1.600000    0.000000    0.000000
 ---------------------------------------------------------------------

 SCF Done:  E(UB3LYP) =  -100.833889754     a.u. after   10 cycles

 Alpha  occ. eigenvalues --  -24.64052  -1.08353  -0.41466  -0.35999  -0.35999
 Alpha  occ. eigenvalues --   -0.33959
 Alpha virt. eigenvalues --   -0.17046   0.19646   0.27204   0.93887   0.93887
 Alpha virt. eigenvalues --    1.01139   1.07222   1.23543   1.23543   1.23581
 Alpha virt. eigenvalues --    1.27732   1.27732   1.72098   2.12584   2.15346

  Beta  occ. eigenvalues --  -24.64810  -1.10386  -0.43195  -0.36727  -0.36727
  Beta virt. eigenvalues --   -0.15695  -0.06444   0.24175   0.38503   0.94183
  Beta virt. eigenvalues --    0.94183   1.00497   1.07022   1.31853   1.31853
  Beta virt. eigenvalues --    1.45787   1.46278   1.46278   1.74126   2.20181

 Mulliken charges and spin densities:
               1          2
     1  H    0.330339   0.241431
     2  H    0.002009   0.997988
     3  F   -0.332347  -0.239419
 Sum of Mulliken charges =  -0.00000   1.00000

 Dipole moment (field-independent basis, Debye):
    X=             -2.6338    Y=              0.0000    Z=              0.0000  Tot=              2.6338
 Quadrupole moment (field-independent basis, Debye-Ang):
   XX=            -10.1659   YY=             -7.3680   ZZ=             -7.3680
   XY=              0.0000   XZ=              0.0000   YZ=              0.0000

  Exact polarizability:      19.882      -0.000       2.147      -0.000       0.000       2.147
 Approx polarizability:      34.867      -0.000       2.061       0.000       0.000       2.061

 ******    2 imaginary frequencies (negative Signs) ******

                      1                      2                      3
                      A                      A                      A
 Frequencies --  -1923.7614               -64.9435               913.1638
 Red. masses --      1.0587                 1.0528                 1.0295
 Frc consts  --      2.3085                 0.0026                 0.5058
 IR Inten    --     68.9657                 0.4722               103.3343

                      4
                      A
 Frequencies --    913.1638
 Red. masses --      1.0295
 Frc consts  --      0.5058
 IR Inten    --    103.3343

 - Thermochemistry -
 -------------------
 Temperature   298.150 Kelvin.  Pressure   1.00000 Atm.
 Atom     1 has atomic number  1 and mass   1.00783

 Molecular mass:    21.01405 amu.
 Principal axes and moments of inertia in atomic units:
                           1         2         3
     Eigenvalues --     0.00000  95.07535  95.07535
           X            1.00000  -0.00000   0.00000
           Y            0.00000   1.00000   0.00000
           Z            0.00000   0.00000   1.00000
 This molecule is a prolate symmetric top.
 Rotational symmetry number  1.
 Rotational temperature (Kelvin)      0.91100
 Rotational constant (GHZ):          18.982220
    2 imaginary frequencies ignored.
 Zero-point vibrational energy      10923.9 (Joules/Mol)
                                    2.61087 (Kcal/Mol)
 Vibrational temperatures:   1313.84  1313.84
          (Kelvin)

 Zero-point correction=                           0.004161 (Hartree/Particle)
 Thermal correction to Energy=                    0.006624
 Thermal correction to Enthalpy=                  0.007568
 Thermal correction to Gibbs Free Energy=        -0.016286
 Sum of electronic and zero-point Energies=           -100.829729
 Sum of electronic and thermal Energies=              -100.827266
 Sum of electronic and thermal Enthalpies=            -100.826322
 Sum of electronic and thermal Free Energies=         -100.850176

                     E (Thermal)             CV                S
                      KCal/Mol        Cal/Mol-Kelvin    Cal/Mol-Kelvin
 Total                    4.157              5.933             50.205
 Electronic               0.000              0.000              1.377
 Translational            0.889              2.981             35.068
 Rotational               0.592              1.987             13.495
 Vibrational              2.675              0.965              0.265

 Normal termination of Gaussian 16 at Fri Aug 22 16:32:32 2025.
