 Gaussian 16, Revision C.01,
 Gaussian 16:  ES64L-G16RevC.01  3-Jul-2019

 -----------------------------------------
 # sp b3lyp/6-311g** Force nosymm scf=(qc)
 -----------------------------------------

 -------------------
 Title Card Required
 -------------------
 Symbolic Z-matrix:
 Charge =  0 Multiplicity = 2

                          Input orientation:
 ---------------------------------------------------------------------
 Center     Atomic      Atomic             Coordinates (Angstroms)
 Number     Number       Type             X           Y           Z
 ---------------------------------------------------------------------
      1          1           0        0.000000    0.000000    0.000000
      2          1           0       -1.200000    0.000000    0.000000
      3          9           0        2.150000    0.000000    0.000000
 ---------------------------------------------------------------------

 SCF Done:  E(UB3LYP) =  -100.875852786     a.u. after   13 cycles

 Alpha  occ. eigenvalues --  -24.73306  -1.19469  -0.52777  -0.44080  -0.44080
 Alpha  occ. eigenvalues --   -0.38693
 Alpha virt. eigenvalues --   -0.04689   0.22076   0.34498   0.88255   0.92108
 Alpha virt. eigenvalues --    0.92108   1.07103   1.10625   1.10625   1.32607
 Alpha virt. eigenvalues --    1.52157   1.52157   2.06238   2.29222   2.53867

  Beta  occ. eigenvalues --  -24.70399  -1.11198  -0.41184  -0.41184  -0.38330
  Beta virt. eigenvalues --   -0.25187  -0.03463   0.22810   0.34960   0.93446
  Beta virt. eigenvalues --    0.93446   0.95348   1.10047   1.11516   1.11516
  Beta virt. eigenvalues --    1.35411   1.52824   1.52824   2.07332   2.30232

 Mulliken charges and spin densities:
               1          2
     1  H    0.023030  -0.092131
     2  H    0.043381   0.177533
     3  F   -0.066411   0.914598
 Sum of Mulliken charges =  -0.00000   1.00000

 Dipole moment (field-independent basis, Debye):
    X=             -0.9519    Y=              0.0000    Z=             -0.0000  Tot=              0.9519
 Quadrupole moment (field-independent basis, Debye-Ang):
   XX=             -6.6426   YY=             -7.4142   ZZ=             -7.4142
   XY=             -0.0000   XZ=             -0.0000   YZ=             -0.0000

  Exact polarizability:      41.120      -0.000       2.145      -0.000      -0.000       2.145
 Approx polarizability:      56.722       0.000       2.145       0.000       0.000       2.145

 ******    2 imaginary frequencies (negative Signs) ******

                      1                      2                      3
                      A                      A                      A
 Frequencies --  -1187.9224              -130.3352              1400.1480
 Red. masses --      1.0175                 1.0970                 1.0124
 Frc consts  --      0.8460                 0.0110                 1.1694
 IR Inten    --    772.9111                 0.4472                 0.0000

                      4
                      A
 Frequencies --   1400.1480
 Red. masses --      1.0124
 Frc consts  --      1.1694
 IR Inten    --      0.0000

 - Thermochemistry -
 -------------------
 Temperature   298.150 Kelvin.  Pressure   1.00000 Atm.
 Atom     1 has atomic number  1 and mass   1.00783

 Molecular mass:    21.01405 amu.
 Principal axes and moments of inertia in atomic units:
                           1         2         3
     Eigenvalues --     0.00000  51.80493  51.80493
           X            1.00000  -0.00000   0.00000
           Y            0.00000   1.00000   0.00000
           Z            0.00000   0.00000   1.00000
 This molecule is a prolate symmetric top.
 Rotational symmetry number  1.
 Rotational temperature (Kelvin)      1.67192
 Rotational constant (GHZ):          34.837247
    2 imaginary frequencies ignored.
 Zero-point vibrational energy      16749.5 (Joules/Mol)
                                    4.00322 (Kcal/Mol)
 Vibrational temperatures:   2014.50  2014.50
          (Kelvin)

 Zero-point correction=                           0.006380 (Hartree/Particle)
 Thermal correction to Energy=                    0.008755
 Thermal correction to Enthalpy=                  0.009699
 Thermal correction to Gibbs Free Energy=        -0.013473
 Sum of electronic and zero-point Energies=           -100.869473
 Sum of electronic and thermal Energies=              -100.867098
 Sum of electronic and thermal Enthalpies=            -100.866154
 Sum of electronic and thermal Free Energies=         -100.889326

                     E (Thermal)             CV                S
                      KCal/Mol        Cal/Mol-Kelvin    Cal/Mol-Kelvin
 Total                    5.494              5.180             48.769
 Electronic               0.000              0.000              1.377
 Translational            0.889              2.981             35.068
 Rotational               0.592              1.987             12.288
 Vibrational              4.013              0.212              0.036

 Normal termination of Gaussian 16 at Fri Aug 22 17:06:55 2025.
