 Gaussian 16, Revision C.01,
 Gaussian 16:  ES64L-G16RevC.01  3-Jul-2019

 -----------------------------------------
 # sp b3lyp/6-311g** Force nosymm scf=(qc)
 -----------------------------------------

 -------------------
 Title Card Required
 -------------------
 Symbolic Z-matrix:
 Charge =  0 Multiplicity = 2

                          Input orientation:
 ---------------------------------------------------------------------
 Center     Atomic      Atomic             Coordinates (Angstroms)
 Number     Number       Type             X           Y           Z
 ---------------------------------------------------------------------
      1          1           0        0.000000    0.000000    0.000000
      2          1           0       -0.850000    0.000000    0.000000
      3          9           0        2.300000    0.000000    0.000000
 ---------------------------------------------------------------------

 SCF Done:  E(UB3LYP) =  -100.928363459     a.u. after    7 cycles

 Alpha  occ. eigenvalues --  -24.75553  -1.21516  -0.54902  -0.45928  -0.45928
 Alpha  occ. eigenvalues --   -0.42329
 Alpha virt. eigenvalues --    0.04120   0.20614   0.43604   0.89613   0.91074
 Alpha virt. eigenvalues --    0.91074   1.07173   1.07173   1.12567   1.50271
 Alpha virt. eigenvalues --    1.74496   1.74496   2.11557   2.38237   2.86641

  Beta  occ. eigenvalues --  -24.72467  -1.12673  -0.42841  -0.42841  -0.42286
  Beta virt. eigenvalues --   -0.26015   0.04745   0.21000   0.43907   0.92519
  Beta virt. eigenvalues --    0.92519   0.97901   1.07491   1.07491   1.16545
  Beta virt. eigenvalues --    1.50966   1.74695   1.74695   2.11882   2.38569

 Mulliken charges and spin densities:
               1          2
     1  H   -0.008919  -0.017479
     2  H    0.024002   0.043738
     3  F   -0.015083   0.973741
 Sum of Mulliken charges =   0.00000   1.00000

 Dipole moment (field-independent basis, Debye):
    X=             -0.2696    Y=             -0.0000    Z=             -0.0000  Tot=              0.2696
 Quadrupole moment (field-independent basis, Debye-Ang):
   XX=             -5.8224   YY=             -7.0679   ZZ=             -7.0679
   XY=             -0.0000   XZ=             -0.0000   YZ=              0.0000

  Exact polarizability:      18.413      -0.000       2.039      -0.000      -0.000       2.039
 Approx polarizability:      20.375       0.000       2.121      -0.000      -0.000       2.121

 ******    1 imaginary frequencies (negative Signs) ******

                      1                      2                      3
                      A                      A                      A
 Frequencies --   -192.2653              1336.7409              1336.7409
 Red. masses --      1.1085                 1.0102                 1.0102
 Frc consts  --      0.0241                 1.0636                 1.0636
 IR Inten    --     13.2872                 0.7802                 0.7802

                      4
                      A
 Frequencies --   3082.1598
 Red. masses --      1.0078
 Frc consts  --      5.6410
 IR Inten    --    125.3069

 - Thermochemistry -
 -------------------
 Temperature   298.150 Kelvin.  Pressure   1.00000 Atm.
 Atom     1 has atomic number  1 and mass   1.00783

 Molecular mass:    21.01405 amu.
 Principal axes and moments of inertia in atomic units:
                           1         2         3
     Eigenvalues --     0.00000  49.62306  49.62306
           X            1.00000  -0.00000   0.00000
           Y            0.00000   1.00000   0.00000
           Z            0.00000   0.00000   1.00000
 This molecule is a prolate symmetric top.
 Rotational symmetry number  1.
 Rotational temperature (Kelvin)      1.74544
 Rotational constant (GHZ):          36.369002
    1 imaginary frequencies ignored.
 Zero-point vibrational energy      34426.4 (Joules/Mol)
                                    8.22810 (Kcal/Mol)
 Vibrational temperatures:   1923.27  1923.27  4434.54
          (Kelvin)

 Zero-point correction=                           0.013112 (Hartree/Particle)
 Thermal correction to Energy=                    0.015492
 Thermal correction to Enthalpy=                  0.016436
 Thermal correction to Gibbs Free Energy=        -0.006700
 Sum of electronic and zero-point Energies=           -100.915251
 Sum of electronic and thermal Energies=              -100.912871
 Sum of electronic and thermal Enthalpies=            -100.911927
 Sum of electronic and thermal Free Energies=         -100.935064

                     E (Thermal)             CV                S
                      KCal/Mol        Cal/Mol-Kelvin    Cal/Mol-Kelvin
 Total                    9.721              5.230             48.695
 Electronic               0.000              0.000              1.377
 Translational            0.889              2.981             35.068
 Rotational               0.592              1.987             12.203
 Vibrational              8.240              0.262              0.047

 Normal termination of Gaussian 16 at Fri Aug 22 17:20:45 2025.
