 Gaussian 16, Revision C.01,
 Gaussian 16:  ES64L-G16RevC.01  3-Jul-2019

 -----------------------------------------
 # sp b3lyp/6-311g** Force nosymm scf=(qc)
 -----------------------------------------

 -------------------
 Title Card Required
 -------------------
 Symbolic Z-matrix:
 Charge =  0 Multiplicity = 2

                          Input orientation:
 ---------------------------------------------------------------------
 Center     Atomic      Atomic             Coordinates (Angstroms)
 Number     Number       Type             X           Y           Z
 ---------------------------------------------------------------------
      1          1           0        0.000000    0.000000    0.000000
      2          1           0       -2.200000    0.000000    0.000000
      3          9           0        2.500000    0.000000    0.000000
 ---------------------------------------------------------------------

 SCF Done:  E(UB3LYP) =  -100.775853230     a.u. after   18 cycles

 Alpha  occ. eigenvalues --  -24.71778  -1.17980  -0.50878  -0.42728  -0.42728
 Alpha  occ. eigenvalues --   -0.34379
 Alpha virt. eigenvalues --   -0.12556   0.24938   0.32522   0.90118   0.93620
 Alpha virt. eigenvalues --    0.93620   1.06417   1.23451   1.23451   1.25479
 Alpha virt. eigenvalues --    1.36158   1.36158   1.44109   2.12492   2.33169

  Beta  occ. eigenvalues --  -24.68933  -1.09881  -0.39892  -0.39892  -0.35224
  Beta virt. eigenvalues --   -0.23457  -0.10880   0.26358   0.33213   0.94987
  Beta virt. eigenvalues --    0.94987   0.97128   1.09421   1.22642   1.22642
  Beta virt. eigenvalues --    1.28418   1.38907   1.38907   1.44636   2.12893

 Mulliken charges and spin densities:
               1          2
     1  H    0.066634  -0.828101
     2  H    0.020870   0.929057
     3  F   -0.087504   0.899044
 Sum of Mulliken charges =  -0.00000   1.00000

 Dipole moment (field-independent basis, Debye):
    X=             -1.3331    Y=              0.0000    Z=             -0.0000  Tot=              1.3331
 Quadrupole moment (field-independent basis, Debye-Ang):
   XX=             -8.4737   YY=             -7.6387   ZZ=             -7.6387
   XY=             -0.0000   XZ=              0.0000   YZ=              0.0000

  Exact polarizability:      53.043      -0.000       2.010       0.000       0.000       2.010
 Approx polarizability:      54.950      -0.000       1.921       0.000      -0.000       1.921

 ******    2 imaginary frequencies (negative Signs) ******

                      1                      2                      3
                      A                      A                      A
 Frequencies --  -1098.3182              -384.3742               435.0087
 Red. masses --      1.0113                 1.1043                 1.0165
 Frc consts  --      0.7188                 0.0961                 0.1133
 IR Inten    --     48.3883                43.7072                 3.0236

                      4
                      A
 Frequencies --    435.0087
 Red. masses --      1.0165
 Frc consts  --      0.1133
 IR Inten    --      3.0236

 - Thermochemistry -
 -------------------
 Temperature   298.150 Kelvin.  Pressure   1.00000 Atm.
 Atom     1 has atomic number  1 and mass   1.00783

 Molecular mass:    21.01405 amu.
 Principal axes and moments of inertia in atomic units:
                           1         2         3
     Eigenvalues --     0.00000  93.04796  93.04796
           X            1.00000  -0.00000   0.00000
           Y            0.00000   1.00000   0.00000
           Z            0.00000   0.00000   1.00000
 This molecule is a prolate symmetric top.
 Rotational symmetry number  1.
 Rotational temperature (Kelvin)      0.93085
 Rotational constant (GHZ):          19.395817
    2 imaginary frequencies ignored.
 Zero-point vibrational energy       5203.9 (Joules/Mol)
                                    1.24375 (Kcal/Mol)
 Warning -- explicit consideration of   2 degrees of freedom as
           vibrations may cause significant error
 Vibrational temperatures:    625.88   625.88
          (Kelvin)

 Zero-point correction=                           0.001982 (Hartree/Particle)
 Thermal correction to Energy=                    0.004896
 Thermal correction to Enthalpy=                  0.005840
 Thermal correction to Gibbs Free Energy=        -0.018668
 Sum of electronic and zero-point Energies=           -100.773871
 Sum of electronic and thermal Energies=              -100.770957
 Sum of electronic and thermal Enthalpies=            -100.770013
 Sum of electronic and thermal Free Energies=         -100.794521

                     E (Thermal)             CV                S
                      KCal/Mol        Cal/Mol-Kelvin    Cal/Mol-Kelvin
 Total                    3.072              7.756             51.582
 Electronic               0.000              0.000              1.377
 Translational            0.889              2.981             35.068
 Rotational               0.592              1.987             13.452
 Vibrational              1.591              2.788              1.685
 Vibration     1          0.796              1.394              0.842
 Vibration     2          0.796              1.394              0.842

 Normal termination of Gaussian 16 at Fri Aug 22 17:44:59 2025.
