 Gaussian 16, Revision C.01,
 Gaussian 16:  ES64L-G16RevC.01  3-Jul-2019

 -----------------------------------------
 # sp b3lyp/6-311g** Force nosymm scf=(qc)
 -----------------------------------------

 -------------------
 Title Card Required
 -------------------
 Symbolic Z-matrix:
 Charge =  0 Multiplicity = 2

                          Input orientation:
 ---------------------------------------------------------------------
 Center     Atomic      Atomic             Coordinates (Angstroms)
 Number     Number       Type             X           Y           Z
 ---------------------------------------------------------------------
      1          1           0        0.000000    0.000000    0.000000
      2          1           0       -3.600000    0.000000    0.000000
      3          9           0        1.100000    0.000000    0.000000
 ---------------------------------------------------------------------

 SCF Done:  E(UB3LYP) =  -100.948425904     a.u. after    6 cycles

 Alpha  occ. eigenvalues --  -24.64296  -1.13867  -0.49612  -0.38102  -0.38102
 Alpha  occ. eigenvalues --   -0.33693
 Alpha virt. eigenvalues --   -0.02486   0.23041   0.31301   0.93569   0.93569
 Alpha virt. eigenvalues --    0.99601   1.23754   1.23820   1.23820   1.28601
 Alpha virt. eigenvalues --    1.35214   1.35214   1.79528   2.13917   2.31775

  Beta  occ. eigenvalues --  -24.64294  -1.13862  -0.49606  -0.38100  -0.38100
  Beta virt. eigenvalues --   -0.06281  -0.01738   0.29472   0.39188   0.93569
  Beta virt. eigenvalues --    0.93569   0.99606   1.28548   1.35210   1.35210
  Beta virt. eigenvalues --    1.49283   1.49283   1.49395   1.79552   2.31393

 Mulliken charges and spin densities:
               1          2
     1  H    0.340328   0.000306
     2  H    0.000896   0.998991
     3  F   -0.341224   0.000702
 Sum of Mulliken charges =   0.00000   1.00000

 Dipole moment (field-independent basis, Debye):
    X=             -2.1685    Y=              0.0000    Z=              0.0000  Tot=              2.1685
 Quadrupole moment (field-independent basis, Debye-Ang):
   XX=             -8.5549   YY=             -7.0486   ZZ=             -7.0486
   XY=              0.0000   XZ=              0.0000   YZ=              0.0000

  Exact polarizability:       7.921       0.000       2.363       0.000      -0.000       2.363
 Approx polarizability:      10.410      -0.000       2.327      -0.000       0.000       2.327

 ******    1 imaginary frequencies (negative Signs) ******

                      1                      2                      3
                      A                      A                      A
 Frequencies --    -48.5362              1185.9459              1185.9459
 Red. masses --      1.0532                 1.0359                 1.0359
 Frc consts  --      0.0015                 0.8584                 0.8584
 IR Inten    --      0.0537               157.7538               157.7538

                      4
                      A
 Frequencies --   1940.3643
 Red. masses --      1.0584
 Frc consts  --      2.3478
 IR Inten    --     77.2926

 - Thermochemistry -
 -------------------
 Temperature   298.150 Kelvin.  Pressure   1.00000 Atm.
 Atom     1 has atomic number  1 and mass   1.00783

 Molecular mass:    21.01405 amu.
 Principal axes and moments of inertia in atomic units:
                           1         2         3
     Eigenvalues --     0.00000  78.05040  78.05040
           X            1.00000  -0.00000   0.00000
           Y            0.00000   1.00000   0.00000
           Z            0.00000   0.00000   1.00000
 This molecule is a prolate symmetric top.
 Rotational symmetry number  1.
 Rotational temperature (Kelvin)      1.10972
 Rotational constant (GHZ):          23.122766
    1 imaginary frequencies ignored.
 Zero-point vibrational energy      25793.0 (Joules/Mol)
                                    6.16468 (Kcal/Mol)
 Vibrational temperatures:   1706.31  1706.31  2791.75
          (Kelvin)

 Zero-point correction=                           0.009824 (Hartree/Particle)
 Thermal correction to Energy=                    0.012221
 Thermal correction to Enthalpy=                  0.013165
 Thermal correction to Gibbs Free Energy=        -0.010419
 Sum of electronic and zero-point Energies=           -100.938602
 Sum of electronic and thermal Energies=              -100.936205
 Sum of electronic and thermal Enthalpies=            -100.935261
 Sum of electronic and thermal Free Energies=         -100.958845

                     E (Thermal)             CV                S
                      KCal/Mol        Cal/Mol-Kelvin    Cal/Mol-Kelvin
 Total                    7.669              5.411             49.637
 Electronic               0.000              0.000              1.377
 Translational            0.889              2.981             35.068
 Rotational               0.592              1.987             13.103
 Vibrational              6.187              0.443              0.089

 Normal termination of Gaussian 16 at Fri Aug 22 16:06:23 2025.
