 Gaussian 16, Revision C.01,
 Gaussian 16:  ES64L-G16RevC.01  3-Jul-2019

 -----------------------------------------
 # sp b3lyp/6-311g** Force nosymm scf=(qc)
 -----------------------------------------

 -------------------
 Title Card Required
 -------------------
 Symbolic Z-matrix:
 Charge =  0 Multiplicity = 2

                          Input orientation:
 ---------------------------------------------------------------------
 Center     Atomic      Atomic             Coordinates (Angstroms)
 Number     Number       Type             X           Y           Z
 ---------------------------------------------------------------------
      1          1           0        0.000000    0.000000    0.000000
      2          1           0       -1.250000    0.000000    0.000000
      3          9           0        0.950000    0.000000    0.000000
 ---------------------------------------------------------------------

 SCF Done:  E(UB3LYP) =  -100.967514163     a.u. after    6 cycles

 Alpha  occ. eigenvalues --  -24.63849  -1.17730  -0.55646  -0.39127  -0.39127
 Alpha  occ. eigenvalues --   -0.36857
 Alpha virt. eigenvalues --    0.11579   0.19690   0.40160   0.92957   0.92957
 Alpha virt. eigenvalues --    0.97919   1.10807   1.10807   1.32298   1.49922
 Alpha virt. eigenvalues --    1.49922   1.56557   2.14046   2.27033   2.75462

  Beta  occ. eigenvalues --  -24.63381  -1.16548  -0.52537  -0.38716  -0.38716
  Beta virt. eigenvalues --   -0.16882   0.13499   0.24276   0.45015   0.93667
  Beta virt. eigenvalues --    0.93667   0.98885   1.19062   1.19062   1.38170
  Beta virt. eigenvalues --    1.55383   1.55383   1.61697   2.21148   2.36438

 Mulliken charges and spin densities:
               1          2
     1  H    0.279724  -0.005356
     2  H    0.028758   0.888054
     3  F   -0.308482   0.117302
 Sum of Mulliken charges =   0.00000   1.00000

 Dipole moment (field-independent basis, Debye):
    X=             -2.1071    Y=             -0.0000    Z=              0.0000  Tot=              2.1071
 Quadrupole moment (field-independent basis, Debye-Ang):
   XX=             -7.5930   YY=             -6.7345   ZZ=             -6.7345
   XY=             -0.0000   XZ=              0.0000   YZ=              0.0000

  Exact polarizability:      12.792       0.000       2.564       0.000      -0.000       2.564
 Approx polarizability:      13.967       0.000       2.576       0.000      -0.000       2.576

 ******    2 imaginary frequencies (negative Signs) ******

                      1                      2                      3
                      A                      A                      A
 Frequencies --   -160.9754              -160.9754               806.9754
 Red. masses --      1.0216                 1.0216                 1.0466
 Frc consts  --      0.0156                 0.0156                 0.4016
 IR Inten    --     87.9627                87.9627                10.8133

                      4
                      A
 Frequencies --   3330.7893
 Red. masses --      1.0651
 Frc consts  --      6.9619
 IR Inten    --    121.0488

 - Thermochemistry -
 -------------------
 Temperature   298.150 Kelvin.  Pressure   1.00000 Atm.
 Atom     1 has atomic number  1 and mass   1.00783

 Molecular mass:    21.01405 amu.
 Principal axes and moments of inertia in atomic units:
                           1         2         3
     Eigenvalues --     0.00000  18.95461  18.95461
           X            1.00000  -0.00000   0.00000
           Y            0.00000   1.00000   0.00000
           Z            0.00000   0.00000   1.00000
 This molecule is a prolate symmetric top.
 Rotational symmetry number  1.
 Rotational temperature (Kelvin)      4.56954
 Rotational constant (GHZ):          95.213818
    2 imaginary frequencies ignored.
 Zero-point vibrational energy      24749.3 (Joules/Mol)
                                    5.91523 (Kcal/Mol)
 Vibrational temperatures:   1161.06  4792.26
          (Kelvin)

 Zero-point correction=                           0.009427 (Hartree/Particle)
 Thermal correction to Energy=                    0.011863
 Thermal correction to Enthalpy=                  0.012808
 Thermal correction to Gibbs Free Energy=        -0.009494
 Sum of electronic and zero-point Energies=           -100.958088
 Sum of electronic and thermal Energies=              -100.955651
 Sum of electronic and thermal Enthalpies=            -100.954707
 Sum of electronic and thermal Free Energies=         -100.977008

                     E (Thermal)             CV                S
                      KCal/Mol        Cal/Mol-Kelvin    Cal/Mol-Kelvin
 Total                    7.444              5.607             46.937
 Electronic               0.000              0.000              1.377
 Translational            0.889              2.981             35.068
 Rotational               0.592              1.987             10.290
 Vibrational              5.963              0.639              0.202

 Normal termination of Gaussian 16 at Fri Aug 22 15:57:38 2025.
