 Gaussian 16, Revision C.01,
 Gaussian 16:  ES64L-G16RevC.01  3-Jul-2019

 -----------------------------------------
 # sp b3lyp/6-311g** Force nosymm scf=(qc)
 -----------------------------------------

 -------------------
 Title Card Required
 -------------------
 Symbolic Z-matrix:
 Charge =  0 Multiplicity = 2

                          Input orientation:
 ---------------------------------------------------------------------
 Center     Atomic      Atomic             Coordinates (Angstroms)
 Number     Number       Type             X           Y           Z
 ---------------------------------------------------------------------
      1          1           0        0.000000    0.000000    0.000000
      2          1           0       -1.000000    0.000000    0.000000
      3          9           0        1.900000    0.000000    0.000000
 ---------------------------------------------------------------------

 SCF Done:  E(UB3LYP) =  -100.912022421     a.u. after    8 cycles

 Alpha  occ. eigenvalues --  -24.72881  -1.19167  -0.53038  -0.43788  -0.43788
 Alpha  occ. eigenvalues --   -0.41250
 Alpha virt. eigenvalues --    0.01004   0.21000   0.37082   0.91177   0.91177
 Alpha virt. eigenvalues --    0.91886   1.07298   1.07298   1.10228   1.53131
 Alpha virt. eigenvalues --    1.63695   1.63695   2.20645   2.33185   2.60538

  Beta  occ. eigenvalues --  -24.70035  -1.11121  -0.41437  -0.40965  -0.40965
  Beta virt. eigenvalues --   -0.24987   0.02446   0.21832   0.37746   0.92413
  Beta virt. eigenvalues --    0.92413   0.99248   1.08571   1.08571   1.13088
  Beta virt. eigenvalues --    1.55734   1.64510   1.64510   2.22162   2.34585

 Mulliken charges and spin densities:
               1          2
     1  H    0.040251  -0.066629
     2  H    0.044385   0.177240
     3  F   -0.084636   0.889389
 Sum of Mulliken charges =   0.00000   1.00000

 Dipole moment (field-independent basis, Debye):
    X=             -0.9838    Y=              0.0000    Z=              0.0000  Tot=              0.9838
 Quadrupole moment (field-independent basis, Debye-Ang):
   XX=             -6.6619   YY=             -7.1754   ZZ=             -7.1754
   XY=              0.0000   XZ=              0.0000   YZ=              0.0000

  Exact polarizability:      30.776       0.000       2.197      -0.000      -0.000       2.197
 Approx polarizability:      40.757       0.000       2.217       0.000       0.000       2.217

 ******    1 imaginary frequencies (negative Signs) ******

                      1                      2                      3
                      A                      A                      A
 Frequencies --   -576.2733              1424.0930              1424.0930
 Red. masses --      1.1014                 1.0120                 1.0120
 Frc consts  --      0.2155                 1.2093                 1.2093
 IR Inten    --    226.3928                 0.0106                 0.0106

                      4
                      A
 Frequencies --   1424.7993
 Red. masses --      1.0138
 Frc consts  --      1.2126
 IR Inten    --    565.4333

 - Thermochemistry -
 -------------------
 Temperature   298.150 Kelvin.  Pressure   1.00000 Atm.
 Atom     1 has atomic number  1 and mass   1.00783

 Molecular mass:    21.01405 amu.
 Principal axes and moments of inertia in atomic units:
                           1         2         3
     Eigenvalues --     0.00000  39.28322  39.28322
           X            1.00000  -0.00000   0.00000
           Y            0.00000   1.00000   0.00000
           Z            0.00000   0.00000   1.00000
 This molecule is a prolate symmetric top.
 Rotational symmetry number  1.
 Rotational temperature (Kelvin)      2.20486
 Rotational constant (GHZ):          45.941785
    1 imaginary frequencies ignored.
 Zero-point vibrational energy      25558.1 (Joules/Mol)
                                    6.10854 (Kcal/Mol)
 Vibrational temperatures:   2048.95  2048.95  2049.97
          (Kelvin)

 Zero-point correction=                           0.009735 (Hartree/Particle)
 Thermal correction to Energy=                    0.012115
 Thermal correction to Enthalpy=                  0.013059
 Thermal correction to Gibbs Free Energy=        -0.009857
 Sum of electronic and zero-point Energies=           -100.902288
 Sum of electronic and thermal Energies=              -100.899907
 Sum of electronic and thermal Enthalpies=            -100.898963
 Sum of electronic and thermal Free Energies=         -100.921880

                     E (Thermal)             CV                S
                      KCal/Mol        Cal/Mol-Kelvin    Cal/Mol-Kelvin
 Total                    7.602              5.260             48.232
 Electronic               0.000              0.000              1.377
 Translational            0.889              2.981             35.068
 Rotational               0.592              1.987             11.738
 Vibrational              6.121              0.292              0.049

 Normal termination of Gaussian 16 at Fri Aug 22 16:49:05 2025.
