 Gaussian 16, Revision C.01,
 Gaussian 16:  ES64L-G16RevC.01  3-Jul-2019

 -----------------------------------------
 # sp b3lyp/6-311g** Force nosymm scf=(qc)
 -----------------------------------------

 -------------------
 Title Card Required
 -------------------
 Symbolic Z-matrix:
 Charge =  0 Multiplicity = 2

                          Input orientation:
 ---------------------------------------------------------------------
 Center     Atomic      Atomic             Coordinates (Angstroms)
 Number     Number       Type             X           Y           Z
 ---------------------------------------------------------------------
      1          1           0        0.000000    0.000000    0.000000
      2          1           0       -3.650000    0.000000    0.000000
      3          9           0        2.300000    0.000000    0.000000
 ---------------------------------------------------------------------

 SCF Done:  E(UB3LYP) =  -100.772377216     a.u. after   15 cycles

 Alpha  occ. eigenvalues --  -24.67706  -1.09034  -0.38913  -0.38913  -0.36276
 Alpha  occ. eigenvalues --   -0.32943
 Alpha virt. eigenvalues --   -0.22438   0.20810   0.27865   0.92824   0.95473
 Alpha virt. eigenvalues --    0.95473   1.08269   1.21602   1.21602   1.24512
 Alpha virt. eigenvalues --    1.24512   1.24538   1.37209   2.10595   2.15881

  Beta  occ. eigenvalues --  -24.70415  -1.16700  -0.49491  -0.41603  -0.41603
  Beta virt. eigenvalues --   -0.11837  -0.04483   0.31757   0.40290   0.88788
  Beta virt. eigenvalues --    0.94258   0.94258   1.06201   1.38604   1.38604
  Beta virt. eigenvalues --    1.47926   1.48124   1.48124   1.48874   2.33704

 Mulliken charges and spin densities:
               1          2
     1  H    0.124393   0.854525
     2  H    0.000703   0.999311
     3  F   -0.125096  -0.853836
 Sum of Mulliken charges =  -0.00000   1.00000

 Dipole moment (field-independent basis, Debye):
    X=             -1.4620    Y=              0.0000    Z=             -0.0000  Tot=              1.4620
 Quadrupole moment (field-independent basis, Debye-Ang):
   XX=             -9.7225   YY=             -7.5335   ZZ=             -7.5335
   XY=             -0.0000   XZ=              0.0000   YZ=             -0.0000

  Exact polarizability:      29.121       0.000       2.034      -0.000       0.000       2.034
 Approx polarizability:      39.580      -0.000       1.925       0.000      -0.000       1.925

 ******    1 imaginary frequencies (negative Signs) ******

                      1                      2                      3
                      A                      A                      A
 Frequencies --   -755.5539                64.7611               310.9227
 Red. masses --      1.0594                 1.0522                 1.0244
 Frc consts  --      0.3563                 0.0026                 0.0583
 IR Inten    --     92.9901                 0.0739                14.8474

                      4
                      A
 Frequencies --    310.9227
 Red. masses --      1.0244
 Frc consts  --      0.0583
 IR Inten    --     14.8474

 - Thermochemistry -
 -------------------
 Temperature   298.150 Kelvin.  Pressure   1.00000 Atm.
 Atom     1 has atomic number  1 and mass   1.00783

 Molecular mass:    21.01405 amu.
 Principal axes and moments of inertia in atomic units:
                           1         2         3
     Eigenvalues --     0.00000 134.70460 134.70460
           X            1.00000  -0.00000   0.00000
           Y            0.00000   1.00000   0.00000
           Z            0.00000   0.00000   1.00000
 This molecule is a prolate symmetric top.
 Rotational symmetry number  1.
 Rotational temperature (Kelvin)      0.64299
 Rotational constant (GHZ):          13.397770
    1 imaginary frequencies ignored.
 Zero-point vibrational energy       4106.8 (Joules/Mol)
                                    0.98155 (Kcal/Mol)
 Warning -- explicit consideration of   3 degrees of freedom as
           vibrations may cause significant error
 Vibrational temperatures:     93.18   447.35   447.35
          (Kelvin)

 Zero-point correction=                           0.001564 (Hartree/Particle)
 Thermal correction to Energy=                    0.005542
 Thermal correction to Enthalpy=                  0.006487
 Thermal correction to Gibbs Free Energy=        -0.020907
 Sum of electronic and zero-point Energies=           -100.770813
 Sum of electronic and thermal Energies=              -100.766835
 Sum of electronic and thermal Enthalpies=            -100.765891
 Sum of electronic and thermal Free Energies=         -100.793284

                     E (Thermal)             CV                S
                      KCal/Mol        Cal/Mol-Kelvin    Cal/Mol-Kelvin
 Total                    3.478             10.245             57.654
 Electronic               0.000              0.000              1.377
 Translational            0.889              2.981             35.068
 Rotational               0.592              1.987             14.187
 Vibrational              1.997              5.277              7.021
 Vibration     1          0.597              1.971              4.307
 Vibration     2          0.700              1.653              1.357
 Vibration     3          0.700              1.653              1.357

 Normal termination of Gaussian 16 at Fri Aug 22 17:23:21 2025.
