 Gaussian 16, Revision C.01,
 Gaussian 16:  ES64L-G16RevC.01  3-Jul-2019

 -----------------------------------------
 # sp b3lyp/6-311g** Force nosymm scf=(qc)
 -----------------------------------------

 -------------------
 Title Card Required
 -------------------
 Symbolic Z-matrix:
 Charge =  0 Multiplicity = 2

                          Input orientation:
 ---------------------------------------------------------------------
 Center     Atomic      Atomic             Coordinates (Angstroms)
 Number     Number       Type             X           Y           Z
 ---------------------------------------------------------------------
      1          1           0        0.000000    0.000000    0.000000
      2          1           0       -2.050000    0.000000    0.000000
      3          9           0        0.600000    0.000000    0.000000
 ---------------------------------------------------------------------

 SCF Done:  E(UB3LYP) =  -100.687466925     a.u. after    6 cycles

 Alpha  occ. eigenvalues --  -24.62675  -1.34686  -0.61084  -0.42921  -0.42921
 Alpha  occ. eigenvalues --   -0.35002
 Alpha virt. eigenvalues --    0.10767   0.24527   0.54943   0.92172   0.92172
 Alpha virt. eigenvalues --    0.93593   1.19114   1.22475   1.22475   1.50356
 Alpha virt. eigenvalues --    1.50356   1.56048   1.96935   2.18530   3.36783

  Beta  occ. eigenvalues --  -24.62651  -1.34613  -0.60993  -0.42907  -0.42907
  Beta virt. eigenvalues --   -0.09664   0.12187   0.35862   0.55797   0.92162
  Beta virt. eigenvalues --    0.92162   0.93713   1.29423   1.42864   1.42864
  Beta virt. eigenvalues --    1.50485   1.50485   1.64750   2.00255   2.44528

 Mulliken charges and spin densities:
               1          2
     1  H    0.222429   0.009132
     2  H    0.008652   0.987456
     3  F   -0.231080   0.003413
 Sum of Mulliken charges =   0.00000   1.00000

 Dipole moment (field-independent basis, Debye):
    X=             -1.5066    Y=              0.0000    Z=             -0.0000  Tot=              1.5066
 Quadrupole moment (field-independent basis, Debye-Ang):
   XX=             -6.7460   YY=             -6.5255   ZZ=             -6.5255
   XY=              0.0000   XZ=             -0.0000   YZ=             -0.0000

  Exact polarizability:       5.659       0.000       2.480      -0.000      -0.000       2.480
 Approx polarizability:       5.517      -0.000       2.471       0.000       0.000       2.471

 ******    2 imaginary frequencies (negative Signs) ******

                      1                      2                      3
                      A                      A                      A
 Frequencies --  -5804.1342             -5804.1342               341.9829
 Red. masses --      1.0366                 1.0366                 1.0533
 Frc consts  --     20.5748                20.5748                 0.0726
 IR Inten    --    206.3064               206.3064                 0.0268

                      4
                      A
 Frequencies --  13070.2696
 Red. masses --      1.0583
 Frc consts  --    106.5176
 IR Inten    --    116.6692

 - Thermochemistry -
 -------------------
 Temperature   298.150 Kelvin.  Pressure   1.00000 Atm.
 Atom     1 has atomic number  1 and mass   1.00783

 Molecular mass:    21.01405 amu.
 Principal axes and moments of inertia in atomic units:
                           1         2         3
     Eigenvalues --     0.00000  24.74652  24.74652
           X            1.00000  -0.00000   0.00000
           Y            0.00000   1.00000   0.00000
           Z            0.00000   0.00000   1.00000
 This molecule is a prolate symmetric top.
 Rotational symmetry number  1.
 Rotational temperature (Kelvin)      3.50004
 Rotational constant (GHZ):          72.929091
    2 imaginary frequencies ignored.
 Zero-point vibrational energy      80223.1 (Joules/Mol)
                                   19.17378 (Kcal/Mol)
 Warning -- explicit consideration of   1 degrees of freedom as
           vibrations may cause significant error
 Vibrational temperatures:    492.04 18805.20
          (Kelvin)

 Zero-point correction=                           0.030555 (Hartree/Particle)
 Thermal correction to Energy=                    0.033286
 Thermal correction to Enthalpy=                  0.034230
 Thermal correction to Gibbs Free Energy=         0.011201
 Sum of electronic and zero-point Energies=           -100.656912
 Sum of electronic and thermal Energies=              -100.654181
 Sum of electronic and thermal Enthalpies=            -100.653237
 Sum of electronic and thermal Free Energies=         -100.676266

                     E (Thermal)             CV                S
                      KCal/Mol        Cal/Mol-Kelvin    Cal/Mol-Kelvin
 Total                   20.887              6.560             48.468
 Electronic               0.000              0.000              1.377
 Translational            0.889              2.981             35.068
 Rotational               0.592              1.987             10.820
 Vibrational             19.406              1.592              1.203
 Vibration     1          0.721              1.592              1.203

 Normal termination of Gaussian 16 at Fri Aug 22 15:41:44 2025.
