 Gaussian 16, Revision C.01,
 Gaussian 16:  ES64L-G16RevC.01  3-Jul-2019

 -----------------------------------------
 # sp b3lyp/6-311g** Force nosymm scf=(qc)
 -----------------------------------------

 -------------------
 Title Card Required
 -------------------
 Symbolic Z-matrix:
 Charge =  0 Multiplicity = 2

                          Input orientation:
 ---------------------------------------------------------------------
 Center     Atomic      Atomic             Coordinates (Angstroms)
 Number     Number       Type             X           Y           Z
 ---------------------------------------------------------------------
      1          1           0        0.000000    0.000000    0.000000
      2          1           0       -1.700000    0.000000    0.000000
      3          9           0        3.600000    0.000000    0.000000
 ---------------------------------------------------------------------

 SCF Done:  E(UB3LYP) =  -100.794893550     a.u. after   53 cycles

 Alpha  occ. eigenvalues --  -24.76282  -1.22169  -0.55372  -0.46553  -0.46527
 Alpha  occ. eigenvalues --   -0.33047
 Alpha virt. eigenvalues --   -0.10524   0.25752   0.30949   0.86007   0.90884
 Alpha virt. eigenvalues --    0.91770   1.01131   1.07672   1.23869   1.23871
 Alpha virt. eigenvalues --    1.38307   1.38311   1.67778   2.16979   2.41755

  Beta  occ. eigenvalues --  -24.73127  -1.13097  -0.43398  -0.43364  -0.33032
  Beta virt. eigenvalues --   -0.26019  -0.10566   0.25729   0.31030   0.92386
  Beta virt. eigenvalues --    0.93219   0.95475   1.05231   1.07661   1.23863
  Beta virt. eigenvalues --    1.23867   1.38295   1.38296   1.67811   2.17234

 Mulliken charges and spin densities:
               1          2
     1  H    0.000562  -0.611770
     2  H   -0.002425   0.611768
     3  F    0.001862   1.000003
 Sum of Mulliken charges =   0.00000   1.00000

 Dipole moment (field-independent basis, Debye):
    X=              0.0393    Y=             -0.0000    Z=             -0.0000  Tot=              0.0393
 Quadrupole moment (field-independent basis, Debye-Ang):
   XX=             -6.5708   YY=             -7.3343   ZZ=             -7.3407
   XY=             -0.0001   XZ=             -0.0001   YZ=              0.4322

  Exact polarizability:      23.931      -0.000       2.253      -0.000       0.233       2.250
 Approx polarizability:      37.898      -0.000       2.273      -0.000       0.291       2.269

 ******    2 imaginary frequencies (negative Signs) ******

                      1                      2                      3
                      A                      A                      A
 Frequencies --  -1906.0781               -48.3539               907.3456
 Red. masses --      1.0078                 1.1085                 1.0114
 Frc consts  --      2.1573                 0.0015                 0.4906
 IR Inten    --      0.0236                 0.1158                 0.0020

                      4
                      A
 Frequencies --    907.4203
 Red. masses --      1.0114
 Frc consts  --      0.4907
 IR Inten    --      0.0018

 - Thermochemistry -
 -------------------
 Temperature   298.150 Kelvin.  Pressure   1.00000 Atm.
 Atom     1 has atomic number  1 and mass   1.00783

 Molecular mass:    21.01405 amu.
 Principal axes and moments of inertia in atomic units:
                           1         2         3
     Eigenvalues --     0.00000 134.06711 134.06711
           X            1.00000  -0.00000   0.00000
           Y            0.00000   1.00000   0.00000
           Z            0.00000   0.00000   1.00000
 This molecule is a prolate symmetric top.
 Rotational symmetry number  1.
 Rotational temperature (Kelvin)      0.64605
 Rotational constant (GHZ):          13.461476
    2 imaginary frequencies ignored.
 Zero-point vibrational energy      10854.7 (Joules/Mol)
                                    2.59434 (Kcal/Mol)
 Vibrational temperatures:   1305.47  1305.58
          (Kelvin)

 Zero-point correction=                           0.004134 (Hartree/Particle)
 Thermal correction to Energy=                    0.006600
 Thermal correction to Enthalpy=                  0.007544
 Thermal correction to Gibbs Free Energy=        -0.016638
 Sum of electronic and zero-point Energies=           -100.790759
 Sum of electronic and thermal Energies=              -100.788294
 Sum of electronic and thermal Enthalpies=            -100.787350
 Sum of electronic and thermal Free Energies=         -100.811531

                     E (Thermal)             CV                S
                      KCal/Mol        Cal/Mol-Kelvin    Cal/Mol-Kelvin
 Total                    4.141              5.948             50.894
 Electronic               0.000              0.000              1.377
 Translational            0.889              2.981             35.068
 Rotational               0.592              1.987             14.178
 Vibrational              2.660              0.980              0.271

 Normal termination of Gaussian 16 at Fri Aug 22 23:03:36 2025.
