 Gaussian 16, Revision C.01,
 Gaussian 16:  ES64L-G16RevC.01  3-Jul-2019

 -----------------------------------------
 # sp b3lyp/6-311g** Force nosymm scf=(qc)
 -----------------------------------------

 -------------------
 Title Card Required
 -------------------
 Symbolic Z-matrix:
 Charge =  0 Multiplicity = 2

                          Input orientation:
 ---------------------------------------------------------------------
 Center     Atomic      Atomic             Coordinates (Angstroms)
 Number     Number       Type             X           Y           Z
 ---------------------------------------------------------------------
      1          1           0        0.000000    0.000000    0.000000
      2          1           0       -2.700000    0.000000    0.000000
      3          9           0        2.050000    0.000000    0.000000
 ---------------------------------------------------------------------

 SCF Done:  E(UB3LYP) =  -100.762897560     a.u. after   16 cycles

 Alpha  occ. eigenvalues --  -24.63574  -1.07837  -0.38588  -0.35852  -0.35253
 Alpha  occ. eigenvalues --   -0.34543
 Alpha virt. eigenvalues --   -0.23007   0.21297   0.26702   0.90652   0.97730
 Alpha virt. eigenvalues --    0.97747   1.09650   1.21686   1.21686   1.23210
 Alpha virt. eigenvalues --    1.23214   1.23253   1.51343   2.12683   2.14464

  Beta  occ. eigenvalues --  -24.63595  -1.07898  -0.38240  -0.35275  -0.34838
  Beta virt. eigenvalues --   -0.23134  -0.09838   0.24786   0.34898   0.90992
  Beta virt. eigenvalues --    0.97751   0.97766   1.09855   1.23892   1.23896
  Beta virt. eigenvalues --    1.41761   1.41761   1.41960   1.52196   2.15447

 Mulliken charges and spin densities:
               1          2
     1  H    0.257957   0.038714
     2  H    0.029675   0.968376
     3  F   -0.287632  -0.007089
 Sum of Mulliken charges =   0.00000   1.00000

 Dipole moment (field-independent basis, Debye):
    X=             -3.3724    Y=              0.0005    Z=              0.0001  Tot=              3.3724
 Quadrupole moment (field-independent basis, Debye-Ang):
   XX=            -11.1570   YY=             -7.5286   ZZ=             -7.5551
   XY=             -0.0003   XZ=             -0.0000   YZ=              0.0035

  Exact polarizability:      53.470       0.009       2.016       0.002      -0.016       2.138
 Approx polarizability:     126.414      -0.024       1.923      -0.003       0.002       1.907

 ******    2 imaginary frequencies (negative Signs) ******

                      1                      2                      3
                      A                      A                      A
 Frequencies --  -1276.0447              -273.4254               615.5228
 Red. masses --      1.0513                 1.0603                 1.0216
 Frc consts  --      1.0085                 0.0467                 0.2280
 IR Inten    --     16.0466                25.3153                63.6823

                      4
                      A
 Frequencies --    635.2692
 Red. masses --      1.0216
 Frc consts  --      0.2429
 IR Inten    --     58.0568

 - Thermochemistry -
 -------------------
 Temperature   298.150 Kelvin.  Pressure   1.00000 Atm.
 Atom     1 has atomic number  1 and mass   1.00783

 Molecular mass:    21.01405 amu.
 Principal axes and moments of inertia in atomic units:
                           1         2         3
     Eigenvalues --     0.00000  88.34612  88.34612
           X            1.00000  -0.00000   0.00000
           Y            0.00000   1.00000   0.00000
           Z            0.00000   0.00000   1.00000
 This molecule is a prolate symmetric top.
 Rotational symmetry number  1.
 Rotational temperature (Kelvin)      0.98039
 Rotational constant (GHZ):          20.428075
    2 imaginary frequencies ignored.
 Zero-point vibrational energy       7481.4 (Joules/Mol)
                                    1.78810 (Kcal/Mol)
 Warning -- explicit consideration of   1 degrees of freedom as
           vibrations may cause significant error
 Vibrational temperatures:    885.60   914.01
          (Kelvin)

 Zero-point correction=                           0.002850 (Hartree/Particle)
 Thermal correction to Energy=                    0.005503
 Thermal correction to Enthalpy=                  0.006447
 Thermal correction to Gibbs Free Energy=        -0.017599
 Sum of electronic and zero-point Energies=           -100.760048
 Sum of electronic and thermal Energies=              -100.757394
 Sum of electronic and thermal Enthalpies=            -100.756450
 Sum of electronic and thermal Free Energies=         -100.780497

                     E (Thermal)             CV                S
                      KCal/Mol        Cal/Mol-Kelvin    Cal/Mol-Kelvin
 Total                    3.453              6.925             50.611
 Electronic               0.000              0.000              1.377
 Translational            0.889              2.981             35.068
 Rotational               0.592              1.987             13.349
 Vibrational              1.972              1.957              0.817
 Vibration     1          0.975              0.999              0.424

 Normal termination of Gaussian 16 at Fri Aug 22 17:00:49 2025.
