 Gaussian 16, Revision C.01,
 Gaussian 16:  ES64L-G16RevC.01  3-Jul-2019

 -----------------------------------------
 # sp b3lyp/6-311g** Force nosymm scf=(qc)
 -----------------------------------------

 -------------------
 Title Card Required
 -------------------
 Symbolic Z-matrix:
 Charge =  0 Multiplicity = 2

                          Input orientation:
 ---------------------------------------------------------------------
 Center     Atomic      Atomic             Coordinates (Angstroms)
 Number     Number       Type             X           Y           Z
 ---------------------------------------------------------------------
      1          1           0        0.000000    0.000000    0.000000
      2          1           0       -3.450000    0.000000    0.000000
      3          9           0        3.300000    0.000000    0.000000
 ---------------------------------------------------------------------

 SCF Done:  E(UB3LYP) =  -100.759683037     a.u. after   25 cycles

 Alpha  occ. eigenvalues --  -24.74979  -1.20973  -0.54101  -0.45424  -0.45424
 Alpha  occ. eigenvalues --   -0.32414
 Alpha virt. eigenvalues --   -0.07428   0.24253   0.36558   0.88290   0.91732
 Alpha virt. eigenvalues --    0.91732   1.02456   1.25093   1.25093   1.25277
 Alpha virt. eigenvalues --    1.44731   1.44731   1.44846   2.15023   2.40922

  Beta  occ. eigenvalues --  -24.71892  -1.12108  -0.42331  -0.42331  -0.33118
  Beta virt. eigenvalues --   -0.25269  -0.06591   0.24038   0.37831   0.93213
  Beta virt. eigenvalues --    0.93213   0.97283   1.06378   1.24278   1.24278
  Beta virt. eigenvalues --    1.24460   1.45761   1.46008   1.46008   2.15336

 Mulliken charges and spin densities:
               1          2
     1  H    0.018973  -0.976479
     2  H    0.000305   0.997631
     3  F   -0.019278   0.978848
 Sum of Mulliken charges =  -0.00000   1.00000

 Dipole moment (field-independent basis, Debye):
    X=             -0.3320    Y=             -0.0000    Z=              0.0000  Tot=              0.3320
 Quadrupole moment (field-independent basis, Debye-Ang):
   XX=             -7.7183   YY=             -7.6196   ZZ=             -7.6196
   XY=             -0.0000   XZ=             -0.0000   YZ=              0.0000

  Exact polarizability:      28.408      -0.000       2.030      -0.000       0.000       2.030
 Approx polarizability:      24.600      -0.000       1.931      -0.000       0.000       1.931

 ******    2 imaginary frequencies (negative Signs) ******

                      1                      2                      3
                      A                      A                      A
 Frequencies --   -295.0215              -116.6360                96.9190
 Red. masses --      1.0347                 1.0777                 1.0185
 Frc consts  --      0.0531                 0.0086                 0.0056
 IR Inten    --     19.8640                 1.3090                 0.3267

                      4
                      A
 Frequencies --     96.9190
 Red. masses --      1.0185
 Frc consts  --      0.0056
 IR Inten    --      0.3267

 - Thermochemistry -
 -------------------
 Temperature   298.150 Kelvin.  Pressure   1.00000 Atm.
 Atom     1 has atomic number  1 and mass   1.00783

 Molecular mass:    21.01405 amu.
 Principal axes and moments of inertia in atomic units:
                           1         2         3
     Eigenvalues --     0.00000 185.73930 185.73930
           X            1.00000  -0.00000   0.00000
           Y            0.00000   1.00000   0.00000
           Z            0.00000   0.00000   1.00000
 This molecule is a prolate symmetric top.
 Rotational symmetry number  1.
 Rotational temperature (Kelvin)      0.46632
 Rotational constant (GHZ):           9.716529
    2 imaginary frequencies ignored.
 Zero-point vibrational energy       1159.4 (Joules/Mol)
                                    0.27711 (Kcal/Mol)
 Warning -- explicit consideration of   2 degrees of freedom as
           vibrations may cause significant error
 Vibrational temperatures:    139.44   139.44
          (Kelvin)

 Zero-point correction=                           0.000442 (Hartree/Particle)
 Thermal correction to Energy=                    0.004283
 Thermal correction to Enthalpy=                  0.005227
 Thermal correction to Gibbs Free Energy=        -0.022474
 Sum of electronic and zero-point Energies=           -100.759241
 Sum of electronic and thermal Energies=              -100.755400
 Sum of electronic and thermal Enthalpies=            -100.754456
 Sum of electronic and thermal Free Energies=         -100.782157

                     E (Thermal)             CV                S
                      KCal/Mol        Cal/Mol-Kelvin    Cal/Mol-Kelvin
 Total                    2.688              8.871             58.302
 Electronic               0.000              0.000              1.377
 Translational            0.889              2.981             35.068
 Rotational               0.592              1.987             14.825
 Vibrational              1.206              3.903              7.031
 Vibration     1          0.603              1.951              3.515
 Vibration     2          0.603              1.951              3.515

 Normal termination of Gaussian 16 at Fri Aug 22 20:50:01 2025.
