 Gaussian 16, Revision C.01,
 Gaussian 16:  ES64L-G16RevC.01  3-Jul-2019

 -----------------------------------------
 # sp b3lyp/6-311g** Force nosymm scf=(qc)
 -----------------------------------------

 -------------------
 Title Card Required
 -------------------
 Symbolic Z-matrix:
 Charge =  0 Multiplicity = 2

                          Input orientation:
 ---------------------------------------------------------------------
 Center     Atomic      Atomic             Coordinates (Angstroms)
 Number     Number       Type             X           Y           Z
 ---------------------------------------------------------------------
      1          1           0        0.000000    0.000000    0.000000
      2          1           0       -1.850000    0.000000    0.000000
      3          9           0        1.700000    0.000000    0.000000
 ---------------------------------------------------------------------

 SCF Done:  E(UB3LYP) =  -100.832497157     a.u. after   14 cycles

 Alpha  occ. eigenvalues --  -24.65589  -1.11874  -0.45171  -0.37793  -0.37518
 Alpha  occ. eigenvalues --   -0.37518
 Alpha virt. eigenvalues --   -0.12313   0.22856   0.29073   0.91834   0.94758
 Alpha virt. eigenvalues --    0.94758   1.04315   1.19625   1.19625   1.33017
 Alpha virt. eigenvalues --    1.34432   1.34432   1.73092   2.12383   2.31509

  Beta  occ. eigenvalues --  -24.63854  -1.07134  -0.39405  -0.35834  -0.35834
  Beta virt. eigenvalues --   -0.20621  -0.09612   0.25512   0.30671   0.94637
  Beta virt. eigenvalues --    0.94748   0.94748   1.07717   1.25758   1.25758
  Beta virt. eigenvalues --    1.35623   1.35623   1.42266   1.73041   2.14163

 Mulliken charges and spin densities:
               1          2
     1  H    0.219957  -0.409228
     2  H    0.058846   0.865246
     3  F   -0.278803   0.543982
 Sum of Mulliken charges =   0.00000   1.00000

 Dipole moment (field-independent basis, Debye):
    X=             -2.8425    Y=              0.0000    Z=             -0.0000  Tot=              2.8425
 Quadrupole moment (field-independent basis, Debye-Ang):
   XX=             -8.6622   YY=             -7.4174   ZZ=             -7.4174
   XY=             -0.0000   XZ=              0.0000   YZ=             -0.0000

  Exact polarizability:      41.991      -0.000       2.157       0.000      -0.000       2.157
 Approx polarizability:      55.893      -0.000       2.073       0.000       0.000       2.073

 ******    2 imaginary frequencies (negative Signs) ******

                      1                      2                      3
                      A                      A                      A
 Frequencies --  -2086.4268              -600.2938               851.0192
 Red. masses --      1.0280                 1.0851                 1.0190
 Frc consts  --      2.6365                 0.2304                 0.4348
 IR Inten    --    157.7226                 7.0744                29.1294

                      4
                      A
 Frequencies --    851.0192
 Red. masses --      1.0190
 Frc consts  --      0.4348
 IR Inten    --     29.1294

 - Thermochemistry -
 -------------------
 Temperature   298.150 Kelvin.  Pressure   1.00000 Atm.
 Atom     1 has atomic number  1 and mass   1.00783

 Molecular mass:    21.01405 amu.
 Principal axes and moments of inertia in atomic units:
                           1         2         3
     Eigenvalues --     0.00000  51.00016  51.00016
           X            1.00000  -0.00000   0.00000
           Y            0.00000   1.00000   0.00000
           Z            0.00000   0.00000   1.00000
 This molecule is a prolate symmetric top.
 Rotational symmetry number  1.
 Rotational temperature (Kelvin)      1.69831
 Rotational constant (GHZ):          35.386970
    2 imaginary frequencies ignored.
 Zero-point vibrational energy      10180.4 (Joules/Mol)
                                    2.43319 (Kcal/Mol)
 Vibrational temperatures:   1224.43  1224.43
          (Kelvin)

 Zero-point correction=                           0.003878 (Hartree/Particle)
 Thermal correction to Energy=                    0.006368
 Thermal correction to Enthalpy=                  0.007312
 Thermal correction to Gibbs Free Energy=        -0.015989
 Sum of electronic and zero-point Energies=           -100.828620
 Sum of electronic and thermal Energies=              -100.826129
 Sum of electronic and thermal Enthalpies=            -100.825185
 Sum of electronic and thermal Free Energies=         -100.848486

                     E (Thermal)             CV                S
                      KCal/Mol        Cal/Mol-Kelvin    Cal/Mol-Kelvin
 Total                    3.996              6.109             49.042
 Electronic               0.000              0.000              1.377
 Translational            0.889              2.981             35.068
 Rotational               0.592              1.987             12.257
 Vibrational              2.515              1.141              0.339

 Normal termination of Gaussian 16 at Fri Aug 22 16:37:17 2025.
