 Gaussian 16, Revision C.01,
 Gaussian 16:  ES64L-G16RevC.01  3-Jul-2019

 -----------------------------------------
 # sp b3lyp/6-311g** Force nosymm scf=(qc)
 -----------------------------------------

 -------------------
 Title Card Required
 -------------------
 Symbolic Z-matrix:
 Charge =  0 Multiplicity = 2

                          Input orientation:
 ---------------------------------------------------------------------
 Center     Atomic      Atomic             Coordinates (Angstroms)
 Number     Number       Type             X           Y           Z
 ---------------------------------------------------------------------
      1          1           0        0.000000    0.000000    0.000000
      2          1           0       -1.650000    0.000000    0.000000
      3          9           0        3.050000    0.000000    0.000000
 ---------------------------------------------------------------------

 SCF Done:  E(UB3LYP) =  -100.801085853     a.u. after   29 cycles

 Alpha  occ. eigenvalues --  -24.75031  -1.21022  -0.54158  -0.45479  -0.45479
 Alpha  occ. eigenvalues --   -0.34128
 Alpha virt. eigenvalues --   -0.11233   0.24985   0.30192   0.89353   0.91664
 Alpha virt. eigenvalues --    0.91664   1.03584   1.06190   1.22195   1.22195
 Alpha virt. eigenvalues --    1.37809   1.37809   1.70357   2.17209   2.42961

  Beta  occ. eigenvalues --  -24.71955  -1.12193  -0.42398  -0.42398  -0.33982
  Beta virt. eigenvalues --   -0.25473  -0.10970   0.25396   0.30452   0.93138
  Beta virt. eigenvalues --    0.93138   0.98111   1.06056   1.07972   1.22362
  Beta virt. eigenvalues --    1.22362   1.38045   1.38045   1.70713   2.18024

 Mulliken charges and spin densities:
               1          2
     1  H    0.003253  -0.537125
     2  H    0.017751   0.562288
     3  F   -0.021005   0.974838
 Sum of Mulliken charges =   0.00000   1.00000

 Dipole moment (field-independent basis, Debye):
    X=             -0.4661    Y=              0.0000    Z=              0.0000  Tot=              0.4661
 Quadrupole moment (field-independent basis, Debye-Ang):
   XX=             -6.4680   YY=             -7.7485   ZZ=             -7.7485
   XY=              0.0000   XZ=              0.0000   YZ=             -0.0000

  Exact polarizability:      56.107       0.000       2.028       0.000      -0.000       2.028
 Approx polarizability:      65.037       0.000       1.986       0.000       0.000       1.986

 ******    2 imaginary frequencies (negative Signs) ******

                      1                      2                      3
                      A                      A                      A
 Frequencies --  -1994.2004              -199.5012               963.3361
 Red. masses --      1.0079                 1.1084                 1.0122
 Frc consts  --      2.3615                 0.0260                 0.5535
 IR Inten    --    117.8155                20.0836                 0.0084

                      4
                      A
 Frequencies --    963.3361
 Red. masses --      1.0122
 Frc consts  --      0.5535
 IR Inten    --      0.0084

 - Thermochemistry -
 -------------------
 Temperature   298.150 Kelvin.  Pressure   1.00000 Atm.
 Atom     1 has atomic number  1 and mass   1.00783

 Molecular mass:    21.01405 amu.
 Principal axes and moments of inertia in atomic units:
                           1         2         3
     Eigenvalues --     0.00000 102.61467 102.61467
           X            1.00000  -0.00000   0.00000
           Y            0.00000   1.00000   0.00000
           Z            0.00000   0.00000   1.00000
 This molecule is a prolate symmetric top.
 Rotational symmetry number  1.
 Rotational temperature (Kelvin)      0.84407
 Rotational constant (GHZ):          17.587555
    2 imaginary frequencies ignored.
 Zero-point vibrational energy      11524.1 (Joules/Mol)
                                    2.75432 (Kcal/Mol)
 Vibrational temperatures:   1386.03  1386.03
          (Kelvin)

 Zero-point correction=                           0.004389 (Hartree/Particle)
 Thermal correction to Energy=                    0.006835
 Thermal correction to Enthalpy=                  0.007779
 Thermal correction to Gibbs Free Energy=        -0.016124
 Sum of electronic and zero-point Energies=           -100.796697
 Sum of electronic and thermal Energies=              -100.794251
 Sum of electronic and thermal Enthalpies=            -100.793307
 Sum of electronic and thermal Free Energies=         -100.817210

                     E (Thermal)             CV                S
                      KCal/Mol        Cal/Mol-Kelvin    Cal/Mol-Kelvin
 Total                    4.289              5.806             50.309
 Electronic               0.000              0.000              1.377
 Translational            0.889              2.981             35.068
 Rotational               0.592              1.987             13.646
 Vibrational              2.808              0.838              0.217

 Normal termination of Gaussian 16 at Fri Aug 22 19:43:00 2025.
