 Gaussian 16, Revision C.01,
 Gaussian 16:  ES64L-G16RevC.01  3-Jul-2019

 -----------------------------------------
 # sp b3lyp/6-311g** Force nosymm scf=(qc)
 -----------------------------------------

 -------------------
 Title Card Required
 -------------------
 Symbolic Z-matrix:
 Charge =  0 Multiplicity = 2

                          Input orientation:
 ---------------------------------------------------------------------
 Center     Atomic      Atomic             Coordinates (Angstroms)
 Number     Number       Type             X           Y           Z
 ---------------------------------------------------------------------
      1          1           0        0.000000    0.000000    0.000000
      2          1           0       -3.600000    0.000000    0.000000
      3          9           0        2.750000    0.000000    0.000000
 ---------------------------------------------------------------------

 SCF Done:  E(UB3LYP) =  -100.763315750     a.u. after   22 cycles

 Alpha  occ. eigenvalues --  -24.73049  -1.19183  -0.52164  -0.43807  -0.43807
 Alpha  occ. eigenvalues --   -0.32670
 Alpha virt. eigenvalues --   -0.08995   0.23741   0.35842   0.89922   0.92887
 Alpha virt. eigenvalues --    0.92887   1.05325   1.24835   1.24835   1.24947
 Alpha virt. eigenvalues --    1.42664   1.42664   1.43857   2.14542   2.38841

  Beta  occ. eigenvalues --  -24.70097  -1.10747  -0.40858  -0.40858  -0.34442
  Beta virt. eigenvalues --   -0.24164  -0.06485   0.23917   0.37976   0.94319
  Beta virt. eigenvalues --    0.94319   0.97958   1.08566   1.22877   1.22877
  Beta virt. eigenvalues --    1.25010   1.45964   1.46217   1.46217   2.13976

 Mulliken charges and spin densities:
               1          2
     1  H    0.058911  -0.932712
     2  H    0.000499   0.998397
     3  F   -0.059410   0.934315
 Sum of Mulliken charges =  -0.00000   1.00000

 Dipole moment (field-independent basis, Debye):
    X=             -0.8453    Y=              0.0000    Z=             -0.0000  Tot=              0.8453
 Quadrupole moment (field-independent basis, Debye-Ang):
   XX=             -8.8297   YY=             -7.5934   ZZ=             -7.5934
   XY=              0.0000   XZ=             -0.0000   YZ=             -0.0000

  Exact polarizability:      31.903       0.000       2.024      -0.000       0.000       2.024
 Approx polarizability:      36.682       0.000       1.922      -0.000      -0.000       1.922

 ******    2 imaginary frequencies (negative Signs) ******

                      1                      2                      3
                      A                      A                      A
 Frequencies --   -479.2351              -107.6875               176.5281
 Red. masses --      1.0527                 1.0589                 1.0215
 Frc consts  --      0.1424                 0.0072                 0.0188
 IR Inten    --     58.8190                 0.2671                 3.3158

                      4
                      A
 Frequencies --    176.5281
 Red. masses --      1.0215
 Frc consts  --      0.0188
 IR Inten    --      3.3158

 - Thermochemistry -
 -------------------
 Temperature   298.150 Kelvin.  Pressure   1.00000 Atm.
 Atom     1 has atomic number  1 and mass   1.00783

 Molecular mass:    21.01405 amu.
 Principal axes and moments of inertia in atomic units:
                           1         2         3
     Eigenvalues --     0.00000 158.04495 158.04495
           X            1.00000  -0.00000   0.00000
           Y            0.00000   1.00000   0.00000
           Z            0.00000   0.00000   1.00000
 This molecule is a prolate symmetric top.
 Rotational symmetry number  1.
 Rotational temperature (Kelvin)      0.54803
 Rotational constant (GHZ):          11.419164
    2 imaginary frequencies ignored.
 Zero-point vibrational energy       2111.7 (Joules/Mol)
                                    0.50472 (Kcal/Mol)
 Warning -- explicit consideration of   2 degrees of freedom as
           vibrations may cause significant error
 Vibrational temperatures:    253.98   253.98
          (Kelvin)

 Zero-point correction=                           0.000804 (Hartree/Particle)
 Thermal correction to Energy=                    0.004362
 Thermal correction to Enthalpy=                  0.005306
 Thermal correction to Gibbs Free Energy=        -0.021149
 Sum of electronic and zero-point Energies=           -100.762511
 Sum of electronic and thermal Energies=              -100.758954
 Sum of electronic and thermal Enthalpies=            -100.758010
 Sum of electronic and thermal Free Energies=         -100.784465

                     E (Thermal)             CV                S
                      KCal/Mol        Cal/Mol-Kelvin    Cal/Mol-Kelvin
 Total                    2.737              8.711             55.680
 Electronic               0.000              0.000              1.377
 Translational            0.889              2.981             35.068
 Rotational               0.592              1.987             14.505
 Vibrational              1.256              3.743              4.730
 Vibration     1          0.628              1.871              2.365
 Vibration     2          0.628              1.871              2.365

 Normal termination of Gaussian 16 at Fri Aug 22 18:35:16 2025.
