 Gaussian 16, Revision C.01,
 Gaussian 16:  ES64L-G16RevC.01  3-Jul-2019

 -----------------------------------------
 # sp b3lyp/6-311g** Force nosymm scf=(qc)
 -----------------------------------------

 -------------------
 Title Card Required
 -------------------
 Symbolic Z-matrix:
 Charge =  0 Multiplicity = 2

                          Input orientation:
 ---------------------------------------------------------------------
 Center     Atomic      Atomic             Coordinates (Angstroms)
 Number     Number       Type             X           Y           Z
 ---------------------------------------------------------------------
      1          1           0        0.000000    0.000000    0.000000
      2          1           0       -4.000000    0.000000    0.000000
      3          9           0        2.950000    0.000000    0.000000
 ---------------------------------------------------------------------

 SCF Done:  E(UB3LYP) =  -100.761177477     a.u. after   22 cycles

 Alpha  occ. eigenvalues --  -24.73889  -1.19964  -0.53008  -0.44510  -0.44510
 Alpha  occ. eigenvalues --   -0.32472
 Alpha virt. eigenvalues --   -0.07880   0.23865   0.36204   0.89485   0.92393
 Alpha virt. eigenvalues --    0.92393   1.04148   1.25024   1.25024   1.25040
 Alpha virt. eigenvalues --    1.44059   1.44059   1.45208   2.14318   2.40801

  Beta  occ. eigenvalues --  -24.70875  -1.11331  -0.41495  -0.41495  -0.33849
  Beta virt. eigenvalues --   -0.24660  -0.05899   0.23761   0.38135   0.93850
  Beta virt. eigenvalues --    0.93850   0.98078   1.07793   1.23466   1.23466
  Beta virt. eigenvalues --    1.24014   1.46667   1.46774   1.46774   2.14245

 Mulliken charges and spin densities:
               1          2
     1  H    0.041068  -0.954218
     2  H    0.000131   0.999396
     3  F   -0.041198   0.954823
 Sum of Mulliken charges =  -0.00000   1.00000

 Dipole moment (field-independent basis, Debye):
    X=             -0.6262    Y=              0.0000    Z=             -0.0000  Tot=              0.6262
 Quadrupole moment (field-independent basis, Debye-Ang):
   XX=             -8.4536   YY=             -7.6022   ZZ=             -7.6022
   XY=              0.0000   XZ=             -0.0000   YZ=              0.0000

  Exact polarizability:      31.011       0.000       2.027      -0.000       0.000       2.027
 Approx polarizability:      32.806       0.000       1.926      -0.000      -0.000       1.926

 ******    2 imaginary frequencies (negative Signs) ******

                      1                      2                      3
                      A                      A                      A
 Frequencies --   -382.1993               -69.3480               134.5153
 Red. masses --      1.0548                 1.0568                 1.0220
 Frc consts  --      0.0908                 0.0030                 0.0109
 IR Inten    --     43.2079                 0.0629                 1.6337

                      4
                      A
 Frequencies --    134.5153
 Red. masses --      1.0220
 Frc consts  --      0.0109
 IR Inten    --      1.6337

 - Thermochemistry -
 -------------------
 Temperature   298.150 Kelvin.  Pressure   1.00000 Atm.
 Atom     1 has atomic number  1 and mass   1.00783

 Molecular mass:    21.01405 amu.
 Principal axes and moments of inertia in atomic units:
                           1         2         3
     Eigenvalues --     0.00000 188.24428 188.24428
           X            1.00000  -0.00000   0.00000
           Y            0.00000   1.00000   0.00000
           Z            0.00000   0.00000   1.00000
 This molecule is a prolate symmetric top.
 Rotational symmetry number  1.
 Rotational temperature (Kelvin)      0.46011
 Rotational constant (GHZ):           9.587230
    2 imaginary frequencies ignored.
 Zero-point vibrational energy       1609.2 (Joules/Mol)
                                    0.38460 (Kcal/Mol)
 Warning -- explicit consideration of   2 degrees of freedom as
           vibrations may cause significant error
 Vibrational temperatures:    193.54   193.54
          (Kelvin)

 Zero-point correction=                           0.000613 (Hartree/Particle)
 Thermal correction to Energy=                    0.004315
 Thermal correction to Enthalpy=                  0.005259
 Thermal correction to Gibbs Free Energy=        -0.021851
 Sum of electronic and zero-point Energies=           -100.760565
 Sum of electronic and thermal Energies=              -100.756863
 Sum of electronic and thermal Enthalpies=            -100.755919
 Sum of electronic and thermal Free Energies=         -100.783029

                     E (Thermal)             CV                S
                      KCal/Mol        Cal/Mol-Kelvin    Cal/Mol-Kelvin
 Total                    2.708              8.806             57.058
 Electronic               0.000              0.000              1.377
 Translational            0.889              2.981             35.068
 Rotational               0.592              1.987             14.852
 Vibrational              1.226              3.838              5.761
 Vibration     1          0.613              1.919              2.880
 Vibration     2          0.613              1.919              2.880

 Normal termination of Gaussian 16 at Fri Aug 22 19:19:29 2025.
