 Gaussian 16, Revision C.01,
 Gaussian 16:  ES64L-G16RevC.01  3-Jul-2019

 -----------------------------------------
 # sp b3lyp/6-311g** Force nosymm scf=(qc)
 -----------------------------------------

 -------------------
 Title Card Required
 -------------------
 Symbolic Z-matrix:
 Charge =  0 Multiplicity = 2

                          Input orientation:
 ---------------------------------------------------------------------
 Center     Atomic      Atomic             Coordinates (Angstroms)
 Number     Number       Type             X           Y           Z
 ---------------------------------------------------------------------
      1          1           0        0.000000    0.000000    0.000000
      2          1           0       -1.350000    0.000000    0.000000
      3          9           0        0.500000    0.000000    0.000000
 ---------------------------------------------------------------------

 SCF Done:  E(UB3LYP) =  -100.253172922     a.u. after    6 cycles

 Alpha  occ. eigenvalues --  -24.63728  -1.43585  -0.64872  -0.45068  -0.45068
 Alpha  occ. eigenvalues --   -0.35157
 Alpha virt. eigenvalues --    0.15224   0.21563   0.69701   0.88094   0.88747
 Alpha virt. eigenvalues --    0.88747   1.16467   1.16467   1.48316   1.65661
 Alpha virt. eigenvalues --    1.65661   1.74951   2.00260   2.31783   3.75950

  Beta  occ. eigenvalues --  -24.63598  -1.43138  -0.64348  -0.44983  -0.44983
  Beta virt. eigenvalues --   -0.11010   0.16189   0.30290   0.75426   0.88248
  Beta virt. eigenvalues --    0.89138   0.89138   1.30190   1.30190   1.49588
  Beta virt. eigenvalues --    1.69471   1.69471   1.85345   2.04537   2.54627

 Mulliken charges and spin densities:
               1          2
     1  H    0.116302   0.011719
     2  H    0.001533   0.984570
     3  F   -0.117835   0.003711
 Sum of Mulliken charges =   0.00000   1.00000

 Dipole moment (field-independent basis, Debye):
    X=             -1.1753    Y=              0.0000    Z=              0.0000  Tot=              1.1753
 Quadrupole moment (field-independent basis, Debye-Ang):
   XX=             -6.7373   YY=             -6.3531   ZZ=             -6.3531
   XY=              0.0000   XZ=              0.0000   YZ=             -0.0000

  Exact polarizability:       5.602      -0.000       2.483       0.000      -0.000       2.483
 Approx polarizability:       5.275      -0.000       2.512      -0.000       0.000       2.512

 ******    2 imaginary frequencies (negative Signs) ******

                      1                      2                      3
                      A                      A                      A
 Frequencies --  -9362.1316             -9362.1316              1264.9063
 Red. masses --      1.0329                 1.0329                 1.0535
 Frc consts  --     53.3413                53.3413                 0.9931
 IR Inten    --    200.5378               200.5378                20.9931

                      4
                      A
 Frequencies --  19165.8234
 Red. masses --      1.0581
 Frc consts  --    228.9945
 IR Inten    --     61.9392

 - Thermochemistry -
 -------------------
 Temperature   298.150 Kelvin.  Pressure   1.00000 Atm.
 Atom     1 has atomic number  1 and mass   1.00783

 Molecular mass:    21.01405 amu.
 Principal axes and moments of inertia in atomic units:
                           1         2         3
     Eigenvalues --     0.00000  12.26414  12.26414
           X            1.00000  -0.00000   0.00000
           Y            0.00000   1.00000   0.00000
           Z            0.00000   0.00000   1.00000
 This molecule is a prolate symmetric top.
 Rotational symmetry number  1.
 Rotational temperature (Kelvin)      7.06237
 Rotational constant (GHZ):         147.155986
    2 imaginary frequencies ignored.
 Zero-point vibrational energy     122202.9 (Joules/Mol)
                                   29.20719 (Kcal/Mol)
 Vibrational temperatures:   1819.92 27575.35
          (Kelvin)

 Zero-point correction=                           0.046545 (Hartree/Particle)
 Thermal correction to Energy=                    0.048918
 Thermal correction to Enthalpy=                  0.049862
 Thermal correction to Gibbs Free Energy=         0.028053
 Sum of electronic and zero-point Energies=           -100.206628
 Sum of electronic and thermal Energies=              -100.204255
 Sum of electronic and thermal Enthalpies=            -100.203311
 Sum of electronic and thermal Free Energies=         -100.225120

                     E (Thermal)             CV                S
                      KCal/Mol        Cal/Mol-Kelvin    Cal/Mol-Kelvin
 Total                   30.697              5.134             45.902
 Electronic               0.000              0.000              1.377
 Translational            0.889              2.981             35.068
 Rotational               0.592              1.987              9.425
 Vibrational             29.215              0.166              0.032

 Normal termination of Gaussian 16 at Fri Aug 22 15:36:27 2025.
