 Gaussian 16, Revision C.01,
 Gaussian 16:  ES64L-G16RevC.01  3-Jul-2019

 -----------------------------------------
 # sp b3lyp/6-311g** Force nosymm scf=(qc)
 -----------------------------------------

 -------------------
 Title Card Required
 -------------------
 Symbolic Z-matrix:
 Charge =  0 Multiplicity = 2

                          Input orientation:
 ---------------------------------------------------------------------
 Center     Atomic      Atomic             Coordinates (Angstroms)
 Number     Number       Type             X           Y           Z
 ---------------------------------------------------------------------
      1          1           0        0.000000    0.000000    0.000000
      2          1           0       -2.100000    0.000000    0.000000
      3          9           0        0.500000    0.000000    0.000000
 ---------------------------------------------------------------------

 SCF Done:  E(UB3LYP) =  -100.268452691     a.u. after    6 cycles

 Alpha  occ. eigenvalues --  -24.63006  -1.42338  -0.63551  -0.44303  -0.44303
 Alpha  occ. eigenvalues --   -0.34742
 Alpha virt. eigenvalues --    0.11177   0.24690   0.58247   0.89494   0.90176
 Alpha virt. eigenvalues --    0.90176   1.21434   1.22789   1.22789   1.56763
 Alpha virt. eigenvalues --    1.58541   1.58541   2.01672   2.21493   3.76665

  Beta  occ. eigenvalues --  -24.62988  -1.42281  -0.63502  -0.44296  -0.44296
  Beta virt. eigenvalues --   -0.09023   0.12522   0.36350   0.59259   0.89620
  Beta virt. eigenvalues --    0.90154   0.90154   1.32170   1.43767   1.43767
  Beta virt. eigenvalues --    1.58519   1.58519   1.65064   2.06753   2.46578

 Mulliken charges and spin densities:
               1          2
     1  H    0.103776   0.009010
     2  H    0.008191   0.989876
     3  F   -0.111966   0.001114
 Sum of Mulliken charges =   0.00000   1.00000

 Dipole moment (field-independent basis, Debye):
    X=             -1.3553    Y=              0.0000    Z=             -0.0000  Tot=              1.3553
 Quadrupole moment (field-independent basis, Debye-Ang):
   XX=             -6.4559   YY=             -6.4167   ZZ=             -6.4167
   XY=              0.0000   XZ=             -0.0000   YZ=              0.0000

  Exact polarizability:       5.032       0.000       2.446      -0.000       0.000       2.446
 Approx polarizability:       4.854      -0.000       2.435       0.000      -0.000       2.435

 ******    2 imaginary frequencies (negative Signs) ******

                      1                      2                      3
                      A                      A                      A
 Frequencies --  -9500.0529             -9500.0529               339.6181
 Red. masses --      1.0396                 1.0396                 1.0533
 Frc consts  --     55.2810                55.2810                 0.0716
 IR Inten    --    247.3661               247.3661                 0.0030

                      4
                      A
 Frequencies --  19158.3122
 Red. masses --      1.0583
 Frc consts  --    228.8605
 IR Inten    --     86.6836

 - Thermochemistry -
 -------------------
 Temperature   298.150 Kelvin.  Pressure   1.00000 Atm.
 Atom     1 has atomic number  1 and mass   1.00783

 Molecular mass:    21.01405 amu.
 Principal axes and moments of inertia in atomic units:
                           1         2         3
     Eigenvalues --     0.00000  23.57030  23.57030
           X            1.00000  -0.00000   0.00000
           Y            0.00000   1.00000   0.00000
           Z            0.00000   0.00000   1.00000
 This molecule is a prolate symmetric top.
 Rotational symmetry number  1.
 Rotational temperature (Kelvin)      3.67471
 Rotational constant (GHZ):          76.568453
    2 imaginary frequencies ignored.
 Zero-point vibrational energy     116623.5 (Joules/Mol)
                                   27.87369 (Kcal/Mol)
 Warning -- explicit consideration of   1 degrees of freedom as
           vibrations may cause significant error
 Vibrational temperatures:    488.63 27564.54
          (Kelvin)

 Zero-point correction=                           0.044420 (Hartree/Particle)
 Thermal correction to Energy=                    0.047153
 Thermal correction to Enthalpy=                  0.048097
 Thermal correction to Gibbs Free Energy=         0.025109
 Sum of electronic and zero-point Energies=           -100.224033
 Sum of electronic and thermal Energies=              -100.221300
 Sum of electronic and thermal Enthalpies=            -100.220356
 Sum of electronic and thermal Free Energies=         -100.243344

                     E (Thermal)             CV                S
                      KCal/Mol        Cal/Mol-Kelvin    Cal/Mol-Kelvin
 Total                   29.589              6.564             48.383
 Electronic               0.000              0.000              1.377
 Translational            0.889              2.981             35.068
 Rotational               0.592              1.987             10.723
 Vibrational             28.108              1.596              1.214
 Vibration     1          0.720              1.596              1.214

 Normal termination of Gaussian 16 at Fri Aug 22 15:36:59 2025.
