 Gaussian 16, Revision C.01,
 Gaussian 16:  ES64L-G16RevC.01  3-Jul-2019

 -----------------------------------------
 # sp b3lyp/6-311g** Force nosymm scf=(qc)
 -----------------------------------------

 -------------------
 Title Card Required
 -------------------
 Symbolic Z-matrix:
 Charge =  0 Multiplicity = 2

                          Input orientation:
 ---------------------------------------------------------------------
 Center     Atomic      Atomic             Coordinates (Angstroms)
 Number     Number       Type             X           Y           Z
 ---------------------------------------------------------------------
      1          1           0        0.000000    0.000000    0.000000
      2          1           0       -1.800000    0.000000    0.000000
      3          9           0        2.650000    0.000000    0.000000
 ---------------------------------------------------------------------

 SCF Done:  E(UB3LYP) =  -100.790643647     a.u. after   24 cycles

 Alpha  occ. eigenvalues --  -24.73059  -1.19184  -0.52184  -0.43811  -0.43811
 Alpha  occ. eigenvalues --   -0.34813
 Alpha virt. eigenvalues --   -0.12294   0.24770   0.31140   0.90068   0.92871
 Alpha virt. eigenvalues --    0.92871   1.04546   1.12655   1.22740   1.22740
 Alpha virt. eigenvalues --    1.35560   1.35560   1.59378   2.13037   2.38946

  Beta  occ. eigenvalues --  -24.70118  -1.10782  -0.40873  -0.40873  -0.34705
  Beta virt. eigenvalues --   -0.24388  -0.11671   0.26239   0.30906   0.94292
  Beta virt. eigenvalues --    0.94292   0.97535   1.07121   1.15270   1.22942
  Beta virt. eigenvalues --    1.22942   1.36367   1.36367   1.60038   2.14070

 Mulliken charges and spin densities:
               1          2
     1  H    0.029780  -0.676363
     2  H    0.030142   0.745847
     3  F   -0.059922   0.930516
 Sum of Mulliken charges =   0.00000   1.00000

 Dipole moment (field-independent basis, Debye):
    X=             -1.0701    Y=             -0.0000    Z=             -0.0000  Tot=              1.0701
 Quadrupole moment (field-independent basis, Debye-Ang):
   XX=             -7.5144   YY=             -7.7024   ZZ=             -7.7024
   XY=              0.0000   XZ=              0.0000   YZ=             -0.0000

  Exact polarizability:      63.463       0.000       2.010       0.000       0.000       2.010
 Approx polarizability:      71.947       0.000       1.951       0.000       0.000       1.951

 ******    2 imaginary frequencies (negative Signs) ******

                      1                      2                      3
                      A                      A                      A
 Frequencies --  -1745.4742              -328.2238               756.1918
 Red. masses --      1.0082                 1.1081                 1.0139
 Frc consts  --      1.8098                 0.0703                 0.3416
 IR Inten    --    137.7242                45.3548                 0.2417

                      4
                      A
 Frequencies --    756.1918
 Red. masses --      1.0139
 Frc consts  --      0.3416
 IR Inten    --      0.2417

 - Thermochemistry -
 -------------------
 Temperature   298.150 Kelvin.  Pressure   1.00000 Atm.
 Atom     1 has atomic number  1 and mass   1.00783

 Molecular mass:    21.01405 amu.
 Principal axes and moments of inertia in atomic units:
                           1         2         3
     Eigenvalues --     0.00000  87.84229  87.84229
           X            1.00000  -0.00000   0.00000
           Y            0.00000   1.00000   0.00000
           Z            0.00000   0.00000   1.00000
 This molecule is a prolate symmetric top.
 Rotational symmetry number  1.
 Rotational temperature (Kelvin)      0.98602
 Rotational constant (GHZ):          20.545243
    2 imaginary frequencies ignored.
 Zero-point vibrational energy       9046.1 (Joules/Mol)
                                    2.16206 (Kcal/Mol)
 Vibrational temperatures:   1087.99  1087.99
          (Kelvin)

 Zero-point correction=                           0.003445 (Hartree/Particle)
 Thermal correction to Energy=                    0.005990
 Thermal correction to Enthalpy=                  0.006934
 Thermal correction to Gibbs Free Energy=        -0.016953
 Sum of electronic and zero-point Energies=           -100.787198
 Sum of electronic and thermal Energies=              -100.784654
 Sum of electronic and thermal Enthalpies=            -100.783709
 Sum of electronic and thermal Free Energies=         -100.807597

                     E (Thermal)             CV                S
                      KCal/Mol        Cal/Mol-Kelvin    Cal/Mol-Kelvin
 Total                    3.759              6.419             50.275
 Electronic               0.000              0.000              1.377
 Translational            0.889              2.981             35.068
 Rotational               0.592              1.987             13.337
 Vibrational              2.278              1.451              0.492

 Normal termination of Gaussian 16 at Fri Aug 22 18:14:06 2025.
