 Gaussian 16, Revision C.01,
 Gaussian 16:  ES64L-G16RevC.01  3-Jul-2019

 -----------------------------------------
 # sp b3lyp/6-311g** Force nosymm scf=(qc)
 -----------------------------------------

 -------------------
 Title Card Required
 -------------------
 Symbolic Z-matrix:
 Charge =  0 Multiplicity = 2

                          Input orientation:
 ---------------------------------------------------------------------
 Center     Atomic      Atomic             Coordinates (Angstroms)
 Number     Number       Type             X           Y           Z
 ---------------------------------------------------------------------
      1          1           0        0.000000    0.000000    0.000000
      2          1           0       -1.950000    0.000000    0.000000
      3          9           0        2.900000    0.000000    0.000000
 ---------------------------------------------------------------------

 SCF Done:  E(UB3LYP) =  -100.779228616     a.u. after   21 cycles

 Alpha  occ. eigenvalues --  -24.74007  -1.20067  -0.53126  -0.44606  -0.44606
 Alpha  occ. eigenvalues --   -0.33968
 Alpha virt. eigenvalues --   -0.11953   0.25339   0.31604   0.89965   0.92320
 Alpha virt. eigenvalues --    0.92320   1.04543   1.15125   1.23978   1.23978
 Alpha virt. eigenvalues --    1.36331   1.36331   1.52199   2.12325   2.37102

  Beta  occ. eigenvalues --  -24.70992  -1.11430  -0.41589  -0.41589  -0.34069
  Beta virt. eigenvalues --   -0.24821  -0.11330   0.26056   0.31962   0.93775
  Beta virt. eigenvalues --    0.93775   0.98520   1.08322   1.15421   1.23827
  Beta virt. eigenvalues --    1.23827   1.37274   1.37274   1.52925   2.13495

 Mulliken charges and spin densities:
               1          2
     1  H    0.020798  -0.793353
     2  H    0.018494   0.838207
     3  F   -0.039292   0.955146
 Sum of Mulliken charges =  -0.00000   1.00000

 Dipole moment (field-independent basis, Debye):
    X=             -0.7559    Y=              0.0000    Z=             -0.0000  Tot=              0.7559
 Quadrupole moment (field-independent basis, Debye-Ang):
   XX=             -7.4106   YY=             -7.7104   ZZ=             -7.7104
   XY=              0.0000   XZ=             -0.0000   YZ=              0.0000

  Exact polarizability:      60.802       0.000       2.005      -0.000       0.000       2.005
 Approx polarizability:      59.022       0.000       1.935      -0.000      -0.000       1.935

 ******    2 imaginary frequencies (negative Signs) ******

                      1                      2                      3
                      A                      A                      A
 Frequencies --  -1460.9613              -264.4176               598.4121
 Red. masses --      1.0080                 1.1083                 1.0139
 Frc consts  --      1.2677                 0.0457                 0.2139
 IR Inten    --     54.7010                33.8317                 0.1506

                      4
                      A
 Frequencies --    598.4121
 Red. masses --      1.0139
 Frc consts  --      0.2139
 IR Inten    --      0.1506

 - Thermochemistry -
 -------------------
 Temperature   298.150 Kelvin.  Pressure   1.00000 Atm.
 Atom     1 has atomic number  1 and mass   1.00783

 Molecular mass:    21.01405 amu.
 Principal axes and moments of inertia in atomic units:
                           1         2         3
     Eigenvalues --     0.00000 104.55814 104.55814
           X            1.00000  -0.00000   0.00000
           Y            0.00000   1.00000   0.00000
           Z            0.00000   0.00000   1.00000
 This molecule is a prolate symmetric top.
 Rotational symmetry number  1.
 Rotational temperature (Kelvin)      0.82838
 Rotational constant (GHZ):          17.260648
    2 imaginary frequencies ignored.
 Zero-point vibrational energy       7158.6 (Joules/Mol)
                                    1.71095 (Kcal/Mol)
 Warning -- explicit consideration of   2 degrees of freedom as
           vibrations may cause significant error
 Vibrational temperatures:    860.98   860.98
          (Kelvin)

 Zero-point correction=                           0.002727 (Hartree/Particle)
 Thermal correction to Energy=                    0.005409
 Thermal correction to Enthalpy=                  0.006353
 Thermal correction to Gibbs Free Energy=        -0.017895
 Sum of electronic and zero-point Energies=           -100.776502
 Sum of electronic and thermal Energies=              -100.773820
 Sum of electronic and thermal Enthalpies=            -100.772876
 Sum of electronic and thermal Free Energies=         -100.797124

                     E (Thermal)             CV                S
                      KCal/Mol        Cal/Mol-Kelvin    Cal/Mol-Kelvin
 Total                    3.394              7.038             51.034
 Electronic               0.000              0.000              1.377
 Translational            0.889              2.981             35.068
 Rotational               0.592              1.987             13.684
 Vibrational              1.913              2.070              0.905
 Vibration     1          0.956              1.035              0.452
 Vibration     2          0.956              1.035              0.452

 Normal termination of Gaussian 16 at Fri Aug 22 19:03:04 2025.
