 Gaussian 16, Revision C.01,
 Gaussian 16:  ES64L-G16RevC.01  3-Jul-2019

 -----------------------------------------
 # sp b3lyp/6-311g** Force nosymm scf=(qc)
 -----------------------------------------

 -------------------
 Title Card Required
 -------------------
 Symbolic Z-matrix:
 Charge =  0 Multiplicity = 2

                          Input orientation:
 ---------------------------------------------------------------------
 Center     Atomic      Atomic             Coordinates (Angstroms)
 Number     Number       Type             X           Y           Z
 ---------------------------------------------------------------------
      1          1           0        0.000000    0.000000    0.000000
      2          1           0       -0.500000    0.000000    0.000000
      3          9           0        2.800000    0.000000    0.000000
 ---------------------------------------------------------------------

 SCF Done:  E(UB3LYP) =  -100.862274846     a.u. after  223 cycles

 Alpha  occ. eigenvalues --  -24.76646  -1.22429  -0.55620  -0.49236  -0.46768
 Alpha  occ. eigenvalues --   -0.46678
 Alpha virt. eigenvalues --    0.10684   0.18709   0.56962   0.85859   0.90729
 Alpha virt. eigenvalues --    0.93883   1.10119   1.12247   1.12258   1.62080
 Alpha virt. eigenvalues --    1.85947   1.99782   1.99796   2.37351   3.64656

  Beta  occ. eigenvalues --  -24.73483  -1.13338  -0.49153  -0.43596  -0.43585
  Beta virt. eigenvalues --   -0.26236   0.10767   0.18763   0.57087   0.92227
  Beta virt. eigenvalues --    0.95313   0.95819   1.12247   1.12257   1.13609
  Beta virt. eigenvalues --    1.62108   1.85970   1.99781   1.99795   2.37360

 Mulliken charges and spin densities:
               1          2
     1  H   -0.011558  -0.002402
     2  H   -0.001025   0.000554
     3  F    0.012582   1.001847
 Sum of Mulliken charges =   0.00000   1.00000

 Dipole moment (field-independent basis, Debye):
    X=              0.1057    Y=              0.0000    Z=             -0.0000  Tot=              0.1057
 Quadrupole moment (field-independent basis, Debye-Ang):
   XX=             -5.9435   YY=             -6.4225   ZZ=             -5.9094
   XY=             -0.0000   XZ=              0.0000   YZ=             -0.3472

  Exact polarizability:       5.912       0.000       1.908       0.000      -0.183       2.179
 Approx polarizability:       6.158      -0.000       2.014       0.000      -0.229       2.353

 ******    2 imaginary frequencies (negative Signs) ******

                      1                      2                      3
                      A                      A                      A
 Frequencies --  -4820.7766             -4820.2593               108.7873
 Red. masses --      1.0085                 1.0085                 1.1085
 Frc consts  --     13.8089                13.8060                 0.0077
 IR Inten    --      0.1112                 0.1167                 0.1678

                      4
                      A
 Frequencies --   9960.2909
 Red. masses --      1.0078
 Frc consts  --     58.9087
 IR Inten    --      0.5168

 - Thermochemistry -
 -------------------
 Temperature   298.150 Kelvin.  Pressure   1.00000 Atm.
 Atom     1 has atomic number  1 and mass   1.00783

 Molecular mass:    21.01405 amu.
 Principal axes and moments of inertia in atomic units:
                           1         2         3
     Eigenvalues --     0.00000  60.98673  60.98673
           X            1.00000  -0.00000   0.00000
           Y            0.00000   1.00000   0.00000
           Z            0.00000   0.00000   1.00000
 This molecule is a prolate symmetric top.
 Rotational symmetry number  1.
 Rotational temperature (Kelvin)      1.42021
 Rotational constant (GHZ):          29.592361
    2 imaginary frequencies ignored.
 Zero-point vibrational energy      60226.5 (Joules/Mol)
                                   14.39447 (Kcal/Mol)
 Warning -- explicit consideration of   1 degrees of freedom as
           vibrations may cause significant error
 Vibrational temperatures:    156.52 14330.64
          (Kelvin)

 Zero-point correction=                           0.022939 (Hartree/Particle)
 Thermal correction to Energy=                    0.026017
 Thermal correction to Enthalpy=                  0.026962
 Thermal correction to Gibbs Free Energy=         0.002089
 Sum of electronic and zero-point Energies=           -100.839336
 Sum of electronic and thermal Energies=              -100.836257
 Sum of electronic and thermal Enthalpies=            -100.835313
 Sum of electronic and thermal Free Energies=         -100.860186

                     E (Thermal)             CV                S
                      KCal/Mol        Cal/Mol-Kelvin    Cal/Mol-Kelvin
 Total                   16.326              6.910             52.348
 Electronic               0.000              0.000              1.377
 Translational            0.889              2.981             35.068
 Rotational               0.592              1.987             12.612
 Vibrational             14.845              1.942              3.290
 Vibration     1          0.606              1.942              3.290

 Normal termination of Gaussian 16 at Fri Aug 22 18:36:26 2025.
