 Gaussian 16, Revision C.01,
 Gaussian 16:  ES64L-G16RevC.01  3-Jul-2019

 -----------------------------------------
 # sp b3lyp/6-311g** Force nosymm scf=(qc)
 -----------------------------------------

 -------------------
 Title Card Required
 -------------------
 Symbolic Z-matrix:
 Charge =  0 Multiplicity = 2

                          Input orientation:
 ---------------------------------------------------------------------
 Center     Atomic      Atomic             Coordinates (Angstroms)
 Number     Number       Type             X           Y           Z
 ---------------------------------------------------------------------
      1          1           0        0.000000    0.000000    0.000000
      2          1           0       -2.200000    0.000000    0.000000
      3          9           0        2.400000    0.000000    0.000000
 ---------------------------------------------------------------------

 SCF Done:  E(UB3LYP) =  -100.778155890     a.u. after   16 cycles

 Alpha  occ. eigenvalues --  -24.71133  -1.17370  -0.50225  -0.42186  -0.42186
 Alpha  occ. eigenvalues --   -0.34622
 Alpha virt. eigenvalues --   -0.12825   0.24793   0.32405   0.89742   0.93955
 Alpha virt. eigenvalues --    0.93955   1.06430   1.23205   1.23205   1.26286
 Alpha virt. eigenvalues --    1.35767   1.35767   1.45285   2.12285   2.32399

  Beta  occ. eigenvalues --  -24.68348  -1.09460  -0.39413  -0.39413  -0.35601
  Beta virt. eigenvalues --   -0.23056  -0.10963   0.26373   0.33160   0.95269
  Beta virt. eigenvalues --    0.95269   0.95906   1.09217   1.22421   1.22421
  Beta virt. eigenvalues --    1.31622   1.38784   1.38784   1.44504   2.12481

 Mulliken charges and spin densities:
               1          2
     1  H    0.079974  -0.808908
     2  H    0.023205   0.929627
     3  F   -0.103179   0.879281
 Sum of Mulliken charges =   0.00000   1.00000

 Dipole moment (field-independent basis, Debye):
    X=             -1.5001    Y=              0.0000    Z=              0.0000  Tot=              1.5001
 Quadrupole moment (field-independent basis, Debye-Ang):
   XX=             -8.6166   YY=             -7.6241   ZZ=             -7.6241
   XY=              0.0000   XZ=              0.0000   YZ=             -0.0000

  Exact polarizability:      51.891       0.000       2.015       0.000      -0.000       2.015
 Approx polarizability:      55.238       0.000       1.923       0.000       0.000       1.923

 ******    2 imaginary frequencies (negative Signs) ******

                      1                      2                      3
                      A                      A                      A
 Frequencies --  -1122.0252              -415.2605               449.4561
 Red. masses --      1.0130                 1.1023                 1.0169
 Frc consts  --      0.7514                 0.1120                 0.1210
 IR Inten    --     54.4736                44.4433                 4.4339

                      4
                      A
 Frequencies --    449.4561
 Red. masses --      1.0169
 Frc consts  --      0.1210
 IR Inten    --      4.4339

 - Thermochemistry -
 -------------------
 Temperature   298.150 Kelvin.  Pressure   1.00000 Atm.
 Atom     1 has atomic number  1 and mass   1.00783

 Molecular mass:    21.01405 amu.
 Principal axes and moments of inertia in atomic units:
                           1         2         3
     Eigenvalues --     0.00000  88.42757  88.42757
           X            1.00000  -0.00000   0.00000
           Y            0.00000   1.00000   0.00000
           Z            0.00000   0.00000   1.00000
 This molecule is a prolate symmetric top.
 Rotational symmetry number  1.
 Rotational temperature (Kelvin)      0.97949
 Rotational constant (GHZ):          20.409259
    2 imaginary frequencies ignored.
 Zero-point vibrational energy       5376.7 (Joules/Mol)
                                    1.28506 (Kcal/Mol)
 Warning -- explicit consideration of   2 degrees of freedom as
           vibrations may cause significant error
 Vibrational temperatures:    646.67   646.67
          (Kelvin)

 Zero-point correction=                           0.002048 (Hartree/Particle)
 Thermal correction to Energy=                    0.004937
 Thermal correction to Enthalpy=                  0.005881
 Thermal correction to Gibbs Free Energy=        -0.018536
 Sum of electronic and zero-point Energies=           -100.776108
 Sum of electronic and thermal Energies=              -100.773219
 Sum of electronic and thermal Enthalpies=            -100.772275
 Sum of electronic and thermal Free Energies=         -100.796692

                     E (Thermal)             CV                S
                      KCal/Mol        Cal/Mol-Kelvin    Cal/Mol-Kelvin
 Total                    3.098              7.692             51.391
 Electronic               0.000              0.000              1.377
 Translational            0.889              2.981             35.068
 Rotational               0.592              1.987             13.351
 Vibrational              1.617              2.724              1.595
 Vibration     1          0.808              1.362              0.797
 Vibration     2          0.808              1.362              0.797

 Normal termination of Gaussian 16 at Fri Aug 22 17:32:21 2025.
