 Gaussian 16, Revision C.01,
 Gaussian 16:  ES64L-G16RevC.01  3-Jul-2019

 -----------------------------------------
 # sp b3lyp/6-311g** Force nosymm scf=(qc)
 -----------------------------------------

 -------------------
 Title Card Required
 -------------------
 Symbolic Z-matrix:
 Charge =  0 Multiplicity = 2

                          Input orientation:
 ---------------------------------------------------------------------
 Center     Atomic      Atomic             Coordinates (Angstroms)
 Number     Number       Type             X           Y           Z
 ---------------------------------------------------------------------
      1          1           0        0.000000    0.000000    0.000000
      2          1           0       -1.850000    0.000000    0.000000
      3          9           0        3.600000    0.000000    0.000000
 ---------------------------------------------------------------------

 SCF Done:  E(UB3LYP) =  -100.782598372     a.u. after  100 cycles

 Alpha  occ. eigenvalues --  -24.75908  -1.21832  -0.55024  -0.46220  -0.46213
 Alpha  occ. eigenvalues --   -0.33099
 Alpha virt. eigenvalues --   -0.10962   0.25867   0.31520   0.86868   0.91130
 Alpha virt. eigenvalues --    0.91424   1.01367   1.11549   1.24718   1.24719
 Alpha virt. eigenvalues --    1.37517   1.37518   1.58429   2.14151   2.38577

  Beta  occ. eigenvalues --  -24.72770  -1.12809  -0.43077  -0.43067  -0.33102
  Beta virt. eigenvalues --   -0.25815  -0.10880   0.25787   0.31770   0.92627
  Beta virt. eigenvalues --    0.92828   0.96250   1.05452   1.11563   1.24707
  Beta virt. eigenvalues --    1.24708   1.37625   1.37625   1.58532   2.14532

 Mulliken charges and spin densities:
               1          2
     1  H    0.000149  -0.760589
     2  H    0.003516   0.765617
     3  F   -0.003666   0.994972
 Sum of Mulliken charges =   0.00000   1.00000

 Dipole moment (field-independent basis, Debye):
    X=             -0.1017    Y=             -0.0009    Z=              0.0002  Tot=              0.1017
 Quadrupole moment (field-independent basis, Debye-Ang):
   XX=             -6.4391   YY=             -7.5006   ZZ=             -7.7374
   XY=             -0.3868   XZ=              0.0878   YZ=             -0.0567

  Exact polarizability:      42.057      -0.189       2.144       0.142      -0.032       2.012
 Approx polarizability:      38.819      -0.231       2.121       0.052      -0.038       1.962

 ******    2 imaginary frequencies (negative Signs) ******

                      1                      2                      3
                      A                      A                      A
 Frequencies --  -1638.8853              -103.3472               710.2409
 Red. masses --      1.0078                 1.1085                 1.0119
 Frc consts  --      1.5949                 0.0070                 0.3007
 IR Inten    --     14.6206                 3.5654                 0.1059

                      4
                      A
 Frequencies --    710.3691
 Red. masses --      1.0119
 Frc consts  --      0.3008
 IR Inten    --      0.0074

 - Thermochemistry -
 -------------------
 Temperature   298.150 Kelvin.  Pressure   1.00000 Atm.
 Atom     1 has atomic number  1 and mass   1.00783

 Molecular mass:    21.01405 amu.
 Principal axes and moments of inertia in atomic units:
                           1         2         3
     Eigenvalues --     0.00000 139.40576 139.40576
           X            1.00000  -0.00000   0.00000
           Y            0.00000   1.00000   0.00000
           Z            0.00000   0.00000   1.00000
 This molecule is a prolate symmetric top.
 Rotational symmetry number  1.
 Rotational temperature (Kelvin)      0.62131
 Rotational constant (GHZ):          12.945958
    2 imaginary frequencies ignored.
 Zero-point vibrational energy       8497.1 (Joules/Mol)
                                    2.03086 (Kcal/Mol)
 Vibrational temperatures:   1021.88  1022.06
          (Kelvin)

 Zero-point correction=                           0.003236 (Hartree/Particle)
 Thermal correction to Energy=                    0.005814
 Thermal correction to Enthalpy=                  0.006758
 Thermal correction to Gibbs Free Energy=        -0.017611
 Sum of electronic and zero-point Energies=           -100.779362
 Sum of electronic and thermal Energies=              -100.776784
 Sum of electronic and thermal Enthalpies=            -100.775840
 Sum of electronic and thermal Free Energies=         -100.800209

                     E (Thermal)             CV                S
                      KCal/Mol        Cal/Mol-Kelvin    Cal/Mol-Kelvin
 Total                    3.648              6.587             51.289
 Electronic               0.000              0.000              1.377
 Translational            0.889              2.981             35.068
 Rotational               0.592              1.987             14.255
 Vibrational              2.167              1.619              0.588

 Normal termination of Gaussian 16 at Fri Aug 22 23:05:08 2025.
