 Gaussian 16, Revision C.01,
 Gaussian 16:  ES64L-G16RevC.01  3-Jul-2019

 -----------------------------------------
 # sp b3lyp/6-311g** Force nosymm scf=(qc)
 -----------------------------------------

 -------------------
 Title Card Required
 -------------------
 Symbolic Z-matrix:
 Charge =  0 Multiplicity = 2

                          Input orientation:
 ---------------------------------------------------------------------
 Center     Atomic      Atomic             Coordinates (Angstroms)
 Number     Number       Type             X           Y           Z
 ---------------------------------------------------------------------
      1          1           0        0.000000    0.000000    0.000000
      2          1           0       -2.650000    0.000000    0.000000
      3          9           0        1.050000    0.000000    0.000000
 ---------------------------------------------------------------------

 SCF Done:  E(UB3LYP) =  -100.958617423     a.u. after    6 cycles

 Alpha  occ. eigenvalues --  -24.64143  -1.14793  -0.50568  -0.38345  -0.38345
 Alpha  occ. eigenvalues --   -0.34802
 Alpha virt. eigenvalues --   -0.00149   0.24983   0.32193   0.93895   0.93895
 Alpha virt. eigenvalues --    0.99096   1.21230   1.22742   1.22742   1.34611
 Alpha virt. eigenvalues --    1.35626   1.35626   1.85331   2.13986   2.33618

  Beta  occ. eigenvalues --  -24.64125  -1.14746  -0.50494  -0.38328  -0.38328
  Beta virt. eigenvalues --   -0.09542   0.01578   0.32202   0.37373   0.93897
  Beta virt. eigenvalues --    0.93897   0.99133   1.29773   1.35597   1.35597
  Beta virt. eigenvalues --    1.44901   1.44901   1.48266   1.85542   2.33397

 Mulliken charges and spin densities:
               1          2
     1  H    0.327002   0.001972
     2  H    0.005865   0.992250
     3  F   -0.332867   0.005778
 Sum of Mulliken charges =   0.00000   1.00000

 Dipole moment (field-independent basis, Debye):
    X=             -2.1718    Y=              0.0000    Z=              0.0000  Tot=              2.1718
 Quadrupole moment (field-independent basis, Debye-Ang):
   XX=             -8.1723   YY=             -7.0023   ZZ=             -7.0023
   XY=              0.0000   XZ=              0.0000   YZ=             -0.0000

  Exact polarizability:       9.184       0.000       2.403      -0.000      -0.000       2.403
 Approx polarizability:      10.888       0.000       2.374      -0.000      -0.000       2.374

 ******    1 imaginary frequencies (negative Signs) ******

                      1                      2                      3
                      A                      A                      A
 Frequencies --   -104.2303              1104.5332              1104.5332
 Red. masses --      1.0527                 1.0318                 1.0318
 Frc consts  --      0.0067                 0.7417                 0.7417
 IR Inten    --      0.9187               151.8175               151.8175

                      4
                      A
 Frequencies --   2439.8326
 Red. masses --      1.0588
 Frc consts  --      3.7136
 IR Inten    --    112.6319

 - Thermochemistry -
 -------------------
 Temperature   298.150 Kelvin.  Pressure   1.00000 Atm.
 Atom     1 has atomic number  1 and mass   1.00783

 Molecular mass:    21.01405 amu.
 Principal axes and moments of inertia in atomic units:
                           1         2         3
     Eigenvalues --     0.00000  49.34389  49.34389
           X            1.00000  -0.00000   0.00000
           Y            0.00000   1.00000   0.00000
           Z            0.00000   0.00000   1.00000
 This molecule is a prolate symmetric top.
 Rotational symmetry number  1.
 Rotational temperature (Kelvin)      1.75531
 Rotational constant (GHZ):          36.574765
    1 imaginary frequencies ignored.
 Zero-point vibrational energy      27806.6 (Joules/Mol)
                                    6.64593 (Kcal/Mol)
 Vibrational temperatures:   1589.18  1589.18  3510.37
          (Kelvin)

 Zero-point correction=                           0.010591 (Hartree/Particle)
 Thermal correction to Energy=                    0.013001
 Thermal correction to Enthalpy=                  0.013945
 Thermal correction to Gibbs Free Energy=        -0.009222
 Sum of electronic and zero-point Energies=           -100.948026
 Sum of electronic and thermal Energies=              -100.945617
 Sum of electronic and thermal Enthalpies=            -100.944673
 Sum of electronic and thermal Free Energies=         -100.967840

                     E (Thermal)             CV                S
                      KCal/Mol        Cal/Mol-Kelvin    Cal/Mol-Kelvin
 Total                    8.158              5.522             48.759
 Electronic               0.000              0.000              1.377
 Translational            0.889              2.981             35.068
 Rotational               0.592              1.987             12.191
 Vibrational              6.677              0.554              0.123

 Normal termination of Gaussian 16 at Fri Aug 22 16:03:22 2025.
