 Gaussian 16, Revision C.01,
 Gaussian 16:  ES64L-G16RevC.01  3-Jul-2019

 -----------------------------------------
 # sp b3lyp/6-311g** Force nosymm scf=(qc)
 -----------------------------------------

 -------------------
 Title Card Required
 -------------------
 Symbolic Z-matrix:
 Charge =  0 Multiplicity = 2

                          Input orientation:
 ---------------------------------------------------------------------
 Center     Atomic      Atomic             Coordinates (Angstroms)
 Number     Number       Type             X           Y           Z
 ---------------------------------------------------------------------
      1          1           0        0.000000    0.000000    0.000000
      2          1           0       -1.100000    0.000000    0.000000
      3          9           0        3.300000    0.000000    0.000000
 ---------------------------------------------------------------------

 SCF Done:  E(UB3LYP) =  -100.890020047     a.u. after  219 cycles

 Alpha  occ. eigenvalues --  -24.76479  -1.22328  -0.55524  -0.46735  -0.46677
 Alpha  occ. eigenvalues --   -0.37445
 Alpha virt. eigenvalues --   -0.01780   0.22182   0.36270   0.85899   0.90773
 Alpha virt. eigenvalues --    0.92867   1.02225   1.10852   1.10856   1.29811
 Alpha virt. eigenvalues --    1.59967   1.59971   2.17073   2.34552   2.55628

  Beta  occ. eigenvalues --  -24.73320  -1.13247  -0.43573  -0.43510  -0.37438
  Beta virt. eigenvalues --   -0.26159  -0.01769   0.22196   0.36324   0.92273
  Beta virt. eigenvalues --    0.94426   0.95360   1.06242   1.10852   1.10856
  Beta virt. eigenvalues --    1.29820   1.59966   1.59971   2.17083   2.34556

 Mulliken charges and spin densities:
               1          2
     1  H   -0.000927  -0.000338
     2  H   -0.003964  -0.000257
     3  F    0.004891   1.000595
 Sum of Mulliken charges =  -0.00000   1.00000

 Dipole moment (field-independent basis, Debye):
    X=              0.0662    Y=             -0.0000    Z=              0.0000  Tot=              0.0662
 Quadrupole moment (field-independent basis, Debye-Ang):
   XX=             -6.2087   YY=             -7.2326   ZZ=             -6.6877
   XY=              0.0000   XZ=             -0.0000   YZ=             -0.3353

  Exact polarizability:      14.211       0.000       2.160      -0.000      -0.180       2.452
 Approx polarizability:      19.809       0.000       2.222      -0.000      -0.226       2.588

 ******    1 imaginary frequencies (negative Signs) ******

                      1                      2                      3
                      A                      A                      A
 Frequencies --    -35.7453              1027.0078              1528.0128
 Red. masses --      1.1085                 1.0078                 1.0098
 Frc consts  --      0.0008                 0.6263                 1.3892
 IR Inten    --      0.2479                 0.3089                 0.0003

                      4
                      A
 Frequencies --   1528.8366
 Red. masses --      1.0098
 Frc consts  --      1.3907
 IR Inten    --      0.0004

 - Thermochemistry -
 -------------------
 Temperature   298.150 Kelvin.  Pressure   1.00000 Atm.
 Atom     1 has atomic number  1 and mass   1.00783

 Molecular mass:    21.01405 amu.
 Principal axes and moments of inertia in atomic units:
                           1         2         3
     Eigenvalues --     0.00000  98.63614  98.63614
           X            1.00000  -0.00000   0.00000
           Y            0.00000   1.00000   0.00000
           Z            0.00000   0.00000   1.00000
 This molecule is a prolate symmetric top.
 Rotational symmetry number  1.
 Rotational temperature (Kelvin)      0.87812
 Rotational constant (GHZ):          18.296956
    1 imaginary frequencies ignored.
 Zero-point vibrational energy      24426.9 (Joules/Mol)
                                    5.83817 (Kcal/Mol)
 Vibrational temperatures:   1477.64  2198.47  2199.65
          (Kelvin)

 Zero-point correction=                           0.009304 (Hartree/Particle)
 Thermal correction to Energy=                    0.011706
 Thermal correction to Enthalpy=                  0.012650
 Thermal correction to Gibbs Free Energy=        -0.011162
 Sum of electronic and zero-point Energies=           -100.880716
 Sum of electronic and thermal Energies=              -100.878314
 Sum of electronic and thermal Enthalpies=            -100.877370
 Sum of electronic and thermal Free Energies=         -100.901182

                     E (Thermal)             CV                S
                      KCal/Mol        Cal/Mol-Kelvin    Cal/Mol-Kelvin
 Total                    7.346              5.452             50.118
 Electronic               0.000              0.000              1.377
 Translational            0.889              2.981             35.068
 Rotational               0.592              1.987             13.568
 Vibrational              5.864              0.484              0.105

 Normal termination of Gaussian 16 at Fri Aug 22 20:41:35 2025.
