 Gaussian 16, Revision C.01,
 Gaussian 16:  ES64L-G16RevC.01  3-Jul-2019

 -----------------------------------------
 # sp b3lyp/6-311g** Force nosymm scf=(qc)
 -----------------------------------------

 -------------------
 Title Card Required
 -------------------
 Symbolic Z-matrix:
 Charge =  0 Multiplicity = 2

                          Input orientation:
 ---------------------------------------------------------------------
 Center     Atomic      Atomic             Coordinates (Angstroms)
 Number     Number       Type             X           Y           Z
 ---------------------------------------------------------------------
      1          1           0        0.000000    0.000000    0.000000
      2          1           0       -2.300000    0.000000    0.000000
      3          9           0        3.400000    0.000000    0.000000
 ---------------------------------------------------------------------

 SCF Done:  E(UB3LYP) =  -100.766020074     a.u. after   28 cycles

 Alpha  occ. eigenvalues --  -24.75311  -1.21279  -0.54433  -0.45704  -0.45704
 Alpha  occ. eigenvalues --   -0.32892
 Alpha virt. eigenvalues --   -0.10328   0.25786   0.33492   0.87954   0.91523
 Alpha virt. eigenvalues --    0.91523   1.02054   1.24872   1.24872   1.25235
 Alpha virt. eigenvalues --    1.39749   1.39749   1.43688   2.14689   2.35702

  Beta  occ. eigenvalues --  -24.72205  -1.12354  -0.42591  -0.42591  -0.33151
  Beta virt. eigenvalues --   -0.25468  -0.09827   0.25661   0.34210   0.93010
  Beta virt. eigenvalues --    0.93010   0.97065   1.06074   1.24549   1.24549
  Beta virt. eigenvalues --    1.24883   1.40517   1.40517   1.44401   2.15421

 Mulliken charges and spin densities:
               1          2
     1  H    0.009019  -0.930269
     2  H    0.004346   0.945356
     3  F   -0.013365   0.984913
 Sum of Mulliken charges =   0.00000   1.00000

 Dipole moment (field-independent basis, Debye):
    X=             -0.2807    Y=             -0.0000    Z=             -0.0000  Tot=              0.2807
 Quadrupole moment (field-independent basis, Debye-Ang):
   XX=             -7.0862   YY=             -7.6842   ZZ=             -7.6842
   XY=             -0.0000   XZ=             -0.0000   YZ=             -0.0000

  Exact polarizability:      40.873      -0.000       2.017      -0.000      -0.000       2.017
 Approx polarizability:      31.664      -0.000       1.928      -0.000       0.000       1.928

 ******    2 imaginary frequencies (negative Signs) ******

                      1                      2                      3
                      A                      A                      A
 Frequencies --   -891.2974              -155.5970               337.2456
 Red. masses --      1.0079                 1.1084                 1.0139
 Frc consts  --      0.4718                 0.0158                 0.0679
 IR Inten    --      8.9714                 9.3325                 0.0447

                      4
                      A
 Frequencies --    337.2456
 Red. masses --      1.0139
 Frc consts  --      0.0679
 IR Inten    --      0.0447

 - Thermochemistry -
 -------------------
 Temperature   298.150 Kelvin.  Pressure   1.00000 Atm.
 Atom     1 has atomic number  1 and mass   1.00783

 Molecular mass:    21.01405 amu.
 Principal axes and moments of inertia in atomic units:
                           1         2         3
     Eigenvalues --     0.00000 144.24275 144.24275
           X            1.00000  -0.00000   0.00000
           Y            0.00000   1.00000   0.00000
           Z            0.00000   0.00000   1.00000
 This molecule is a prolate symmetric top.
 Rotational symmetry number  1.
 Rotational temperature (Kelvin)      0.60047
 Rotational constant (GHZ):          12.511833
    2 imaginary frequencies ignored.
 Zero-point vibrational energy       4034.4 (Joules/Mol)
                                    0.96423 (Kcal/Mol)
 Warning -- explicit consideration of   2 degrees of freedom as
           vibrations may cause significant error
 Vibrational temperatures:    485.22   485.22
          (Kelvin)

 Zero-point correction=                           0.001537 (Hartree/Particle)
 Thermal correction to Energy=                    0.004648
 Thermal correction to Enthalpy=                  0.005592
 Thermal correction to Gibbs Free Energy=        -0.019693
 Sum of electronic and zero-point Energies=           -100.764483
 Sum of electronic and thermal Energies=              -100.761372
 Sum of electronic and thermal Enthalpies=            -100.760428
 Sum of electronic and thermal Free Energies=         -100.785714

                     E (Thermal)             CV                S
                      KCal/Mol        Cal/Mol-Kelvin    Cal/Mol-Kelvin
 Total                    2.917              8.170             53.219
 Electronic               0.000              0.000              1.377
 Translational            0.889              2.981             35.068
 Rotational               0.592              1.987             14.323
 Vibrational              1.436              3.202              2.450
 Vibration     1          0.718              1.601              1.225
 Vibration     2          0.718              1.601              1.225

 Normal termination of Gaussian 16 at Fri Aug 22 21:17:05 2025.
