 Gaussian 16, Revision C.01,
 Gaussian 16:  ES64L-G16RevC.01  3-Jul-2019

 -----------------------------------------
 # sp b3lyp/6-311g** Force nosymm scf=(qc)
 -----------------------------------------

 -------------------
 Title Card Required
 -------------------
 Symbolic Z-matrix:
 Charge =  0 Multiplicity = 2

                          Input orientation:
 ---------------------------------------------------------------------
 Center     Atomic      Atomic             Coordinates (Angstroms)
 Number     Number       Type             X           Y           Z
 ---------------------------------------------------------------------
      1          1           0        0.000000    0.000000    0.000000
      2          1           0       -1.350000    0.000000    0.000000
      3          9           0        2.300000    0.000000    0.000000
 ---------------------------------------------------------------------

 SCF Done:  E(UB3LYP) =  -100.848948677     a.u. after   15 cycles

 Alpha  occ. eigenvalues --  -24.73264  -1.19408  -0.52566  -0.44026  -0.44026
 Alpha  occ. eigenvalues --   -0.37173
 Alpha virt. eigenvalues --   -0.08176   0.22885   0.32574   0.87897   0.92458
 Alpha virt. eigenvalues --    0.92458   1.05254   1.14297   1.14297   1.21794
 Alpha virt. eigenvalues --    1.45046   1.45046   1.92329   2.24808   2.50752

  Beta  occ. eigenvalues --  -24.70346  -1.11088  -0.41115  -0.41115  -0.36688
  Beta virt. eigenvalues --   -0.25073  -0.07114   0.23705   0.32953   0.93830
  Beta virt. eigenvalues --    0.93830   0.94640   1.08120   1.15085   1.15085
  Beta virt. eigenvalues --    1.25047   1.45658   1.45658   1.93209   2.25800

 Mulliken charges and spin densities:
               1          2
     1  H    0.021344  -0.152834
     2  H    0.042240   0.232226
     3  F   -0.063584   0.920607
 Sum of Mulliken charges =  -0.00000   1.00000

 Dipole moment (field-independent basis, Debye):
    X=             -1.0026    Y=              0.0000    Z=             -0.0000  Tot=              1.0026
 Quadrupole moment (field-independent basis, Debye-Ang):
   XX=             -6.7417   YY=             -7.5559   ZZ=             -7.5559
   XY=              0.0000   XZ=             -0.0000   YZ=              0.0000

  Exact polarizability:      50.138       0.000       2.103      -0.000      -0.000       2.103
 Approx polarizability:      71.507      -0.000       2.090       0.000       0.000       2.090

 ******    2 imaginary frequencies (negative Signs) ******

                      1                      2                      3
                      A                      A                      A
 Frequencies --  -1641.2851              -291.1437              1291.2245
 Red. masses --      1.0103                 1.1056                 1.0128
 Frc consts  --      1.6034                 0.0552                 0.9949
 IR Inten    --    846.4669                14.5631                 0.0011

                      4
                      A
 Frequencies --   1291.2245
 Red. masses --      1.0128
 Frc consts  --      0.9949
 IR Inten    --      0.0011

 - Thermochemistry -
 -------------------
 Temperature   298.150 Kelvin.  Pressure   1.00000 Atm.
 Atom     1 has atomic number  1 and mass   1.00783

 Molecular mass:    21.01405 amu.
 Principal axes and moments of inertia in atomic units:
                           1         2         3
     Eigenvalues --     0.00000  60.87583  60.87583
           X            1.00000  -0.00000   0.00000
           Y            0.00000   1.00000   0.00000
           Z            0.00000   0.00000   1.00000
 This molecule is a prolate symmetric top.
 Rotational symmetry number  1.
 Rotational temperature (Kelvin)      1.42280
 Rotational constant (GHZ):          29.646268
    2 imaginary frequencies ignored.
 Zero-point vibrational energy      15446.5 (Joules/Mol)
                                    3.69180 (Kcal/Mol)
 Vibrational temperatures:   1857.78  1857.78
          (Kelvin)

 Zero-point correction=                           0.005883 (Hartree/Particle)
 Thermal correction to Energy=                    0.008267
 Thermal correction to Enthalpy=                  0.009211
 Thermal correction to Gibbs Free Energy=        -0.014123
 Sum of electronic and zero-point Energies=           -100.843065
 Sum of electronic and thermal Energies=              -100.840682
 Sum of electronic and thermal Enthalpies=            -100.839738
 Sum of electronic and thermal Free Energies=         -100.863072

                     E (Thermal)             CV                S
                      KCal/Mol        Cal/Mol-Kelvin    Cal/Mol-Kelvin
 Total                    5.188              5.273             49.111
 Electronic               0.000              0.000              1.377
 Translational            0.889              2.981             35.068
 Rotational               0.592              1.987             12.609
 Vibrational              3.706              0.305              0.057

 Normal termination of Gaussian 16 at Fri Aug 22 17:21:13 2025.
