 Gaussian 16, Revision C.01,
 Gaussian 16:  ES64L-G16RevC.01  3-Jul-2019

 -----------------------------------------
 # sp b3lyp/6-311g** Force nosymm scf=(qc)
 -----------------------------------------

 -------------------
 Title Card Required
 -------------------
 Symbolic Z-matrix:
 Charge =  0 Multiplicity = 2

                          Input orientation:
 ---------------------------------------------------------------------
 Center     Atomic      Atomic             Coordinates (Angstroms)
 Number     Number       Type             X           Y           Z
 ---------------------------------------------------------------------
      1          1           0        0.000000    0.000000    0.000000
      2          1           0       -3.350000    0.000000    0.000000
      3          9           0        2.750000    0.000000    0.000000
 ---------------------------------------------------------------------

 SCF Done:  E(UB3LYP) =  -100.763548891     a.u. after   19 cycles

 Alpha  occ. eigenvalues --  -24.73055  -1.19188  -0.52170  -0.43812  -0.43812
 Alpha  occ. eigenvalues --   -0.32755
 Alpha virt. eigenvalues --   -0.09267   0.23935   0.35583   0.89970   0.92883
 Alpha virt. eigenvalues --    0.92883   1.05370   1.24759   1.24759   1.25050
 Alpha virt. eigenvalues --    1.42470   1.42470   1.43442   2.14866   2.38091

  Beta  occ. eigenvalues --  -24.70104  -1.10751  -0.40862  -0.40862  -0.34448
  Beta virt. eigenvalues --   -0.24170  -0.06929   0.24170   0.37628   0.94316
  Beta virt. eigenvalues --    0.94316   0.98036   1.08656   1.22881   1.22881
  Beta virt. eigenvalues --    1.25076   1.45440   1.45702   1.45702   2.14426

 Mulliken charges and spin densities:
               1          2
     1  H    0.058295  -0.931406
     2  H    0.000951   0.997005
     3  F   -0.059245   0.934401
 Sum of Mulliken charges =  -0.00000   1.00000

 Dipole moment (field-independent basis, Debye):
    X=             -0.8497    Y=             -0.0000    Z=             -0.0000  Tot=              0.8497
 Quadrupole moment (field-independent basis, Debye-Ang):
   XX=             -8.7885   YY=             -7.5974   ZZ=             -7.5974
   XY=             -0.0000   XZ=             -0.0000   YZ=             -0.0000

  Exact polarizability:      32.899      -0.000       2.023      -0.000      -0.000       2.023
 Approx polarizability:      37.298      -0.000       1.922      -0.000       0.000       1.922

 ******    2 imaginary frequencies (negative Signs) ******

                      1                      2                      3
                      A                      A                      A
 Frequencies --   -490.6210              -141.9357               181.6727
 Red. masses --      1.0483                 1.0634                 1.0205
 Frc consts  --      0.1487                 0.0126                 0.0198
 IR Inten    --     58.1824                 0.8616                 3.1882

                      4
                      A
 Frequencies --    181.6727
 Red. masses --      1.0205
 Frc consts  --      0.0198
 IR Inten    --      3.1882

 - Thermochemistry -
 -------------------
 Temperature   298.150 Kelvin.  Pressure   1.00000 Atm.
 Atom     1 has atomic number  1 and mass   1.00783

 Molecular mass:    21.01405 amu.
 Principal axes and moments of inertia in atomic units:
                           1         2         3
     Eigenvalues --     0.00000 147.61760 147.61760
           X            1.00000  -0.00000   0.00000
           Y            0.00000   1.00000   0.00000
           Z            0.00000   0.00000   1.00000
 This molecule is a prolate symmetric top.
 Rotational symmetry number  1.
 Rotational temperature (Kelvin)      0.58675
 Rotational constant (GHZ):          12.225786
    2 imaginary frequencies ignored.
 Zero-point vibrational energy       2173.3 (Joules/Mol)
                                    0.51943 (Kcal/Mol)
 Warning -- explicit consideration of   2 degrees of freedom as
           vibrations may cause significant error
 Vibrational temperatures:    261.39   261.39
          (Kelvin)

 Zero-point correction=                           0.000828 (Hartree/Particle)
 Thermal correction to Energy=                    0.004368
 Thermal correction to Enthalpy=                  0.005312
 Thermal correction to Gibbs Free Energy=        -0.021027
 Sum of electronic and zero-point Energies=           -100.762721
 Sum of electronic and thermal Energies=              -100.759181
 Sum of electronic and thermal Enthalpies=            -100.758236
 Sum of electronic and thermal Free Energies=         -100.784576

                     E (Thermal)             CV                S
                      KCal/Mol        Cal/Mol-Kelvin    Cal/Mol-Kelvin
 Total                    2.741              8.697             55.437
 Electronic               0.000              0.000              1.377
 Translational            0.889              2.981             35.068
 Rotational               0.592              1.987             14.369
 Vibrational              1.260              3.729              4.622
 Vibration     1          0.630              1.865              2.311
 Vibration     2          0.630              1.865              2.311

 Normal termination of Gaussian 16 at Fri Aug 22 18:35:01 2025.
