 Gaussian 16, Revision C.01,
 Gaussian 16:  ES64L-G16RevC.01  3-Jul-2019

 -----------------------------------------
 # sp b3lyp/6-311g** Force nosymm scf=(qc)
 -----------------------------------------

 -------------------
 Title Card Required
 -------------------
 Symbolic Z-matrix:
 Charge =  0 Multiplicity = 2

                          Input orientation:
 ---------------------------------------------------------------------
 Center     Atomic      Atomic             Coordinates (Angstroms)
 Number     Number       Type             X           Y           Z
 ---------------------------------------------------------------------
      1          1           0        0.000000    0.000000    0.000000
      2          1           0       -4.000000    0.000000    0.000000
      3          9           0        2.350000    0.000000    0.000000
 ---------------------------------------------------------------------

 SCF Done:  E(UB3LYP) =  -100.771065665     a.u. after   15 cycles

 Alpha  occ. eigenvalues --  -24.70801  -1.17068  -0.49888  -0.41927  -0.41927
 Alpha  occ. eigenvalues --   -0.32842
 Alpha virt. eigenvalues --   -0.11212   0.23260   0.34242   0.88903   0.94076
 Alpha virt. eigenvalues --    0.94076   1.06137   1.24658   1.24658   1.24661
 Alpha virt. eigenvalues --    1.39051   1.39051   1.47111   2.13923   2.34777

  Beta  occ. eigenvalues --  -24.68052  -1.09274  -0.39194  -0.39194  -0.36018
  Beta virt. eigenvalues --   -0.22703  -0.06077   0.23474   0.38098   0.93535
  Beta virt. eigenvalues --    0.95342   0.95342   1.08249   1.21692   1.21692
  Beta virt. eigenvalues --    1.34997   1.46553   1.46695   1.46695   2.11597

 Mulliken charges and spin densities:
               1          2
     1  H    0.114645  -0.866637
     2  H    0.000298   0.999388
     3  F   -0.114942   0.867249
 Sum of Mulliken charges =  -0.00000   1.00000

 Dipole moment (field-independent basis, Debye):
    X=             -1.3700    Y=             -0.0000    Z=             -0.0000  Tot=              1.3700
 Quadrupole moment (field-independent basis, Debye-Ang):
   XX=             -9.6275   YY=             -7.5473   ZZ=             -7.5473
   XY=             -0.0000   XZ=             -0.0000   YZ=             -0.0000

  Exact polarizability:      28.498       0.000       2.032      -0.000      -0.000       2.032
 Approx polarizability:      38.297       0.000       1.923       0.000       0.000       1.923

 ******    2 imaginary frequencies (negative Signs) ******

                      1                      2                      3
                      A                      A                      A
 Frequencies --   -720.6943               -68.3769               294.1533
 Red. masses --      1.0573                 1.0542                 1.0255
 Frc consts  --      0.3236                 0.0029                 0.0523
 IR Inten    --     93.7496                 0.0288                12.8585

                      4
                      A
 Frequencies --    294.1533
 Red. masses --      1.0255
 Frc consts  --      0.0523
 IR Inten    --     12.8585

 - Thermochemistry -
 -------------------
 Temperature   298.150 Kelvin.  Pressure   1.00000 Atm.
 Atom     1 has atomic number  1 and mass   1.00783

 Molecular mass:    21.01405 amu.
 Principal axes and moments of inertia in atomic units:
                           1         2         3
     Eigenvalues --     0.00000 151.93193 151.93193
           X            1.00000  -0.00000   0.00000
           Y            0.00000   1.00000   0.00000
           Z            0.00000   0.00000   1.00000
 This molecule is a prolate symmetric top.
 Rotational symmetry number  1.
 Rotational temperature (Kelvin)      0.57008
 Rotational constant (GHZ):          11.878617
    2 imaginary frequencies ignored.
 Zero-point vibrational energy       3518.9 (Joules/Mol)
                                    0.84103 (Kcal/Mol)
 Warning -- explicit consideration of   2 degrees of freedom as
           vibrations may cause significant error
 Vibrational temperatures:    423.22   423.22
          (Kelvin)

 Zero-point correction=                           0.001340 (Hartree/Particle)
 Thermal correction to Energy=                    0.004556
 Thermal correction to Enthalpy=                  0.005500
 Thermal correction to Gibbs Free Energy=        -0.020049
 Sum of electronic and zero-point Energies=           -100.769725
 Sum of electronic and thermal Energies=              -100.766510
 Sum of electronic and thermal Enthalpies=            -100.765566
 Sum of electronic and thermal Free Energies=         -100.791114

                     E (Thermal)             CV                S
                      KCal/Mol        Cal/Mol-Kelvin    Cal/Mol-Kelvin
 Total                    2.859              8.337             53.772
 Electronic               0.000              0.000              1.377
 Translational            0.889              2.981             35.068
 Rotational               0.592              1.987             14.426
 Vibrational              1.378              3.369              2.900
 Vibration     1          0.689              1.685              1.450
 Vibration     2          0.689              1.685              1.450

 Normal termination of Gaussian 16 at Fri Aug 22 17:28:09 2025.
