 Gaussian 16, Revision C.01,
 Gaussian 16:  ES64L-G16RevC.01  3-Jul-2019

 -----------------------------------------
 # sp b3lyp/6-311g** Force nosymm scf=(qc)
 -----------------------------------------

 -------------------
 Title Card Required
 -------------------
 Symbolic Z-matrix:
 Charge =  0 Multiplicity = 2

                          Input orientation:
 ---------------------------------------------------------------------
 Center     Atomic      Atomic             Coordinates (Angstroms)
 Number     Number       Type             X           Y           Z
 ---------------------------------------------------------------------
      1          1           0        0.000000    0.000000    0.000000
      2          1           0       -2.050000    0.000000    0.000000
      3          9           0        0.750000    0.000000    0.000000
 ---------------------------------------------------------------------

 SCF Done:  E(UB3LYP) =  -100.921893288     a.u. after    6 cycles

 Alpha  occ. eigenvalues --  -24.63310  -1.25361  -0.57423  -0.41064  -0.41064
 Alpha  occ. eigenvalues --   -0.35357
 Alpha virt. eigenvalues --    0.09216   0.24506   0.47404   0.94035   0.94035
 Alpha virt. eigenvalues --    0.96627   1.15787   1.22083   1.22083   1.41907
 Alpha virt. eigenvalues --    1.41907   1.52667   1.98719   2.17627   2.68366

  Beta  occ. eigenvalues --  -24.63276  -1.25268  -0.57258  -0.41039  -0.41039
  Beta virt. eigenvalues --   -0.10562   0.10834   0.35591   0.47658   0.94037
  Beta virt. eigenvalues --    0.94037   0.96887   1.25542   1.40625   1.40625
  Beta virt. eigenvalues --    1.43537   1.43537   1.61810   2.01749   2.41196

 Mulliken charges and spin densities:
               1          2
     1  H    0.255375   0.008209
     2  H    0.009974   0.984173
     3  F   -0.265350   0.007619
 Sum of Mulliken charges =   0.00000   1.00000

 Dipole moment (field-independent basis, Debye):
    X=             -1.7592    Y=             -0.0000    Z=             -0.0000  Tot=              1.7592
 Quadrupole moment (field-independent basis, Debye-Ang):
   XX=             -7.1625   YY=             -6.6868   ZZ=             -6.6868
   XY=             -0.0000   XZ=             -0.0000   YZ=             -0.0000

  Exact polarizability:       6.895       0.000       2.498      -0.000       0.000       2.498
 Approx polarizability:       6.934      -0.000       2.489       0.000       0.000       2.489

 ******    2 imaginary frequencies (negative Signs) ******

                      1                      2                      3
                      A                      A                      A
 Frequencies --  -2661.9951             -2661.9951               284.9082
 Red. masses --      1.0331                 1.0331                 1.0533
 Frc consts  --      4.3133                 4.3133                 0.0504
 IR Inten    --    173.2654               173.2654                 0.3134

                      4
                      A
 Frequencies --   7580.1338
 Red. masses --      1.0583
 Frc consts  --     35.8273
 IR Inten    --    147.1226

 - Thermochemistry -
 -------------------
 Temperature   298.150 Kelvin.  Pressure   1.00000 Atm.
 Atom     1 has atomic number  1 and mass   1.00783

 Molecular mass:    21.01405 amu.
 Principal axes and moments of inertia in atomic units:
                           1         2         3
     Eigenvalues --     0.00000  28.06539  28.06539
           X            1.00000  -0.00000   0.00000
           Y            0.00000   1.00000   0.00000
           Z            0.00000   0.00000   1.00000
 This molecule is a prolate symmetric top.
 Rotational symmetry number  1.
 Rotational temperature (Kelvin)      3.08615
 Rotational constant (GHZ):          64.304867
    2 imaginary frequencies ignored.
 Zero-point vibrational energy      47043.4 (Joules/Mol)
                                   11.24364 (Kcal/Mol)
 Warning -- explicit consideration of   1 degrees of freedom as
           vibrations may cause significant error
 Vibrational temperatures:    409.92 10906.12
          (Kelvin)

 Zero-point correction=                           0.017918 (Hartree/Particle)
 Thermal correction to Energy=                    0.020718
 Thermal correction to Enthalpy=                  0.021662
 Thermal correction to Gibbs Free Energy=        -0.001629
 Sum of electronic and zero-point Energies=           -100.903975
 Sum of electronic and thermal Energies=              -100.901176
 Sum of electronic and thermal Enthalpies=            -100.900231
 Sum of electronic and thermal Free Energies=         -100.923522

                     E (Thermal)             CV                S
                      KCal/Mol        Cal/Mol-Kelvin    Cal/Mol-Kelvin
 Total                   13.001              6.670             49.020
 Electronic               0.000              0.000              1.377
 Translational            0.889              2.981             35.068
 Rotational               0.592              1.987             11.070
 Vibrational             11.519              1.702              1.504
 Vibration     1          0.683              1.702              1.504

 Normal termination of Gaussian 16 at Fri Aug 22 15:48:47 2025.
