 Gaussian 16, Revision C.01,
 Gaussian 16:  ES64L-G16RevC.01  3-Jul-2019

 -----------------------------------------
 # sp b3lyp/6-311g** Force nosymm scf=(qc)
 -----------------------------------------

 -------------------
 Title Card Required
 -------------------
 Symbolic Z-matrix:
 Charge =  0 Multiplicity = 2

                          Input orientation:
 ---------------------------------------------------------------------
 Center     Atomic      Atomic             Coordinates (Angstroms)
 Number     Number       Type             X           Y           Z
 ---------------------------------------------------------------------
      1          1           0        0.000000    0.000000    0.000000
      2          1           0       -2.450000    0.000000    0.000000
      3          9           0        2.600000    0.000000    0.000000
 ---------------------------------------------------------------------

 SCF Done:  E(UB3LYP) =  -100.769791432     a.u. after   19 cycles

 Alpha  occ. eigenvalues --  -24.72330  -1.18503  -0.51435  -0.43196  -0.43196
 Alpha  occ. eigenvalues --   -0.33699
 Alpha virt. eigenvalues --   -0.11721   0.24984   0.33157   0.90276   0.93309
 Alpha virt. eigenvalues --    0.93309   1.06284   1.23975   1.23975   1.26720
 Alpha virt. eigenvalues --    1.38059   1.38059   1.41941   2.14624   2.34150

  Beta  occ. eigenvalues --  -24.69437  -1.10253  -0.40309  -0.40309  -0.34933
  Beta virt. eigenvalues --   -0.23754  -0.09723   0.25881   0.34491   0.94709
  Beta virt. eigenvalues --    0.94709   0.97896   1.09529   1.22643   1.22643
  Beta virt. eigenvalues --    1.27959   1.41263   1.41263   1.43349   2.14778

 Mulliken charges and spin densities:
               1          2
     1  H    0.064167  -0.880953
     2  H    0.010946   0.966144
     3  F   -0.075113   0.914809
 Sum of Mulliken charges =  -0.00000   1.00000

 Dipole moment (field-independent basis, Debye):
    X=             -1.1247    Y=             -0.0000    Z=             -0.0000  Tot=              1.1247
 Quadrupole moment (field-independent basis, Debye-Ang):
   XX=             -8.6141   YY=             -7.6267   ZZ=             -7.6267
   XY=             -0.0000   XZ=             -0.0000   YZ=              0.0000

  Exact polarizability:      45.721      -0.000       2.013      -0.000       0.000       2.013
 Approx polarizability:      47.334      -0.000       1.918      -0.000       0.000       1.918

 ******    2 imaginary frequencies (negative Signs) ******

                      1                      2                      3
                      A                      A                      A
 Frequencies --   -818.8286              -328.3911               319.5364
 Red. masses --      1.0154                 1.0995                 1.0172
 Frc consts  --      0.4011                 0.0699                 0.0612
 IR Inten    --     44.1442                28.1665                 3.2674

                      4
                      A
 Frequencies --    319.5364
 Red. masses --      1.0172
 Frc consts  --      0.0612
 IR Inten    --      3.2674

 - Thermochemistry -
 -------------------
 Temperature   298.150 Kelvin.  Pressure   1.00000 Atm.
 Atom     1 has atomic number  1 and mass   1.00783

 Molecular mass:    21.01405 amu.
 Principal axes and moments of inertia in atomic units:
                           1         2         3
     Eigenvalues --     0.00000 106.01162 106.01162
           X            1.00000  -0.00000   0.00000
           Y            0.00000   1.00000   0.00000
           Z            0.00000   0.00000   1.00000
 This molecule is a prolate symmetric top.
 Rotational symmetry number  1.
 Rotational temperature (Kelvin)      0.81702
 Rotational constant (GHZ):          17.023993
    2 imaginary frequencies ignored.
 Zero-point vibrational energy       3822.5 (Joules/Mol)
                                    0.91360 (Kcal/Mol)
 Warning -- explicit consideration of   2 degrees of freedom as
           vibrations may cause significant error
 Vibrational temperatures:    459.74   459.74
          (Kelvin)

 Zero-point correction=                           0.001456 (Hartree/Particle)
 Thermal correction to Energy=                    0.004609
 Thermal correction to Enthalpy=                  0.005553
 Thermal correction to Gibbs Free Energy=        -0.019525
 Sum of electronic and zero-point Energies=           -100.768336
 Sum of electronic and thermal Energies=              -100.765182
 Sum of electronic and thermal Enthalpies=            -100.764238
 Sum of electronic and thermal Free Energies=         -100.789316

                     E (Thermal)             CV                S
                      KCal/Mol        Cal/Mol-Kelvin    Cal/Mol-Kelvin
 Total                    2.892              8.240             52.781
 Electronic               0.000              0.000              1.377
 Translational            0.889              2.981             35.068
 Rotational               0.592              1.987             13.711
 Vibrational              1.411              3.272              2.625
 Vibration     1          0.705              1.636              1.312
 Vibration     2          0.705              1.636              1.312

 Normal termination of Gaussian 16 at Fri Aug 22 18:04:11 2025.
