 Gaussian 16, Revision C.01,
 Gaussian 16:  ES64L-G16RevC.01  3-Jul-2019

 -----------------------------------------
 # sp b3lyp/6-311g** Force nosymm scf=(qc)
 -----------------------------------------

 -------------------
 Title Card Required
 -------------------
 Symbolic Z-matrix:
 Charge =  0 Multiplicity = 2

                          Input orientation:
 ---------------------------------------------------------------------
 Center     Atomic      Atomic             Coordinates (Angstroms)
 Number     Number       Type             X           Y           Z
 ---------------------------------------------------------------------
      1          1           0        0.000000    0.000000    0.000000
      2          1           0       -3.500000    0.000000    0.000000
      3          9           0        3.700000    0.000000    0.000000
 ---------------------------------------------------------------------

 SCF Done:  E(UB3LYP) =  -100.758848689     a.u. after   31 cycles

 Alpha  occ. eigenvalues --  -24.75658  -1.21601  -0.54782  -0.45995  -0.45995
 Alpha  occ. eigenvalues --   -0.32297
 Alpha virt. eigenvalues --   -0.06806   0.24344   0.37339   0.87062   0.91311
 Alpha virt. eigenvalues --    0.91311   1.01404   1.25207   1.25207   1.25358
 Alpha virt. eigenvalues --    1.45363   1.45566   1.45566   2.15063   2.41206

  Beta  occ. eigenvalues --  -24.72527  -1.12599  -0.42856  -0.42856  -0.32626
  Beta virt. eigenvalues --   -0.25622  -0.06456   0.24138   0.37946   0.92806
  Beta virt. eigenvalues --    0.92806   0.96317   1.05476   1.24837   1.24837
  Beta virt. eigenvalues --    1.24969   1.45903   1.46131   1.46131   2.15153

 Mulliken charges and spin densities:
               1          2
     1  H    0.006351  -0.990720
     2  H    0.000120   0.997868
     3  F   -0.006471   0.992853
 Sum of Mulliken charges =   0.00000   1.00000

 Dipole moment (field-independent basis, Debye):
    X=             -0.1254    Y=              0.0000    Z=             -0.0000  Tot=              0.1254
 Quadrupole moment (field-independent basis, Debye-Ang):
   XX=             -7.1416   YY=             -7.6232   ZZ=             -7.6232
   XY=              0.0000   XZ=             -0.0000   YZ=              0.0000

  Exact polarizability:      18.165      -0.000       2.026       0.000      -0.000       2.026
 Approx polarizability:      13.570       0.000       1.935      -0.000      -0.000       1.935

 ******    2 imaginary frequencies (negative Signs) ******

                      1                      2                      3
                      A                      A                      A
 Frequencies --   -216.0542               -91.3271                73.4313
 Red. masses --      1.0184                 1.0959                 1.0173
 Frc consts  --      0.0280                 0.0054                 0.0032
 IR Inten    --      4.2156                 1.0678                 0.0414

                      4
                      A
 Frequencies --     73.4315
 Red. masses --      1.0173
 Frc consts  --      0.0032
 IR Inten    --      0.0414

 - Thermochemistry -
 -------------------
 Temperature   298.150 Kelvin.  Pressure   1.00000 Atm.
 Atom     1 has atomic number  1 and mass   1.00783

 Molecular mass:    21.01405 amu.
 Principal axes and moments of inertia in atomic units:
                           1         2         3
     Eigenvalues --     0.00000 215.33560 215.33560
           X            1.00000  -0.00000   0.00000
           Y            0.00000   1.00000   0.00000
           Z            0.00000   0.00000   1.00000
 This molecule is a prolate symmetric top.
 Rotational symmetry number  1.
 Rotational temperature (Kelvin)      0.40223
 Rotational constant (GHZ):           8.381063
    2 imaginary frequencies ignored.
 Zero-point vibrational energy        878.4 (Joules/Mol)
                                    0.20995 (Kcal/Mol)
 Warning -- explicit consideration of   2 degrees of freedom as
           vibrations may cause significant error
 Vibrational temperatures:    105.65   105.65
          (Kelvin)

 Zero-point correction=                           0.000335 (Hartree/Particle)
 Thermal correction to Energy=                    0.004269
 Thermal correction to Enthalpy=                  0.005213
 Thermal correction to Gibbs Free Energy=        -0.023145
 Sum of electronic and zero-point Energies=           -100.758514
 Sum of electronic and thermal Energies=              -100.754580
 Sum of electronic and thermal Enthalpies=            -100.753636
 Sum of electronic and thermal Free Energies=         -100.781993

                     E (Thermal)             CV                S
                      KCal/Mol        Cal/Mol-Kelvin    Cal/Mol-Kelvin
 Total                    2.679              8.901             59.683
 Electronic               0.000              0.000              1.377
 Translational            0.889              2.981             35.068
 Rotational               0.592              1.987             15.119
 Vibrational              1.197              3.933              8.118
 Vibration     1          0.599              1.967              4.059
 Vibration     2          0.599              1.967              4.059

 Normal termination of Gaussian 16 at Sat Aug 23 00:04:53 2025.
