 Gaussian 16, Revision C.01,
 Gaussian 16:  ES64L-G16RevC.01  3-Jul-2019

 -----------------------------------------
 # sp b3lyp/6-311g** Force nosymm scf=(qc)
 -----------------------------------------

 -------------------
 Title Card Required
 -------------------
 Symbolic Z-matrix:
 Charge =  0 Multiplicity = 2

                          Input orientation:
 ---------------------------------------------------------------------
 Center     Atomic      Atomic             Coordinates (Angstroms)
 Number     Number       Type             X           Y           Z
 ---------------------------------------------------------------------
      1          1           0        0.000000    0.000000    0.000000
      2          1           0       -3.450000    0.000000    0.000000
      3          9           0        1.900000    0.000000    0.000000
 ---------------------------------------------------------------------

 SCF Done:  E(UB3LYP) =  -100.794916214     a.u. after   14 cycles

 Alpha  occ. eigenvalues --  -24.67430  -1.13709  -0.46335  -0.39075  -0.39075
 Alpha  occ. eigenvalues --   -0.33615
 Alpha virt. eigenvalues --   -0.14400   0.22036   0.31030   0.90375   0.94870
 Alpha virt. eigenvalues --    0.94870   1.05699   1.23901   1.23901   1.24024
 Alpha virt. eigenvalues --    1.34487   1.34487   1.65277   2.13901   2.27838

  Beta  occ. eigenvalues --  -24.65253  -1.07662  -0.38603  -0.36939  -0.36939
  Beta virt. eigenvalues --   -0.20052  -0.07139   0.22323   0.37783   0.91284
  Beta virt. eigenvalues --    0.95199   0.95199   1.08078   1.22656   1.22656
  Beta virt. eigenvalues --    1.45252   1.45708   1.45708   1.59344   2.12113

 Mulliken charges and spin densities:
               1          2
     1  H    0.221519  -0.681958
     2  H    0.002041   0.997234
     3  F   -0.223560   0.684724
 Sum of Mulliken charges =   0.00000   1.00000

 Dipole moment (field-independent basis, Debye):
    X=             -2.1187    Y=             -0.0000    Z=              0.0000  Tot=              2.1187
 Quadrupole moment (field-independent basis, Debye-Ang):
   XX=            -10.0892   YY=             -7.4668   ZZ=             -7.4668
   XY=             -0.0000   XZ=             -0.0000   YZ=             -0.0000

  Exact polarizability:      25.047       0.000       2.077      -0.000       0.000       2.077
 Approx polarizability:      36.975       0.000       1.964      -0.000       0.000       1.964

 ******    2 imaginary frequencies (negative Signs) ******

                      1                      2                      3
                      A                      A                      A
 Frequencies --  -1308.6484              -126.1190               558.7170
 Red. masses --      1.0572                 1.0543                 1.0265
 Frc consts  --      1.0667                 0.0099                 0.1888
 IR Inten    --    128.1233                 0.3672                45.5422

                      4
                      A
 Frequencies --    558.7170
 Red. masses --      1.0265
 Frc consts  --      0.1888
 IR Inten    --     45.5422

 - Thermochemistry -
 -------------------
 Temperature   298.150 Kelvin.  Pressure   1.00000 Atm.
 Atom     1 has atomic number  1 and mass   1.00783

 Molecular mass:    21.01405 amu.
 Principal axes and moments of inertia in atomic units:
                           1         2         3
     Eigenvalues --     0.00000 106.93239 106.93239
           X            1.00000  -0.00000   0.00000
           Y            0.00000   1.00000   0.00000
           Z            0.00000   0.00000   1.00000
 This molecule is a prolate symmetric top.
 Rotational symmetry number  1.
 Rotational temperature (Kelvin)      0.80999
 Rotational constant (GHZ):          16.877404
    2 imaginary frequencies ignored.
 Zero-point vibrational energy       6683.7 (Joules/Mol)
                                    1.59745 (Kcal/Mol)
 Warning -- explicit consideration of   2 degrees of freedom as
           vibrations may cause significant error
 Vibrational temperatures:    803.87   803.87
          (Kelvin)

 Zero-point correction=                           0.002546 (Hartree/Particle)
 Thermal correction to Energy=                    0.005274
 Thermal correction to Enthalpy=                  0.006219
 Thermal correction to Gibbs Free Energy=        -0.018121
 Sum of electronic and zero-point Energies=           -100.792371
 Sum of electronic and thermal Energies=              -100.789642
 Sum of electronic and thermal Enthalpies=            -100.788698
 Sum of electronic and thermal Free Energies=         -100.813037

                     E (Thermal)             CV                S
                      KCal/Mol        Cal/Mol-Kelvin    Cal/Mol-Kelvin
 Total                    3.310              7.209             51.226
 Electronic               0.000              0.000              1.377
 Translational            0.889              2.981             35.068
 Rotational               0.592              1.987             13.728
 Vibrational              1.829              2.241              1.053
 Vibration     1          0.914              1.121              0.526
 Vibration     2          0.914              1.121              0.526

 Normal termination of Gaussian 16 at Fri Aug 22 16:51:15 2025.
