 Gaussian 16, Revision C.01,
 Gaussian 16:  ES64L-G16RevC.01  3-Jul-2019

 -----------------------------------------
 # sp b3lyp/6-311g** Force nosymm scf=(qc)
 -----------------------------------------

 -------------------
 Title Card Required
 -------------------
 Symbolic Z-matrix:
 Charge =  0 Multiplicity = 2

                          Input orientation:
 ---------------------------------------------------------------------
 Center     Atomic      Atomic             Coordinates (Angstroms)
 Number     Number       Type             X           Y           Z
 ---------------------------------------------------------------------
      1          1           0        0.000000    0.000000    0.000000
      2          1           0       -0.800000    0.000000    0.000000
      3          9           0        2.850000    0.000000    0.000000
 ---------------------------------------------------------------------

 SCF Done:  E(UB3LYP) =  -100.932654359     a.u. after  121 cycles

 Alpha  occ. eigenvalues --  -24.76718  -1.22512  -0.55699  -0.47007  -0.46848
 Alpha  occ. eigenvalues --   -0.41927
 Alpha virt. eigenvalues --    0.05239   0.20407   0.45606   0.85779   0.90650
 Alpha virt. eigenvalues --    0.93819   1.07368   1.08465   1.08475   1.52562
 Alpha virt. eigenvalues --    1.79133   1.79144   2.06374   2.39124   3.05577

  Beta  occ. eigenvalues --  -24.73555  -1.13423  -0.43969  -0.43677  -0.41791
  Beta virt. eigenvalues --   -0.26317   0.05290   0.20443   0.45713   0.92148
  Beta virt. eigenvalues --    0.95233   0.95703   1.08466   1.08474   1.10971
  Beta virt. eigenvalues --    1.52571   1.79132   1.79143   2.06398   2.39132

 Mulliken charges and spin densities:
               1          2
     1  H   -0.005932  -0.001307
     2  H   -0.005167  -0.000225
     3  F    0.011099   1.001532
 Sum of Mulliken charges =   0.00000   1.00000

 Dipole moment (field-independent basis, Debye):
    X=              0.1124    Y=             -0.0000    Z=              0.0000  Tot=              0.1124
 Quadrupole moment (field-independent basis, Debye-Ang):
   XX=             -6.0658   YY=             -7.0044   ZZ=             -6.1910
   XY=              0.0000   XZ=             -0.0000   YZ=             -0.1447

  Exact polarizability:       9.471      -0.000       2.006      -0.000      -0.077       2.436
 Approx polarizability:      10.999       0.000       2.083      -0.000      -0.096       2.625

                      1                      2                      3
                      A                      A                      A
 Frequencies --     83.8087              1078.5617              1081.6753
 Red. masses --      1.1085                 1.0093                 1.0093
 Frc consts  --      0.0046                 0.6918                 0.6958
 IR Inten    --      0.3532                 0.0084                 0.0073

                      4
                      A
 Frequencies --   3695.5244
 Red. masses --      1.0078
 Frc consts  --      8.1094
 IR Inten    --      0.8680

 - Thermochemistry -
 -------------------
 Temperature   298.150 Kelvin.  Pressure   1.00000 Atm.
 Atom     1 has atomic number  1 and mass   1.00783

 Molecular mass:    21.01405 amu.
 Principal axes and moments of inertia in atomic units:
                           1         2         3
     Eigenvalues --     0.00000  69.88810  69.88810
           X            1.00000  -0.00000   0.00000
           Y            0.00000   1.00000   0.00000
           Z            0.00000   0.00000   1.00000
 This molecule is a prolate symmetric top.
 Rotational symmetry number  1.
 Rotational temperature (Kelvin)      1.23932
 Rotational constant (GHZ):          25.823299
 Zero-point vibrational energy      35526.5 (Joules/Mol)
                                    8.49104 (Kcal/Mol)
 Warning -- explicit consideration of   1 degrees of freedom as
           vibrations may cause significant error
 Vibrational temperatures:    120.58  1551.81  1556.29  5317.04
          (Kelvin)

 Zero-point correction=                           0.013531 (Hartree/Particle)
 Thermal correction to Energy=                    0.016712
 Thermal correction to Enthalpy=                  0.017656
 Thermal correction to Gibbs Free Energy=        -0.007651
 Sum of electronic and zero-point Energies=           -100.919123
 Sum of electronic and thermal Energies=              -100.915943
 Sum of electronic and thermal Enthalpies=            -100.914998
 Sum of electronic and thermal Free Energies=         -100.940306

                     E (Thermal)             CV                S
                      KCal/Mol        Cal/Mol-Kelvin    Cal/Mol-Kelvin
 Total                   10.487              7.523             53.263
 Electronic               0.000              0.000              1.377
 Translational            0.889              2.981             35.068
 Rotational               0.592              1.987             12.883
 Vibrational              9.006              2.555              3.935
 Vibration     1          0.601              1.960              3.800

 Normal termination of Gaussian 16 at Fri Aug 22 18:47:30 2025.
