 Gaussian 16, Revision C.01,
 Gaussian 16:  ES64L-G16RevC.01  3-Jul-2019

 -----------------------------------------
 # sp b3lyp/6-311g** Force nosymm scf=(qc)
 -----------------------------------------

 -------------------
 Title Card Required
 -------------------
 Symbolic Z-matrix:
 Charge =  0 Multiplicity = 2

                          Input orientation:
 ---------------------------------------------------------------------
 Center     Atomic      Atomic             Coordinates (Angstroms)
 Number     Number       Type             X           Y           Z
 ---------------------------------------------------------------------
      1          1           0        0.000000    0.000000    0.000000
      2          1           0       -2.650000    0.000000    0.000000
      3          9           0        2.050000    0.000000    0.000000
 ---------------------------------------------------------------------

 SCF Done:  E(UB3LYP) =  -100.763155448     a.u. after   16 cycles

 Alpha  occ. eigenvalues --  -24.63490  -1.07760  -0.38598  -0.35940  -0.35182
 Alpha  occ. eigenvalues --   -0.34492
 Alpha virt. eigenvalues --   -0.22944   0.21440   0.26604   0.90766   0.97786
 Alpha virt. eigenvalues --    0.97802   1.09710   1.21517   1.21517   1.23221
 Alpha virt. eigenvalues --    1.23225   1.23345   1.51368   2.12534   2.14481

  Beta  occ. eigenvalues --  -24.63515  -1.07833  -0.38171  -0.35208  -0.34777
  Beta virt. eigenvalues --   -0.23100  -0.10042   0.24966   0.34641   0.91135
  Beta virt. eigenvalues --    0.97809   0.97823   1.09944   1.23988   1.23992
  Beta virt. eigenvalues --    1.41380   1.41380   1.41827   1.52238   2.15574

 Mulliken charges and spin densities:
               1          2
     1  H    0.255851   0.043481
     2  H    0.032710   0.964957
     3  F   -0.288561  -0.008438
 Sum of Mulliken charges =   0.00000   1.00000

 Dipole moment (field-independent basis, Debye):
    X=             -3.4134    Y=              0.0005    Z=             -0.0001  Tot=              3.4134
 Quadrupole moment (field-independent basis, Debye-Ang):
   XX=            -11.1068   YY=             -7.5304   ZZ=             -7.5535
   XY=             -0.0004   XZ=              0.0001   YZ=             -0.0070

  Exact polarizability:      54.373       0.009       2.023      -0.004       0.033       2.132
 Approx polarizability:     128.036      -0.024       1.922       0.007      -0.004       1.908

 ******    2 imaginary frequencies (negative Signs) ******

                      1                      2                      3
                      A                      A                      A
 Frequencies --  -1281.3757              -284.7468               610.8458
 Red. masses --      1.0506                 1.0610                 1.0213
 Frc consts  --      1.0163                 0.0507                 0.2245
 IR Inten    --     20.2218                27.4147                62.6544

                      4
                      A
 Frequencies --    636.3065
 Red. masses --      1.0213
 Frc consts  --      0.2436
 IR Inten    --     56.3300

 - Thermochemistry -
 -------------------
 Temperature   298.150 Kelvin.  Pressure   1.00000 Atm.
 Atom     1 has atomic number  1 and mass   1.00783

 Molecular mass:    21.01405 amu.
 Principal axes and moments of inertia in atomic units:
                           1         2         3
     Eigenvalues --     0.00000  86.76253  86.76253
           X            1.00000  -0.00000   0.00000
           Y            0.00000   1.00000   0.00000
           Z            0.00000   0.00000   1.00000
 This molecule is a prolate symmetric top.
 Rotational symmetry number  1.
 Rotational temperature (Kelvin)      0.99829
 Rotational constant (GHZ):          20.800929
    2 imaginary frequencies ignored.
 Zero-point vibrational energy       7459.6 (Joules/Mol)
                                    1.78289 (Kcal/Mol)
 Warning -- explicit consideration of   1 degrees of freedom as
           vibrations may cause significant error
 Vibrational temperatures:    878.87   915.50
          (Kelvin)

 Zero-point correction=                           0.002841 (Hartree/Particle)
 Thermal correction to Energy=                    0.005497
 Thermal correction to Enthalpy=                  0.006441
 Thermal correction to Gibbs Free Energy=        -0.017592
 Sum of electronic and zero-point Energies=           -100.760314
 Sum of electronic and thermal Energies=              -100.757659
 Sum of electronic and thermal Enthalpies=            -100.756714
 Sum of electronic and thermal Free Energies=         -100.780747

                     E (Thermal)             CV                S
                      KCal/Mol        Cal/Mol-Kelvin    Cal/Mol-Kelvin
 Total                    3.449              6.933             50.581
 Electronic               0.000              0.000              1.377
 Translational            0.889              2.981             35.068
 Rotational               0.592              1.987             13.313
 Vibrational              1.968              1.965              0.823
 Vibration     1          0.970              1.009              0.431

 Normal termination of Gaussian 16 at Fri Aug 22 17:00:46 2025.
