 Gaussian 16, Revision C.01,
 Gaussian 16:  ES64L-G16RevC.01  3-Jul-2019

 -----------------------------------------
 # sp b3lyp/6-311g** Force nosymm scf=(qc)
 -----------------------------------------

 -------------------
 Title Card Required
 -------------------
 Symbolic Z-matrix:
 Charge =  0 Multiplicity = 2

                          Input orientation:
 ---------------------------------------------------------------------
 Center     Atomic      Atomic             Coordinates (Angstroms)
 Number     Number       Type             X           Y           Z
 ---------------------------------------------------------------------
      1          1           0        0.000000    0.000000    0.000000
      2          1           0       -0.650000    0.000000    0.000000
      3          9           0        1.750000    0.000000    0.000000
 ---------------------------------------------------------------------

 SCF Done:  E(UB3LYP) =  -100.926990997     a.u. after    5 cycles

 Alpha  occ. eigenvalues --  -24.73891  -1.20256  -0.55745  -0.45830  -0.44706
 Alpha  occ. eigenvalues --   -0.44706
 Alpha virt. eigenvalues --    0.09898   0.20037   0.46798   0.89683   0.89683
 Alpha virt. eigenvalues --    0.95505   1.08867   1.08867   1.21237   1.69245
 Alpha virt. eigenvalues --    1.84540   1.88298   1.88298   2.45366   3.65648

  Beta  occ. eigenvalues --  -24.70935  -1.11923  -0.47900  -0.41780  -0.41780
  Beta virt. eigenvalues --   -0.24819   0.10696   0.20722   0.47981   0.90954
  Beta virt. eigenvalues --    0.90954   1.02761   1.09986   1.09986   1.24773
  Beta virt. eigenvalues --    1.71075   1.85265   1.88830   1.88830   2.46615

 Mulliken charges and spin densities:
               1          2
     1  H    0.043101  -0.030234
     2  H    0.021605   0.113817
     3  F   -0.064706   0.916417
 Sum of Mulliken charges =   0.00000   1.00000

 Dipole moment (field-independent basis, Debye):
    X=             -0.5975    Y=             -0.0000    Z=             -0.0000  Tot=              0.5975
 Quadrupole moment (field-independent basis, Debye-Ang):
   XX=             -6.2637   YY=             -6.7395   ZZ=             -6.7395
   XY=              0.0000   XZ=             -0.0000   YZ=              0.0000

  Exact polarizability:      16.158      -0.000       2.138      -0.000      -0.000       2.138
 Approx polarizability:      18.335       0.000       2.199       0.000       0.000       2.199

 ******    2 imaginary frequencies (negative Signs) ******

                      1                      2                      3
                      A                      A                      A
 Frequencies --  -2075.6058             -2075.6058               203.2114
 Red. masses --      1.0102                 1.0102                 1.1085
 Frc consts  --      2.5643                 2.5643                 0.0270
 IR Inten    --      0.0901                 0.0901                43.1207

                      4
                      A
 Frequencies --   5875.1626
 Red. masses --      1.0078
 Frc consts  --     20.4965
 IR Inten    --    367.5949

 - Thermochemistry -
 -------------------
 Temperature   298.150 Kelvin.  Pressure   1.00000 Atm.
 Atom     1 has atomic number  1 and mass   1.00783

 Molecular mass:    21.01405 amu.
 Principal axes and moments of inertia in atomic units:
                           1         2         3
     Eigenvalues --     0.00000  28.77953  28.77953
           X            1.00000  -0.00000   0.00000
           Y            0.00000   1.00000   0.00000
           Z            0.00000   0.00000   1.00000
 This molecule is a prolate symmetric top.
 Rotational symmetry number  1.
 Rotational temperature (Kelvin)      3.00957
 Rotational constant (GHZ):          62.709196
    2 imaginary frequencies ignored.
 Zero-point vibrational energy      36356.8 (Joules/Mol)
                                    8.68947 (Kcal/Mol)
 Warning -- explicit consideration of   1 degrees of freedom as
           vibrations may cause significant error
 Vibrational temperatures:    292.38  8453.05
          (Kelvin)

 Zero-point correction=                           0.013848 (Hartree/Particle)
 Thermal correction to Energy=                    0.016764
 Thermal correction to Enthalpy=                  0.017708
 Thermal correction to Gibbs Free Energy=        -0.005892
 Sum of electronic and zero-point Energies=           -100.913143
 Sum of electronic and thermal Energies=              -100.910227
 Sum of electronic and thermal Enthalpies=            -100.909283
 Sum of electronic and thermal Free Energies=         -100.932883

                     E (Thermal)             CV                S
                      KCal/Mol        Cal/Mol-Kelvin    Cal/Mol-Kelvin
 Total                   10.519              6.803             49.669
 Electronic               0.000              0.000              1.377
 Translational            0.889              2.981             35.068
 Rotational               0.592              1.987             11.120
 Vibrational              9.038              1.835              2.104
 Vibration     1          0.639              1.835              2.104

 Normal termination of Gaussian 16 at Fri Aug 22 16:39:16 2025.
