 Gaussian 16, Revision C.01,
 Gaussian 16:  ES64L-G16RevC.01  3-Jul-2019

 -----------------------------------------
 # sp b3lyp/6-311g** Force nosymm scf=(qc)
 -----------------------------------------

 -------------------
 Title Card Required
 -------------------
 Symbolic Z-matrix:
 Charge =  0 Multiplicity = 2

                          Input orientation:
 ---------------------------------------------------------------------
 Center     Atomic      Atomic             Coordinates (Angstroms)
 Number     Number       Type             X           Y           Z
 ---------------------------------------------------------------------
      1          1           0        0.000000    0.000000    0.000000
      2          1           0       -3.600000    0.000000    0.000000
      3          9           0        1.050000    0.000000    0.000000
 ---------------------------------------------------------------------

 SCF Done:  E(UB3LYP) =  -100.958266774     a.u. after    6 cycles

 Alpha  occ. eigenvalues --  -24.64251  -1.14879  -0.50613  -0.38438  -0.38438
 Alpha  occ. eigenvalues --   -0.33657
 Alpha virt. eigenvalues --   -0.00915   0.23425   0.32763   0.93805   0.93805
 Alpha virt. eigenvalues --    0.99059   1.23773   1.23855   1.23855   1.29101
 Alpha virt. eigenvalues --    1.35523   1.35523   1.84472   2.14014   2.32962

  Beta  occ. eigenvalues --  -24.64249  -1.14874  -0.50609  -0.38436  -0.38436
  Beta virt. eigenvalues --   -0.05925  -0.00291   0.31245   0.39355   0.93806
  Beta virt. eigenvalues --    0.93806   0.99062   1.29016   1.35521   1.35521
  Beta virt. eigenvalues --    1.49750   1.49893   1.49893   1.84499   2.32642

 Mulliken charges and spin densities:
               1          2
     1  H    0.330978   0.000385
     2  H    0.000848   0.999034
     3  F   -0.331826   0.000581
 Sum of Mulliken charges =   0.00000   1.00000

 Dipole moment (field-independent basis, Debye):
    X=             -2.1027    Y=              0.0000    Z=             -0.0000  Tot=              2.1027
 Quadrupole moment (field-independent basis, Debye-Ang):
   XX=             -8.3946   YY=             -7.0062   ZZ=             -7.0062
   XY=             -0.0000   XZ=             -0.0000   YZ=             -0.0000

  Exact polarizability:       7.234       0.000       2.381      -0.000       0.000       2.381
 Approx polarizability:       9.189       0.000       2.350      -0.000       0.000       2.350

 ******    1 imaginary frequencies (negative Signs) ******

                      1                      2                      3
                      A                      A                      A
 Frequencies --    -46.3517              1122.5308              1122.5308
 Red. masses --      1.0532                 1.0367                 1.0367
 Frc consts  --      0.0013                 0.7696                 0.7696
 IR Inten    --      0.0455               163.4749               163.4749

                      4
                      A
 Frequencies --   2452.6174
 Red. masses --      1.0584
 Frc consts  --      3.7510
 IR Inten    --     82.9085

 - Thermochemistry -
 -------------------
 Temperature   298.150 Kelvin.  Pressure   1.00000 Atm.
 Atom     1 has atomic number  1 and mass   1.00783

 Molecular mass:    21.01405 amu.
 Principal axes and moments of inertia in atomic units:
                           1         2         3
     Eigenvalues --     0.00000  76.17947  76.17947
           X            1.00000  -0.00000   0.00000
           Y            0.00000   1.00000   0.00000
           Z            0.00000   0.00000   1.00000
 This molecule is a prolate symmetric top.
 Rotational symmetry number  1.
 Rotational temperature (Kelvin)      1.13697
 Rotational constant (GHZ):          23.690650
    1 imaginary frequencies ignored.
 Zero-point vibrational energy      28098.4 (Joules/Mol)
                                    6.71567 (Kcal/Mol)
 Vibrational temperatures:   1615.07  1615.07  3528.77
          (Kelvin)

 Zero-point correction=                           0.010702 (Hartree/Particle)
 Thermal correction to Energy=                    0.013108
 Thermal correction to Enthalpy=                  0.014052
 Thermal correction to Gibbs Free Energy=        -0.009521
 Sum of electronic and zero-point Energies=           -100.947565
 Sum of electronic and thermal Energies=              -100.945159
 Sum of electronic and thermal Enthalpies=            -100.944214
 Sum of electronic and thermal Free Energies=         -100.967787

                     E (Thermal)             CV                S
                      KCal/Mol        Cal/Mol-Kelvin    Cal/Mol-Kelvin
 Total                    8.226              5.493             49.614
 Electronic               0.000              0.000              1.377
 Translational            0.889              2.981             35.068
 Rotational               0.592              1.987             13.054
 Vibrational              6.744              0.525              0.114

 Normal termination of Gaussian 16 at Fri Aug 22 16:03:59 2025.
