 Gaussian 16, Revision C.01,
 Gaussian 16:  ES64L-G16RevC.01  3-Jul-2019

 -----------------------------------------
 # sp b3lyp/6-311g** Force nosymm scf=(qc)
 -----------------------------------------

 -------------------
 Title Card Required
 -------------------
 Symbolic Z-matrix:
 Charge =  0 Multiplicity = 2

                          Input orientation:
 ---------------------------------------------------------------------
 Center     Atomic      Atomic             Coordinates (Angstroms)
 Number     Number       Type             X           Y           Z
 ---------------------------------------------------------------------
      1          1           0        0.000000    0.000000    0.000000
      2          1           0       -3.650000    0.000000    0.000000
      3          9           0        1.350000    0.000000    0.000000
 ---------------------------------------------------------------------

 SCF Done:  E(UB3LYP) =  -100.889148436     a.u. after    7 cycles

 Alpha  occ. eigenvalues --  -24.64378  -1.10665  -0.45290  -0.36882  -0.36882
 Alpha  occ. eigenvalues --   -0.33792
 Alpha virt. eigenvalues --   -0.10459   0.21035   0.28027   0.93017   0.93017
 Alpha virt. eigenvalues --    1.02647   1.18417   1.23714   1.23719   1.23719
 Alpha virt. eigenvalues --    1.33242   1.33242   1.70727   2.13401   2.22948

  Beta  occ. eigenvalues --  -24.64372  -1.10649  -0.45274  -0.36877  -0.36877
  Beta virt. eigenvalues --   -0.10839  -0.06044   0.24374   0.38438   0.93015
  Beta virt. eigenvalues --    0.93015   1.02664   1.18450   1.33222   1.33222
  Beta virt. eigenvalues --    1.46403   1.46831   1.46831   1.70750   2.22301

 Mulliken charges and spin densities:
               1          2
     1  H    0.358048  -0.000802
     2  H    0.001074   0.998850
     3  F   -0.359122   0.001952
 Sum of Mulliken charges =  -0.00000   1.00000

 Dipole moment (field-independent basis, Debye):
    X=             -2.4589    Y=             -0.0000    Z=             -0.0000  Tot=              2.4589
 Quadrupole moment (field-independent basis, Debye-Ang):
   XX=             -9.3933   YY=             -7.2325   ZZ=             -7.2325
   XY=             -0.0000   XZ=             -0.0000   YZ=             -0.0000

  Exact polarizability:      12.057       0.000       2.256      -0.000      -0.000       2.256
 Approx polarizability:      19.643      -0.000       2.194      -0.000      -0.000       2.194

 ******    2 imaginary frequencies (negative Signs) ******

                      1                      2                      3
                      A                      A                      A
 Frequencies --   -873.0482               -56.1668              1130.3863
 Red. masses --      1.0576                 1.0539                 1.0329
 Frc consts  --      0.4750                 0.0020                 0.7776
 IR Inten    --     52.6866                 0.0598               132.0967

                      4
                      A
 Frequencies --   1130.3863
 Red. masses --      1.0329
 Frc consts  --      0.7776
 IR Inten    --    132.0967

 - Thermochemistry -
 -------------------
 Temperature   298.150 Kelvin.  Pressure   1.00000 Atm.
 Atom     1 has atomic number  1 and mass   1.00783

 Molecular mass:    21.01405 amu.
 Principal axes and moments of inertia in atomic units:
                           1         2         3
     Eigenvalues --     0.00000  89.57446  89.57446
           X            1.00000  -0.00000   0.00000
           Y            0.00000   1.00000   0.00000
           Z            0.00000   0.00000   1.00000
 This molecule is a prolate symmetric top.
 Rotational symmetry number  1.
 Rotational temperature (Kelvin)      0.96695
 Rotational constant (GHZ):          20.147943
    2 imaginary frequencies ignored.
 Zero-point vibrational energy      13522.4 (Joules/Mol)
                                    3.23194 (Kcal/Mol)
 Vibrational temperatures:   1626.37  1626.37
          (Kelvin)

 Zero-point correction=                           0.005150 (Hartree/Particle)
 Thermal correction to Energy=                    0.007555
 Thermal correction to Enthalpy=                  0.008499
 Thermal correction to Gibbs Free Energy=        -0.015225
 Sum of electronic and zero-point Energies=           -100.883998
 Sum of electronic and thermal Energies=              -100.881593
 Sum of electronic and thermal Enthalpies=            -100.880649
 Sum of electronic and thermal Free Energies=         -100.904373

                     E (Thermal)             CV                S
                      KCal/Mol        Cal/Mol-Kelvin    Cal/Mol-Kelvin
 Total                    4.741              5.478             49.932
 Electronic               0.000              0.000              1.377
 Translational            0.889              2.981             35.068
 Rotational               0.592              1.987             13.376
 Vibrational              3.260              0.510              0.110

 Normal termination of Gaussian 16 at Fri Aug 22 16:18:43 2025.
