 Gaussian 16, Revision C.01,
 Gaussian 16:  ES64L-G16RevC.01  3-Jul-2019

 -----------------------------------------
 # sp b3lyp/6-311g** Force nosymm scf=(qc)
 -----------------------------------------

 -------------------
 Title Card Required
 -------------------
 Symbolic Z-matrix:
 Charge =  0 Multiplicity = 2

                          Input orientation:
 ---------------------------------------------------------------------
 Center     Atomic      Atomic             Coordinates (Angstroms)
 Number     Number       Type             X           Y           Z
 ---------------------------------------------------------------------
      1          1           0        0.000000    0.000000    0.000000
      2          1           0       -0.700000    0.000000    0.000000
      3          9           0        0.500000    0.000000    0.000000
 ---------------------------------------------------------------------

 SCF Done:  E(UB3LYP) =  -100.101862051     a.u. after    6 cycles

 Alpha  occ. eigenvalues --  -24.69948  -1.54890  -0.73752  -0.50975  -0.50975
 Alpha  occ. eigenvalues --   -0.27122
 Alpha virt. eigenvalues --    0.16542   0.20743   0.82633   0.82633   0.83017
 Alpha virt. eigenvalues --    0.98487   1.12423   1.12423   1.43815   1.54800
 Alpha virt. eigenvalues --    2.02708   2.02708   2.24375   3.34577   3.70280

  Beta  occ. eigenvalues --  -24.69328  -1.52603  -0.71790  -0.50483  -0.50483
  Beta virt. eigenvalues --   -0.07838   0.17255   0.27796   0.83698   0.83933
  Beta virt. eigenvalues --    0.83933   1.03820   1.19064   1.19064   1.46881
  Beta virt. eigenvalues --    1.59785   2.08379   2.08379   2.33372   3.43351

 Mulliken charges and spin densities:
               1          2
     1  H    0.177178  -0.081165
     2  H   -0.177465   1.059070
     3  F    0.000288   0.022095
 Sum of Mulliken charges =   0.00000   1.00000

 Dipole moment (field-independent basis, Debye):
    X=             -0.0884    Y=              0.0000    Z=             -0.0000  Tot=              0.0884
 Quadrupole moment (field-independent basis, Debye-Ang):
   XX=             -7.5500   YY=             -6.4113   ZZ=             -6.4113
   XY=              0.0000   XZ=             -0.0000   YZ=             -0.0000

  Exact polarizability:       6.797      -0.000       2.393      -0.000       0.000       2.393
 Approx polarizability:       6.401      -0.000       2.499      -0.000       0.000       2.499

 ******    2 imaginary frequencies (negative Signs) ******

                      1                      2                      3
                      A                      A                      A
 Frequencies --  -9419.1295             -9419.1295              4266.1329
 Red. masses --      1.0225                 1.0225                 1.0568
 Frc consts  --     53.4480                53.4480                11.3320
 IR Inten    --    198.3677               198.3677               452.6327

                      4
                      A
 Frequencies --  19383.3708
 Red. masses --      1.0548
 Frc consts  --    233.4878
 IR Inten    --      1.9025

 - Thermochemistry -
 -------------------
 Temperature   298.150 Kelvin.  Pressure   1.00000 Atm.
 Atom     1 has atomic number  1 and mass   1.00783

 Molecular mass:    21.01405 amu.
 Principal axes and moments of inertia in atomic units:
                           1         2         3
     Eigenvalues --     0.00000   5.58349   5.58349
           X            1.00000  -0.00000   0.00000
           Y            0.00000   1.00000   0.00000
           Z            0.00000   0.00000   1.00000
 This molecule is a prolate symmetric top.
 Rotational symmetry number  1.
 Rotational temperature (Kelvin)     15.51250
 Rotational constant (GHZ):         323.228135
    2 imaginary frequencies ignored.
 Zero-point vibrational energy     141455.4 (Joules/Mol)
                                   33.80866 (Kcal/Mol)
 Vibrational temperatures:   6138.01 27888.35
          (Kelvin)

 Zero-point correction=                           0.053878 (Hartree/Particle)
 Thermal correction to Energy=                    0.056238
 Thermal correction to Enthalpy=                  0.057182
 Thermal correction to Gibbs Free Energy=         0.036131
 Sum of electronic and zero-point Energies=           -100.047985
 Sum of electronic and thermal Energies=              -100.045624
 Sum of electronic and thermal Enthalpies=            -100.044680
 Sum of electronic and thermal Free Energies=         -100.065731

                     E (Thermal)             CV                S
                      KCal/Mol        Cal/Mol-Kelvin    Cal/Mol-Kelvin
 Total                   35.290              4.968             44.307
 Electronic               0.000              0.000              1.377
 Translational            0.889              2.981             35.068
 Rotational               0.592              1.987              7.861
 Vibrational             33.809              0.000              0.000

 Normal termination of Gaussian 16 at Fri Aug 22 15:35:59 2025.
