 Gaussian 16, Revision C.01,
 Gaussian 16:  ES64L-G16RevC.01  3-Jul-2019

 -----------------------------------------
 # sp b3lyp/6-311g** Force nosymm scf=(qc)
 -----------------------------------------

 -------------------
 Title Card Required
 -------------------
 Symbolic Z-matrix:
 Charge =  0 Multiplicity = 2

                          Input orientation:
 ---------------------------------------------------------------------
 Center     Atomic      Atomic             Coordinates (Angstroms)
 Number     Number       Type             X           Y           Z
 ---------------------------------------------------------------------
      1          1           0        0.000000    0.000000    0.000000
      2          1           0       -3.850000    0.000000    0.000000
      3          9           0        1.650000    0.000000    0.000000
 ---------------------------------------------------------------------

 SCF Done:  E(UB3LYP) =  -100.824965953     a.u. after   14 cycles

 Alpha  occ. eigenvalues --  -24.64119  -1.07916  -0.40801  -0.36035  -0.36035
 Alpha  occ. eigenvalues --   -0.33604
 Alpha virt. eigenvalues --   -0.17776   0.19594   0.26587   0.94048   0.94048
 Alpha virt. eigenvalues --    0.98831   1.07320   1.23868   1.23897   1.23897
 Alpha virt. eigenvalues --    1.26323   1.26323   1.70708   2.11154   2.15422

  Beta  occ. eigenvalues --  -24.65309  -1.11137  -0.43826  -0.37184  -0.37184
  Beta virt. eigenvalues --   -0.15513  -0.05545   0.24722   0.38792   0.94375
  Beta virt. eigenvalues --    0.94375   0.98261   1.06389   1.32587   1.32587
  Beta virt. eigenvalues --    1.46473   1.46747   1.46747   1.73798   2.21649

 Mulliken charges and spin densities:
               1          2
     1  H    0.312617   0.376337
     2  H    0.000767   0.999242
     3  F   -0.313384  -0.375579
 Sum of Mulliken charges =   0.00000   1.00000

 Dipole moment (field-independent basis, Debye):
    X=             -2.5357    Y=              0.0000    Z=              0.0000  Tot=              2.5357
 Quadrupole moment (field-independent basis, Debye-Ang):
   XX=            -10.2667   YY=             -7.3857   ZZ=             -7.3857
   XY=              0.0000   XZ=             -0.0000   YZ=              0.0000

  Exact polarizability:      19.902       0.000       2.133      -0.000       0.000       2.133
 Approx polarizability:      34.612       0.000       2.038      -0.000      -0.000       2.038

 ******    2 imaginary frequencies (negative Signs) ******

                      1                      2                      3
                      A                      A                      A
 Frequencies --  -1828.0509               -30.1343               845.2075
 Red. masses --      1.0585                 1.0531                 1.0306
 Frc consts  --      2.0840                 0.0006                 0.4338
 IR Inten    --     99.0209                 0.0923                93.1119

                      4
                      A
 Frequencies --    845.2075
 Red. masses --      1.0306
 Frc consts  --      0.4338
 IR Inten    --     93.1119

 - Thermochemistry -
 -------------------
 Temperature   298.150 Kelvin.  Pressure   1.00000 Atm.
 Atom     1 has atomic number  1 and mass   1.00783

 Molecular mass:    21.01405 amu.
 Principal axes and moments of inertia in atomic units:
                           1         2         3
     Eigenvalues --     0.00000 109.84421 109.84421
           X            1.00000  -0.00000   0.00000
           Y            0.00000   1.00000   0.00000
           Z            0.00000   0.00000   1.00000
 This molecule is a prolate symmetric top.
 Rotational symmetry number  1.
 Rotational temperature (Kelvin)      0.78852
 Rotational constant (GHZ):          16.430007
    2 imaginary frequencies ignored.
 Zero-point vibrational energy      10110.9 (Joules/Mol)
                                    2.41657 (Kcal/Mol)
 Vibrational temperatures:   1216.07  1216.07
          (Kelvin)

 Zero-point correction=                           0.003851 (Hartree/Particle)
 Thermal correction to Energy=                    0.006344
 Thermal correction to Enthalpy=                  0.007288
 Thermal correction to Gibbs Free Energy=        -0.016741
 Sum of electronic and zero-point Energies=           -100.821115
 Sum of electronic and thermal Energies=              -100.818622
 Sum of electronic and thermal Enthalpies=            -100.817678
 Sum of electronic and thermal Free Energies=         -100.841707

                     E (Thermal)             CV                S
                      KCal/Mol        Cal/Mol-Kelvin    Cal/Mol-Kelvin
 Total                    3.981              6.126             50.574
 Electronic               0.000              0.000              1.377
 Translational            0.889              2.981             35.068
 Rotational               0.592              1.987             13.782
 Vibrational              2.500              1.158              0.347

 Normal termination of Gaussian 16 at Fri Aug 22 16:35:58 2025.
