 Gaussian 16, Revision C.01,
 Gaussian 16:  ES64L-G16RevC.01  3-Jul-2019

 -----------------------------------------
 # sp b3lyp/6-311g** Force nosymm scf=(qc)
 -----------------------------------------

 -------------------
 Title Card Required
 -------------------
 Symbolic Z-matrix:
 Charge =  0 Multiplicity = 2

                          Input orientation:
 ---------------------------------------------------------------------
 Center     Atomic      Atomic             Coordinates (Angstroms)
 Number     Number       Type             X           Y           Z
 ---------------------------------------------------------------------
      1          1           0        0.000000    0.000000    0.000000
      2          1           0       -2.150000    0.000000    0.000000
      3          9           0        3.850000    0.000000    0.000000
 ---------------------------------------------------------------------

 SCF Done:  E(UB3LYP) =  -100.768926418     a.u. after   96 cycles

 Alpha  occ. eigenvalues --  -24.75880  -1.21808  -0.55005  -0.46187  -0.46187
 Alpha  occ. eigenvalues --   -0.32792
 Alpha virt. eigenvalues --   -0.10397   0.26004   0.33360   0.86733   0.91160
 Alpha virt. eigenvalues --    0.91160   1.01145   1.22333   1.25095   1.25095
 Alpha virt. eigenvalues --    1.39201   1.39201   1.46661   2.13857   2.35463

  Beta  occ. eigenvalues --  -24.72737  -1.12773  -0.43037  -0.43037  -0.32877
  Beta virt. eigenvalues --   -0.25759  -0.10229   0.25859   0.33626   0.92658
  Beta virt. eigenvalues --    0.92658   0.96083   1.05265   1.22276   1.25000
  Beta virt. eigenvalues --    1.25000   1.39430   1.39430   1.46834   2.14070

 Mulliken charges and spin densities:
               1          2
     1  H    0.000744  -0.907801
     2  H    0.002366   0.911442
     3  F   -0.003110   0.996360
 Sum of Mulliken charges =   0.00000   1.00000

 Dipole moment (field-independent basis, Debye):
    X=             -0.0853    Y=             -0.0000    Z=             -0.0000  Tot=              0.0853
 Quadrupole moment (field-independent basis, Debye-Ang):
   XX=             -6.4961   YY=             -7.7070   ZZ=             -7.7070
   XY=             -0.0001   XZ=             -0.0000   YZ=              0.0000

  Exact polarizability:      29.171      -0.000       2.012      -0.000       0.000       2.012
 Approx polarizability:      24.882      -0.000       1.933      -0.000       0.000       1.933

 ******    2 imaginary frequencies (negative Signs) ******

                      1                      2                      3
                      A                      A                      A
 Frequencies --  -1096.2674               -85.6615               430.9280
 Red. masses --      1.0078                 1.1085                 1.0124
 Frc consts  --      0.7136                 0.0048                 0.1108
 IR Inten    --      1.3689                 1.3396                 0.0000

                      4
                      A
 Frequencies --    430.9280
 Red. masses --      1.0124
 Frc consts  --      0.1108
 IR Inten    --      0.0000

 - Thermochemistry -
 -------------------
 Temperature   298.150 Kelvin.  Pressure   1.00000 Atm.
 Atom     1 has atomic number  1 and mass   1.00783

 Molecular mass:    21.01405 amu.
 Principal axes and moments of inertia in atomic units:
                           1         2         3
     Eigenvalues --     0.00000 166.16386 166.16386
           X            1.00000  -0.00000   0.00000
           Y            0.00000   1.00000   0.00000
           Z            0.00000   0.00000   1.00000
 This molecule is a prolate symmetric top.
 Rotational symmetry number  1.
 Rotational temperature (Kelvin)      0.52126
 Rotational constant (GHZ):          10.861214
    2 imaginary frequencies ignored.
 Zero-point vibrational energy       5155.0 (Joules/Mol)
                                    1.23208 (Kcal/Mol)
 Warning -- explicit consideration of   2 degrees of freedom as
           vibrations may cause significant error
 Vibrational temperatures:    620.01   620.01
          (Kelvin)

 Zero-point correction=                           0.001963 (Hartree/Particle)
 Thermal correction to Energy=                    0.004885
 Thermal correction to Enthalpy=                  0.005829
 Thermal correction to Gibbs Free Energy=        -0.019239
 Sum of electronic and zero-point Energies=           -100.766963
 Sum of electronic and thermal Energies=              -100.764042
 Sum of electronic and thermal Enthalpies=            -100.763097
 Sum of electronic and thermal Free Energies=         -100.788166

                     E (Thermal)             CV                S
                      KCal/Mol        Cal/Mol-Kelvin    Cal/Mol-Kelvin
 Total                    3.065              7.774             52.761
 Electronic               0.000              0.000              1.377
 Translational            0.889              2.981             35.068
 Rotational               0.592              1.987             14.604
 Vibrational              1.584              2.806              1.711
 Vibration     1          0.792              1.403              0.856
 Vibration     2          0.792              1.403              0.856

 Normal termination of Gaussian 16 at Sat Aug 23 01:08:20 2025.
