 Gaussian 16, Revision C.01,
 Gaussian 16:  ES64L-G16RevC.01  3-Jul-2019

 -----------------------------------------
 # sp b3lyp/6-311g** Force nosymm scf=(qc)
 -----------------------------------------

 -------------------
 Title Card Required
 -------------------
 Symbolic Z-matrix:
 Charge =  0 Multiplicity = 2

                          Input orientation:
 ---------------------------------------------------------------------
 Center     Atomic      Atomic             Coordinates (Angstroms)
 Number     Number       Type             X           Y           Z
 ---------------------------------------------------------------------
      1          1           0        0.000000    0.000000    0.000000
      2          1           0       -1.750000    0.000000    0.000000
      3          9           0        0.550000    0.000000    0.000000
 ---------------------------------------------------------------------

 SCF Done:  E(UB3LYP) =  -100.516417213     a.u. after    7 cycles

 Alpha  occ. eigenvalues --  -24.62727  -1.38558  -0.62536  -0.43675  -0.43675
 Alpha  occ. eigenvalues --   -0.35333
 Alpha virt. eigenvalues --    0.12790   0.23097   0.57585   0.91083   0.91083
 Alpha virt. eigenvalues --    0.91604   1.21419   1.21419   1.31731   1.54802
 Alpha virt. eigenvalues --    1.54802   1.62064   2.02560   2.19569   3.68353

  Beta  occ. eigenvalues --  -24.62678  -1.38404  -0.62344  -0.43647  -0.43647
  Beta virt. eigenvalues --   -0.10425   0.14042   0.33039   0.60923   0.91111
  Beta virt. eigenvalues --    0.91111   0.91715   1.38575   1.40195   1.40195
  Beta virt. eigenvalues --    1.55809   1.55809   1.71113   2.04430   2.44968

 Mulliken charges and spin densities:
               1          2
     1  H    0.172129   0.014601
     2  H    0.010993   0.983227
     3  F   -0.183122   0.002173
 Sum of Mulliken charges =   0.00000   1.00000

 Dipole moment (field-independent basis, Debye):
    X=             -1.4126    Y=             -0.0000    Z=              0.0000  Tot=              1.4126
 Quadrupole moment (field-independent basis, Debye-Ang):
   XX=             -6.6299   YY=             -6.4461   ZZ=             -6.4461
   XY=             -0.0000   XZ=              0.0000   YZ=              0.0000

  Exact polarizability:       5.709      -0.000       2.481       0.000      -0.000       2.481
 Approx polarizability:       5.446       0.000       2.482      -0.000      -0.000       2.482

 ******    2 imaginary frequencies (negative Signs) ******

                      1                      2                      3
                      A                      A                      A
 Frequencies --  -7378.0197             -7378.0197               612.8612
 Red. masses --      1.0355                 1.0355                 1.0533
 Frc consts  --     33.2110                33.2110                 0.2331
 IR Inten    --    205.0057               205.0057                 0.8851

                      4
                      A
 Frequencies --  15777.2486
 Red. masses --      1.0582
 Frc consts  --    155.2019
 IR Inten    --    101.0831

 - Thermochemistry -
 -------------------
 Temperature   298.150 Kelvin.  Pressure   1.00000 Atm.
 Atom     1 has atomic number  1 and mass   1.00783

 Molecular mass:    21.01405 amu.
 Principal axes and moments of inertia in atomic units:
                           1         2         3
     Eigenvalues --     0.00000  18.72546  18.72546
           X            1.00000  -0.00000   0.00000
           Y            0.00000   1.00000   0.00000
           Z            0.00000   0.00000   1.00000
 This molecule is a prolate symmetric top.
 Rotational symmetry number  1.
 Rotational temperature (Kelvin)      4.62546
 Rotational constant (GHZ):          96.379028
    2 imaginary frequencies ignored.
 Zero-point vibrational energy      98034.6 (Joules/Mol)
                                   23.43084 (Kcal/Mol)
 Warning -- explicit consideration of   1 degrees of freedom as
           vibrations may cause significant error
 Vibrational temperatures:    881.77 22699.94
          (Kelvin)

 Zero-point correction=                           0.037339 (Hartree/Particle)
 Thermal correction to Energy=                    0.039853
 Thermal correction to Enthalpy=                  0.040797
 Thermal correction to Gibbs Free Energy=         0.018400
 Sum of electronic and zero-point Energies=           -100.479078
 Sum of electronic and thermal Energies=              -100.476564
 Sum of electronic and thermal Enthalpies=            -100.475620
 Sum of electronic and thermal Free Energies=         -100.498018

                     E (Thermal)             CV                S
                      KCal/Mol        Cal/Mol-Kelvin    Cal/Mol-Kelvin
 Total                   25.008              5.973             47.139
 Electronic               0.000              0.000              1.377
 Translational            0.889              2.981             35.068
 Rotational               0.592              1.987             10.266
 Vibrational             23.527              1.005              0.428
 Vibration     1          0.972              1.005              0.428

 Normal termination of Gaussian 16 at Fri Aug 22 15:39:10 2025.
