 Gaussian 16, Revision C.01,
 Gaussian 16:  ES64L-G16RevC.01  3-Jul-2019

 -----------------------------------------
 # sp b3lyp/6-311g** Force nosymm scf=(qc)
 -----------------------------------------

 -------------------
 Title Card Required
 -------------------
 Symbolic Z-matrix:
 Charge =  0 Multiplicity = 2

                          Input orientation:
 ---------------------------------------------------------------------
 Center     Atomic      Atomic             Coordinates (Angstroms)
 Number     Number       Type             X           Y           Z
 ---------------------------------------------------------------------
      1          1           0        0.000000    0.000000    0.000000
      2          1           0       -3.450000    0.000000    0.000000
      3          9           0        3.950000    0.000000    0.000000
 ---------------------------------------------------------------------

 SCF Done:  E(UB3LYP) =  -100.758710753     a.u. after   37 cycles

 Alpha  occ. eigenvalues --  -24.75856  -1.21785  -0.54980  -0.46163  -0.46163
 Alpha  occ. eigenvalues --   -0.32268
 Alpha virt. eigenvalues --   -0.06744   0.24435   0.37591   0.86622   0.91186
 Alpha virt. eigenvalues --    0.91186   1.01117   1.25237   1.25237   1.25416
 Alpha virt. eigenvalues --    1.45469   1.45707   1.45707   2.15167   2.41075

  Beta  occ. eigenvalues --  -24.72712  -1.12744  -0.43011  -0.43011  -0.32474
  Beta virt. eigenvalues --   -0.25720  -0.06524   0.24277   0.37896   0.92684
  Beta virt. eigenvalues --    0.92684   0.95987   1.05238   1.25015   1.25015
  Beta virt. eigenvalues --    1.25179   1.45811   1.46038   1.46038   2.15161

 Mulliken charges and spin densities:
               1          2
     1  H    0.002776  -0.994383
     2  H    0.000083   0.997565
     3  F   -0.002860   0.996817
 Sum of Mulliken charges =  -0.00000   1.00000

 Dipole moment (field-independent basis, Debye):
    X=             -0.0599    Y=              0.0000    Z=             -0.0000  Tot=              0.0599
 Quadrupole moment (field-independent basis, Debye-Ang):
   XX=             -6.9248   YY=             -7.6246   ZZ=             -7.6246
   XY=              0.0000   XZ=             -0.0000   YZ=              0.0000

  Exact polarizability:      12.018      -0.000       2.105      -0.000       0.000       2.106
 Approx polarizability:       8.964       0.000       1.936      -0.000      -0.000       1.936

 ******    2 imaginary frequencies (negative Signs) ******

                      1                      2                      3
                      A                      A                      A
 Frequencies --   -203.5800               -72.5039                64.9053
 Red. masses --      1.0105                 1.1053                 1.0164
 Frc consts  --      0.0247                 0.0034                 0.0025
 IR Inten    --      0.9702                 0.5460                 0.0021

                      4
                      A
 Frequencies --     64.9461
 Red. masses --      1.0164
 Frc consts  --      0.0025
 IR Inten    --      0.0021

 - Thermochemistry -
 -------------------
 Temperature   298.150 Kelvin.  Pressure   1.00000 Atm.
 Atom     1 has atomic number  1 and mass   1.00783

 Molecular mass:    21.01405 amu.
 Principal axes and moments of inertia in atomic units:
                           1         2         3
     Eigenvalues --     0.00000 230.99958 230.99958
           X            1.00000  -0.00000   0.00000
           Y            0.00000   1.00000   0.00000
           Z            0.00000   0.00000   1.00000
 This molecule is a prolate symmetric top.
 Rotational symmetry number  1.
 Rotational temperature (Kelvin)      0.37495
 Rotational constant (GHZ):           7.812747
    2 imaginary frequencies ignored.
 Zero-point vibrational energy        776.7 (Joules/Mol)
                                    0.18563 (Kcal/Mol)
 Warning -- explicit consideration of   2 degrees of freedom as
           vibrations may cause significant error
 Vibrational temperatures:     93.38    93.44
          (Kelvin)

 Zero-point correction=                           0.000296 (Hartree/Particle)
 Thermal correction to Energy=                    0.004264
 Thermal correction to Enthalpy=                  0.005208
 Thermal correction to Gibbs Free Energy=        -0.023446
 Sum of electronic and zero-point Energies=           -100.758415
 Sum of electronic and thermal Energies=              -100.754446
 Sum of electronic and thermal Enthalpies=            -100.753502
 Sum of electronic and thermal Free Energies=         -100.782156

                     E (Thermal)             CV                S
                      KCal/Mol        Cal/Mol-Kelvin    Cal/Mol-Kelvin
 Total                    2.676              8.910             60.307
 Electronic               0.000              0.000              1.377
 Translational            0.889              2.981             35.068
 Rotational               0.592              1.987             15.259
 Vibrational              1.195              3.942              8.603
 Vibration     1          0.597              1.971              4.302
 Vibration     2          0.597              1.971              4.301

 Normal termination of Gaussian 16 at Sat Aug 23 01:41:45 2025.
