 Gaussian 16, Revision C.01,
 Gaussian 16:  ES64L-G16RevC.01  3-Jul-2019

 -----------------------------------------
 # sp b3lyp/6-311g** Force nosymm scf=(qc)
 -----------------------------------------

 -------------------
 Title Card Required
 -------------------
 Symbolic Z-matrix:
 Charge =  0 Multiplicity = 2

                          Input orientation:
 ---------------------------------------------------------------------
 Center     Atomic      Atomic             Coordinates (Angstroms)
 Number     Number       Type             X           Y           Z
 ---------------------------------------------------------------------
      1          1           0        0.000000    0.000000    0.000000
      2          1           0       -2.250000    0.000000    0.000000
      3          9           0        1.900000    0.000000    0.000000
 ---------------------------------------------------------------------

 SCF Done:  E(UB3LYP) =  -100.801289031     a.u. after   14 cycles

 Alpha  occ. eigenvalues --  -24.67202  -1.13501  -0.46190  -0.38862  -0.38862
 Alpha  occ. eigenvalues --   -0.35873
 Alpha virt. eigenvalues --   -0.14017   0.23953   0.30104   0.90871   0.95068
 Alpha virt. eigenvalues --    0.95068   1.05964   1.21884   1.21884   1.26988
 Alpha virt. eigenvalues --    1.34095   1.34095   1.64618   2.11832   2.27957

  Beta  occ. eigenvalues --  -24.65016  -1.07428  -0.38187  -0.36716  -0.36716
  Beta virt. eigenvalues --   -0.20367  -0.10757   0.25256   0.33340   0.92778
  Beta virt. eigenvalues --    0.95461   0.95461   1.08714   1.23410   1.23410
  Beta virt. eigenvalues --    1.38807   1.38807   1.42222   1.59551   2.12622

 Mulliken charges and spin densities:
               1          2
     1  H    0.189779  -0.630551
     2  H    0.031478   0.943340
     3  F   -0.221257   0.687210
 Sum of Mulliken charges =  -0.00000   1.00000

 Dipole moment (field-independent basis, Debye):
    X=             -2.4077    Y=             -0.0000    Z=             -0.0000  Tot=              2.4077
 Quadrupole moment (field-independent basis, Debye-Ang):
   XX=             -9.1598   YY=             -7.5068   ZZ=             -7.5068
   XY=             -0.0000   XZ=             -0.0000   YZ=              0.0000

  Exact polarizability:      41.153      -0.000       2.079      -0.000       0.000       2.079
 Approx polarizability:      49.852      -0.000       1.976      -0.000      -0.000       1.976

 ******    2 imaginary frequencies (negative Signs) ******

                      1                      2                      3
                      A                      A                      A
 Frequencies --  -1463.8824              -500.1253               612.7298
 Red. masses --      1.0368                 1.0754                 1.0201
 Frc consts  --      1.3091                 0.1585                 0.2257
 IR Inten    --     90.9054                22.7340                27.0248

                      4
                      A
 Frequencies --    612.7298
 Red. masses --      1.0201
 Frc consts  --      0.2257
 IR Inten    --     27.0248

 - Thermochemistry -
 -------------------
 Temperature   298.150 Kelvin.  Pressure   1.00000 Atm.
 Atom     1 has atomic number  1 and mass   1.00783

 Molecular mass:    21.01405 amu.
 Principal axes and moments of inertia in atomic units:
                           1         2         3
     Eigenvalues --     0.00000  68.65850  68.65850
           X            1.00000  -0.00000   0.00000
           Y            0.00000   1.00000   0.00000
           Z            0.00000   0.00000   1.00000
 This molecule is a prolate symmetric top.
 Rotational symmetry number  1.
 Rotational temperature (Kelvin)      1.26152
 Rotational constant (GHZ):          26.285765
    2 imaginary frequencies ignored.
 Zero-point vibrational energy       7329.9 (Joules/Mol)
                                    1.75188 (Kcal/Mol)
 Warning -- explicit consideration of   2 degrees of freedom as
           vibrations may cause significant error
 Vibrational temperatures:    881.58   881.58
          (Kelvin)

 Zero-point correction=                           0.002792 (Hartree/Particle)
 Thermal correction to Energy=                    0.005458
 Thermal correction to Enthalpy=                  0.006403
 Thermal correction to Gibbs Free Energy=        -0.017425
 Sum of electronic and zero-point Energies=           -100.798497
 Sum of electronic and thermal Energies=              -100.795831
 Sum of electronic and thermal Enthalpies=            -100.794886
 Sum of electronic and thermal Free Energies=         -100.818714

                     E (Thermal)             CV                S
                      KCal/Mol        Cal/Mol-Kelvin    Cal/Mol-Kelvin
 Total                    3.425              6.978             50.150
 Electronic               0.000              0.000              1.377
 Translational            0.889              2.981             35.068
 Rotational               0.592              1.987             12.848
 Vibrational              1.944              2.010              0.857
 Vibration     1          0.972              1.005              0.428
 Vibration     2          0.972              1.005              0.428

 Normal termination of Gaussian 16 at Fri Aug 22 16:50:15 2025.
