 Gaussian 16, Revision C.01,
 Gaussian 16:  ES64L-G16RevC.01  3-Jul-2019

 -----------------------------------------
 # sp b3lyp/6-311g** Force nosymm scf=(qc)
 -----------------------------------------

 -------------------
 Title Card Required
 -------------------
 Symbolic Z-matrix:
 Charge =  0 Multiplicity = 2

                          Input orientation:
 ---------------------------------------------------------------------
 Center     Atomic      Atomic             Coordinates (Angstroms)
 Number     Number       Type             X           Y           Z
 ---------------------------------------------------------------------
      1          1           0        0.000000    0.000000    0.000000
      2          1           0       -1.050000    0.000000    0.000000
      3          9           0        0.950000    0.000000    0.000000
 ---------------------------------------------------------------------

 SCF Done:  E(UB3LYP) =  -100.960894748     a.u. after    6 cycles

 Alpha  occ. eigenvalues --  -24.64580  -1.18708  -0.58101  -0.39807  -0.39807
 Alpha  occ. eigenvalues --   -0.36309
 Alpha virt. eigenvalues --    0.13166   0.18865   0.45596   0.90725   0.90725
 Alpha virt. eigenvalues --    0.97150   1.08427   1.08427   1.41595   1.59096
 Alpha virt. eigenvalues --    1.59096   1.64498   2.16211   2.30976   2.98718

  Beta  occ. eigenvalues --  -24.63828  -1.16804  -0.53439  -0.39142  -0.39142
  Beta virt. eigenvalues --   -0.17642   0.14970   0.22320   0.51059   0.92167
  Beta virt. eigenvalues --    0.92167   0.98683   1.14740   1.14740   1.44433
  Beta virt. eigenvalues --    1.64248   1.64248   1.72741   2.17735   2.44096

 Mulliken charges and spin densities:
               1          2
     1  H    0.276648  -0.013621
     2  H    0.015562   0.826775
     3  F   -0.292210   0.186846
 Sum of Mulliken charges =   0.00000   1.00000

 Dipole moment (field-independent basis, Debye):
    X=             -1.9311    Y=             -0.0000    Z=             -0.0000  Tot=              1.9311
 Quadrupole moment (field-independent basis, Debye-Ang):
   XX=             -7.6079   YY=             -6.6730   ZZ=             -6.6730
   XY=             -0.0000   XZ=             -0.0000   YZ=              0.0000

  Exact polarizability:      13.386      -0.000       2.581       0.000      -0.000       2.581
 Approx polarizability:      15.105       0.000       2.608       0.000      -0.000       2.608

 ******    2 imaginary frequencies (negative Signs) ******

                      1                      2                      3
                      A                      A                      A
 Frequencies --   -771.0988              -771.0988              1336.3793
 Red. masses --      1.0192                 1.0192                 1.0454
 Frc consts  --      0.3571                 0.3571                 1.1000
 IR Inten    --     70.6648                70.6648                51.7663

                      4
                      A
 Frequencies --   3140.5711
 Red. masses --      1.0664
 Frc consts  --      6.1971
 IR Inten    --     39.4180

 - Thermochemistry -
 -------------------
 Temperature   298.150 Kelvin.  Pressure   1.00000 Atm.
 Atom     1 has atomic number  1 and mass   1.00783

 Molecular mass:    21.01405 amu.
 Principal axes and moments of inertia in atomic units:
                           1         2         3
     Eigenvalues --     0.00000  16.14203  16.14203
           X            1.00000  -0.00000   0.00000
           Y            0.00000   1.00000   0.00000
           Z            0.00000   0.00000   1.00000
 This molecule is a prolate symmetric top.
 Rotational symmetry number  1.
 Rotational temperature (Kelvin)      5.36574
 Rotational constant (GHZ):         111.803872
    2 imaginary frequencies ignored.
 Zero-point vibrational energy      26778.1 (Joules/Mol)
                                    6.40012 (Kcal/Mol)
 Vibrational temperatures:   1922.75  4518.58
          (Kelvin)

 Zero-point correction=                           0.010199 (Hartree/Particle)
 Thermal correction to Energy=                    0.012569
 Thermal correction to Enthalpy=                  0.013514
 Thermal correction to Gibbs Free Energy=        -0.008552
 Sum of electronic and zero-point Energies=           -100.950696
 Sum of electronic and thermal Energies=              -100.948325
 Sum of electronic and thermal Enthalpies=            -100.947381
 Sum of electronic and thermal Free Energies=         -100.969446

                     E (Thermal)             CV                S
                      KCal/Mol        Cal/Mol-Kelvin    Cal/Mol-Kelvin
 Total                    7.887              5.099             46.440
 Electronic               0.000              0.000              1.377
 Translational            0.889              2.981             35.068
 Rotational               0.592              1.987              9.971
 Vibrational              6.406              0.131              0.023

 Normal termination of Gaussian 16 at Fri Aug 22 15:57:30 2025.
