 Gaussian 16, Revision C.01,
 Gaussian 16:  ES64L-G16RevC.01  3-Jul-2019

 -----------------------------------------
 # sp b3lyp/6-311g** Force nosymm scf=(qc)
 -----------------------------------------

 -------------------
 Title Card Required
 -------------------
 Symbolic Z-matrix:
 Charge =  0 Multiplicity = 2

                          Input orientation:
 ---------------------------------------------------------------------
 Center     Atomic      Atomic             Coordinates (Angstroms)
 Number     Number       Type             X           Y           Z
 ---------------------------------------------------------------------
      1          1           0        0.000000    0.000000    0.000000
      2          1           0       -2.950000    0.000000    0.000000
      3          9           0        3.950000    0.000000    0.000000
 ---------------------------------------------------------------------

 SCF Done:  E(UB3LYP) =  -100.759684178     a.u. after   44 cycles

 Alpha  occ. eigenvalues --  -24.75866  -1.21794  -0.54991  -0.46172  -0.46172
 Alpha  occ. eigenvalues --   -0.32357
 Alpha virt. eigenvalues --   -0.07814   0.25145   0.36356   0.86619   0.91178
 Alpha virt. eigenvalues --    0.91178   1.01110   1.25185   1.25185   1.25980
 Alpha virt. eigenvalues --    1.44213   1.44213   1.44253   2.15875   2.39376

  Beta  occ. eigenvalues --  -24.72722  -1.12753  -0.43020  -0.43020  -0.32537
  Beta virt. eigenvalues --   -0.25728  -0.07593   0.24988   0.36646   0.92676
  Beta virt. eigenvalues --    0.92676   0.95989   1.05234   1.24989   1.24989
  Beta virt. eigenvalues --    1.25766   1.44542   1.44542   1.44582   2.15908

 Mulliken charges and spin densities:
               1          2
     1  H    0.002448  -0.988164
     2  H    0.000308   0.991258
     3  F   -0.002756   0.996906
 Sum of Mulliken charges =   0.00000   1.00000

 Dipole moment (field-independent basis, Debye):
    X=             -0.0607    Y=              0.0000    Z=             -0.0000  Tot=              0.0607
 Quadrupole moment (field-independent basis, Debye-Ang):
   XX=             -6.8522   YY=             -7.6385   ZZ=             -7.6385
   XY=              0.0000   XZ=             -0.0000   YZ=              0.0000

  Exact polarizability:      14.557       0.000       2.029      -0.000      -0.000       2.029
 Approx polarizability:      10.924       0.000       1.934      -0.000       0.000       1.934

 ******    2 imaginary frequencies (negative Signs) ******

                      1                      2                      3
                      A                      A                      A
 Frequencies --   -357.7502               -76.8990               127.2644
 Red. masses --      1.0081                 1.1082                 1.0148
 Frc consts  --      0.0760                 0.0039                 0.0097
 IR Inten    --      0.7545                 0.7250                 0.0051

                      4
                      A
 Frequencies --    127.2644
 Red. masses --      1.0148
 Frc consts  --      0.0097
 IR Inten    --      0.0051

 - Thermochemistry -
 -------------------
 Temperature   298.150 Kelvin.  Pressure   1.00000 Atm.
 Atom     1 has atomic number  1 and mass   1.00783

 Molecular mass:    21.01405 amu.
 Principal axes and moments of inertia in atomic units:
                           1         2         3
     Eigenvalues --     0.00000 207.18261 207.18261
           X            1.00000  -0.00000   0.00000
           Y            0.00000   1.00000   0.00000
           Z            0.00000   0.00000   1.00000
 This molecule is a prolate symmetric top.
 Rotational symmetry number  1.
 Rotational temperature (Kelvin)      0.41806
 Rotational constant (GHZ):           8.710872
    2 imaginary frequencies ignored.
 Zero-point vibrational energy       1522.4 (Joules/Mol)
                                    0.36387 (Kcal/Mol)
 Warning -- explicit consideration of   2 degrees of freedom as
           vibrations may cause significant error
 Vibrational temperatures:    183.11   183.11
          (Kelvin)

 Zero-point correction=                           0.000580 (Hartree/Particle)
 Thermal correction to Energy=                    0.004308
 Thermal correction to Enthalpy=                  0.005252
 Thermal correction to Gibbs Free Energy=        -0.022050
 Sum of electronic and zero-point Energies=           -100.759104
 Sum of electronic and thermal Energies=              -100.755376
 Sum of electronic and thermal Enthalpies=            -100.754432
 Sum of electronic and thermal Free Energies=         -100.781734

                     E (Thermal)             CV                S
                      KCal/Mol        Cal/Mol-Kelvin    Cal/Mol-Kelvin
 Total                    2.703              8.820             57.462
 Electronic               0.000              0.000              1.377
 Translational            0.889              2.981             35.068
 Rotational               0.592              1.987             15.043
 Vibrational              1.222              3.852              5.974
 Vibration     1          0.611              1.926              2.987
 Vibration     2          0.611              1.926              2.987

 Normal termination of Gaussian 16 at Sat Aug 23 01:40:36 2025.
