 Gaussian 16, Revision C.01,
 Gaussian 16:  ES64L-G16RevC.01  3-Jul-2019

 -----------------------------------------
 # sp b3lyp/6-311g** Force nosymm scf=(qc)
 -----------------------------------------

 -------------------
 Title Card Required
 -------------------
 Symbolic Z-matrix:
 Charge =  0 Multiplicity = 2

                          Input orientation:
 ---------------------------------------------------------------------
 Center     Atomic      Atomic             Coordinates (Angstroms)
 Number     Number       Type             X           Y           Z
 ---------------------------------------------------------------------
      1          1           0        0.000000    0.000000    0.000000
      2          1           0       -0.950000    0.000000    0.000000
      3          9           0        1.600000    0.000000    0.000000
 ---------------------------------------------------------------------

 SCF Done:  E(UB3LYP) =  -100.925337293     a.u. after    8 cycles

 Alpha  occ. eigenvalues --  -24.70546  -1.17330  -0.53147  -0.42055  -0.42055
 Alpha  occ. eigenvalues --   -0.41575
 Alpha virt. eigenvalues --    0.03776   0.20253   0.36455   0.89977   0.89977
 Alpha virt. eigenvalues --    0.97341   1.07269   1.07269   1.16759   1.64740
 Alpha virt. eigenvalues --    1.66892   1.66892   2.20142   2.33466   2.59864

  Beta  occ. eigenvalues --  -24.67999  -1.10284  -0.43935  -0.39565  -0.39565
  Beta virt. eigenvalues --   -0.23917   0.05756   0.21479   0.38027   0.91034
  Beta virt. eigenvalues --    0.91034   1.03757   1.09663   1.09663   1.19917
  Beta virt. eigenvalues --    1.68033   1.68306   1.68306   2.22120   2.36342

 Mulliken charges and spin densities:
               1          2
     1  H    0.114337  -0.082602
     2  H    0.045501   0.300811
     3  F   -0.159838   0.781791
 Sum of Mulliken charges =   0.00000   1.00000

 Dipole moment (field-independent basis, Debye):
    X=             -1.4378    Y=              0.0000    Z=             -0.0000  Tot=              1.4378
 Quadrupole moment (field-independent basis, Debye-Ang):
   XX=             -7.0873   YY=             -7.0231   ZZ=             -7.0231
   XY=              0.0000   XZ=             -0.0000   YZ=              0.0000

  Exact polarizability:      27.689      -0.000       2.312       0.000       0.000       2.312
 Approx polarizability:      38.706      -0.000       2.321       0.000      -0.000       2.321

 ******    1 imaginary frequencies (negative Signs) ******

                      1                      2                      3
                      A                      A                      A
 Frequencies --  -1027.2348              1269.3223              1269.3223
 Red. masses --      1.0876                 1.0129                 1.0129
 Frc consts  --      0.6762                 0.9615                 0.9615
 IR Inten    --    481.1412                 1.3857                 1.3857

                      4
                      A
 Frequencies --   1558.6567
 Red. masses --      1.0258
 Frc consts  --      1.4683
 IR Inten    --    565.3113

 - Thermochemistry -
 -------------------
 Temperature   298.150 Kelvin.  Pressure   1.00000 Atm.
 Atom     1 has atomic number  1 and mass   1.00783

 Molecular mass:    21.01405 amu.
 Principal axes and moments of inertia in atomic units:
                           1         2         3
     Eigenvalues --     0.00000  29.64329  29.64329
           X            1.00000  -0.00000   0.00000
           Y            0.00000   1.00000   0.00000
           Z            0.00000   0.00000   1.00000
 This molecule is a prolate symmetric top.
 Rotational symmetry number  1.
 Rotational temperature (Kelvin)      2.92187
 Rotational constant (GHZ):          60.881942
    1 imaginary frequencies ignored.
 Zero-point vibrational energy      24507.3 (Joules/Mol)
                                    5.85739 (Kcal/Mol)
 Vibrational temperatures:   1826.27  1826.27  2242.56
          (Kelvin)

 Zero-point correction=                           0.009334 (Hartree/Particle)
 Thermal correction to Energy=                    0.011724
 Thermal correction to Enthalpy=                  0.012668
 Thermal correction to Gibbs Free Energy=        -0.009993
 Sum of electronic and zero-point Energies=           -100.916003
 Sum of electronic and thermal Energies=              -100.913613
 Sum of electronic and thermal Enthalpies=            -100.912669
 Sum of electronic and thermal Free Energies=         -100.935331

                     E (Thermal)             CV                S
                      KCal/Mol        Cal/Mol-Kelvin    Cal/Mol-Kelvin
 Total                    7.357              5.356             47.695
 Electronic               0.000              0.000              1.377
 Translational            0.889              2.981             35.068
 Rotational               0.592              1.987             11.179
 Vibrational              5.876              0.388              0.071

 Normal termination of Gaussian 16 at Fri Aug 22 16:30:11 2025.
