 Gaussian 16, Revision C.01,
 Gaussian 16:  ES64L-G16RevC.01  3-Jul-2019

 -----------------------------------------
 # sp b3lyp/6-311g** Force nosymm scf=(qc)
 -----------------------------------------

 -------------------
 Title Card Required
 -------------------
 Symbolic Z-matrix:
 Charge =  0 Multiplicity = 2

                          Input orientation:
 ---------------------------------------------------------------------
 Center     Atomic      Atomic             Coordinates (Angstroms)
 Number     Number       Type             X           Y           Z
 ---------------------------------------------------------------------
      1          1           0        0.000000    0.000000    0.000000
      2          1           0       -3.600000    0.000000    0.000000
      3          9           0        1.950000    0.000000    0.000000
 ---------------------------------------------------------------------

 SCF Done:  E(UB3LYP) =  -100.790774867     a.u. after   19 cycles

 Alpha  occ. eigenvalues --  -24.67844  -1.14148  -0.46790  -0.39433  -0.39433
 Alpha  occ. eigenvalues --   -0.33433
 Alpha virt. eigenvalues --   -0.14086   0.22166   0.31385   0.89497   0.94869
 Alpha virt. eigenvalues --    0.94869   1.05648   1.24079   1.24079   1.24135
 Alpha virt. eigenvalues --    1.34953   1.34953   1.62876   2.13819   2.28727

  Beta  occ. eigenvalues --  -24.65562  -1.07788  -0.38268  -0.37188  -0.37188
  Beta virt. eigenvalues --   -0.20408  -0.06834   0.22344   0.37939   0.90582
  Beta virt. eigenvalues --    0.95355   0.95355   1.08085   1.22251   1.22251
  Beta virt. eigenvalues --    1.45628   1.46036   1.46036   1.56349   2.11847

 Mulliken charges and spin densities:
               1          2
     1  H    0.206861  -0.715867
     2  H    0.001326   0.998144
     3  F   -0.208187   0.717723
 Sum of Mulliken charges =   0.00000   1.00000

 Dipole moment (field-independent basis, Debye):
    X=             -2.0218    Y=              0.0000    Z=              0.0000  Tot=              2.0218
 Quadrupole moment (field-independent basis, Debye-Ang):
   XX=            -10.0904   YY=             -7.4770   ZZ=             -7.4770
   XY=             -0.0000   XZ=             -0.0000   YZ=              0.0000

  Exact polarizability:      25.046      -0.000       2.069      -0.000       0.000       2.069
 Approx polarizability:      36.838      -0.000       1.955      -0.000      -0.000       1.955

 ******    2 imaginary frequencies (negative Signs) ******

                      1                      2                      3
                      A                      A                      A
 Frequencies --  -1214.8051              -106.0569               517.9635
 Red. masses --      1.0574                 1.0541                 1.0268
 Frc consts  --      0.9194                 0.0070                 0.1623
 IR Inten    --    125.8646                 0.1834                40.1541

                      4
                      A
 Frequencies --    517.9635
 Red. masses --      1.0268
 Frc consts  --      0.1623
 IR Inten    --     40.1541

 - Thermochemistry -
 -------------------
 Temperature   298.150 Kelvin.  Pressure   1.00000 Atm.
 Atom     1 has atomic number  1 and mass   1.00783

 Molecular mass:    21.01405 amu.
 Principal axes and moments of inertia in atomic units:
                           1         2         3
     Eigenvalues --     0.00000 114.83455 114.83455
           X            1.00000  -0.00000   0.00000
           Y            0.00000   1.00000   0.00000
           Z            0.00000   0.00000   1.00000
 This molecule is a prolate symmetric top.
 Rotational symmetry number  1.
 Rotational temperature (Kelvin)      0.75425
 Rotational constant (GHZ):          15.716012
    2 imaginary frequencies ignored.
 Zero-point vibrational energy       6196.2 (Joules/Mol)
                                    1.48093 (Kcal/Mol)
 Warning -- explicit consideration of   2 degrees of freedom as
           vibrations may cause significant error
 Vibrational temperatures:    745.23   745.23
          (Kelvin)

 Zero-point correction=                           0.002360 (Hartree/Particle)
 Thermal correction to Energy=                    0.005143
 Thermal correction to Enthalpy=                  0.006087
 Thermal correction to Gibbs Free Energy=        -0.018404
 Sum of electronic and zero-point Energies=           -100.788415
 Sum of electronic and thermal Energies=              -100.785632
 Sum of electronic and thermal Enthalpies=            -100.784688
 Sum of electronic and thermal Free Energies=         -100.809178

                     E (Thermal)             CV                S
                      KCal/Mol        Cal/Mol-Kelvin    Cal/Mol-Kelvin
 Total                    3.227              7.388             51.545
 Electronic               0.000              0.000              1.377
 Translational            0.889              2.981             35.068
 Rotational               0.592              1.987             13.870
 Vibrational              1.746              2.420              1.229
 Vibration     1          0.873              1.210              0.615
 Vibration     2          0.873              1.210              0.615

 Normal termination of Gaussian 16 at Fri Aug 22 16:54:39 2025.
