 Gaussian 16, Revision C.01,
 Gaussian 16:  ES64L-G16RevC.01  3-Jul-2019

 -----------------------------------------
 # sp b3lyp/6-311g** Force nosymm scf=(qc)
 -----------------------------------------

 -------------------
 Title Card Required
 -------------------
 Symbolic Z-matrix:
 Charge =  0 Multiplicity = 2

                          Input orientation:
 ---------------------------------------------------------------------
 Center     Atomic      Atomic             Coordinates (Angstroms)
 Number     Number       Type             X           Y           Z
 ---------------------------------------------------------------------
      1          1           0        0.000000    0.000000    0.000000
      2          1           0       -1.100000    0.000000    0.000000
      3          9           0        0.500000    0.000000    0.000000
 ---------------------------------------------------------------------

 SCF Done:  E(UB3LYP) =  -100.229479836     a.u. after    7 cycles

 Alpha  occ. eigenvalues --  -24.64895  -1.45548  -0.66702  -0.46217  -0.46217
 Alpha  occ. eigenvalues --   -0.33946
 Alpha virt. eigenvalues --    0.16226   0.20950   0.80195   0.86759   0.86875
 Alpha virt. eigenvalues --    0.86875   1.12493   1.12493   1.51112   1.76278
 Alpha virt. eigenvalues --    1.76448   1.76448   2.18032   2.44266   3.74855

  Beta  occ. eigenvalues --  -24.64646  -1.44663  -0.65678  -0.46039  -0.46039
  Beta virt. eigenvalues --   -0.11012   0.17032   0.28930   0.85665   0.87684
  Beta virt. eigenvalues --    0.87768   0.87768   1.22683   1.22683   1.51659
  Beta virt. eigenvalues --    1.81613   1.81613   1.82663   2.30058   2.60939

 Mulliken charges and spin densities:
               1          2
     1  H    0.157478  -0.001835
     2  H   -0.029696   0.991036
     3  F   -0.127782   0.010800
 Sum of Mulliken charges =   0.00000   1.00000

 Dipole moment (field-independent basis, Debye):
    X=             -0.9340    Y=              0.0000    Z=             -0.0000  Tot=              0.9340
 Quadrupole moment (field-independent basis, Debye-Ang):
   XX=             -7.0006   YY=             -6.3333   ZZ=             -6.3333
   XY=              0.0000   XZ=             -0.0000   YZ=             -0.0000

  Exact polarizability:       5.808       0.000       2.477      -0.000       0.000       2.477
 Approx polarizability:       5.476      -0.000       2.531       0.000       0.000       2.531

 ******    2 imaginary frequencies (negative Signs) ******

                      1                      2                      3
                      A                      A                      A
 Frequencies --  -9302.0262             -9302.0262              1964.1353
 Red. masses --      1.0296                 1.0296                 1.0538
 Frc consts  --     52.4896                52.4896                 2.3953
 IR Inten    --    189.3064               189.3064                74.2024

                      4
                      A
 Frequencies --  19179.7823
 Red. masses --      1.0577
 Frc consts  --    229.2509
 IR Inten    --     35.8158

 - Thermochemistry -
 -------------------
 Temperature   298.150 Kelvin.  Pressure   1.00000 Atm.
 Atom     1 has atomic number  1 and mass   1.00783

 Molecular mass:    21.01405 amu.
 Principal axes and moments of inertia in atomic units:
                           1         2         3
     Eigenvalues --     0.00000   9.35202   9.35202
           X            1.00000  -0.00000   0.00000
           Y            0.00000   1.00000   0.00000
           Z            0.00000   0.00000   1.00000
 This molecule is a prolate symmetric top.
 Rotational symmetry number  1.
 Rotational temperature (Kelvin)      9.26152
 Rotational constant (GHZ):         192.978809
    2 imaginary frequencies ignored.
 Zero-point vibrational energy     126468.7 (Joules/Mol)
                                   30.22675 (Kcal/Mol)
 Vibrational temperatures:   2825.95 27595.43
          (Kelvin)

 Zero-point correction=                           0.048169 (Hartree/Particle)
 Thermal correction to Energy=                    0.050531
 Thermal correction to Enthalpy=                  0.051475
 Thermal correction to Gibbs Free Energy=         0.029935
 Sum of electronic and zero-point Energies=           -100.181310
 Sum of electronic and thermal Energies=              -100.178949
 Sum of electronic and thermal Enthalpies=            -100.178005
 Sum of electronic and thermal Free Energies=         -100.199544

                     E (Thermal)             CV                S
                      KCal/Mol        Cal/Mol-Kelvin    Cal/Mol-Kelvin
 Total                   31.708              4.982             45.333
 Electronic               0.000              0.000              1.377
 Translational            0.889              2.981             35.068
 Rotational               0.592              1.987              8.886
 Vibrational             30.227              0.014              0.002

 Normal termination of Gaussian 16 at Fri Aug 22 15:36:17 2025.
