 Gaussian 16, Revision C.01,
 Gaussian 16:  ES64L-G16RevC.01  3-Jul-2019

 -----------------------------------------
 # sp b3lyp/6-311g** Force nosymm scf=(qc)
 -----------------------------------------

 -------------------
 Title Card Required
 -------------------
 Symbolic Z-matrix:
 Charge =  0 Multiplicity = 2

                          Input orientation:
 ---------------------------------------------------------------------
 Center     Atomic      Atomic             Coordinates (Angstroms)
 Number     Number       Type             X           Y           Z
 ---------------------------------------------------------------------
      1          1           0        0.000000    0.000000    0.000000
      2          1           0       -0.600000    0.000000    0.000000
      3          9           0        2.400000    0.000000    0.000000
 ---------------------------------------------------------------------

 SCF Done:  E(UB3LYP) =  -100.914934523     a.u. after   61 cycles

 Alpha  occ. eigenvalues --  -24.76903  -1.22687  -0.55857  -0.48074  -0.47004
 Alpha  occ. eigenvalues --   -0.45201
 Alpha virt. eigenvalues --    0.09953   0.19940   0.52977   0.85574   0.90427
 Alpha virt. eigenvalues --    0.93678   1.10671   1.10706   1.13883   1.61415
 Alpha virt. eigenvalues --    1.82777   1.93217   1.93247   2.40243   3.64387

  Beta  occ. eigenvalues --  -24.73739  -1.13594  -0.46831  -0.43830  -0.43267
  Beta virt. eigenvalues --   -0.26467   0.10070   0.20027   0.53073   0.91917
  Beta virt. eigenvalues --    0.94988   0.95533   1.10702   1.10708   1.17454
  Beta virt. eigenvalues --    1.61431   1.82784   1.93219   1.93246   2.40266

 Mulliken charges and spin densities:
               1          2
     1  H   -0.010750  -0.002528
     2  H   -0.006114  -0.000084
     3  F    0.016864   1.002612
 Sum of Mulliken charges =   0.00000   1.00000

 Dipole moment (field-independent basis, Debye):
    X=              0.1587    Y=              0.0000    Z=              0.0000  Tot=              0.1587
 Quadrupole moment (field-independent basis, Debye-Ang):
   XX=             -5.9888   YY=             -6.7395   ZZ=             -5.8962
   XY=              0.0000   XZ=              0.0000   YZ=              0.0918

  Exact polarizability:       7.042       0.000       1.923       0.000       0.046       2.344
 Approx polarizability:       7.523       0.000       2.010       0.000       0.059       2.548

 ******    2 imaginary frequencies (negative Signs) ******

                      1                      2                      3
                      A                      A                      A
 Frequencies --  -2778.4526             -2744.5194               265.7677
 Red. masses --      1.0091                 1.0091                 1.1085
 Frc consts  --      4.5896                 4.4782                 0.0461
 IR Inten    --      0.0963                 0.1019                 0.5762

                      4
                      A
 Frequencies --   7043.5990
 Red. masses --      1.0078
 Frc consts  --     29.4594
 IR Inten    --      3.9086

 - Thermochemistry -
 -------------------
 Temperature   298.150 Kelvin.  Pressure   1.00000 Atm.
 Atom     1 has atomic number  1 and mass   1.00783

 Molecular mass:    21.01405 amu.
 Principal axes and moments of inertia in atomic units:
                           1         2         3
     Eigenvalues --     0.00000  48.08815  48.08815
           X            1.00000  -0.00000   0.00000
           Y            0.00000   1.00000   0.00000
           Z            0.00000   0.00000   1.00000
 This molecule is a prolate symmetric top.
 Rotational symmetry number  1.
 Rotational temperature (Kelvin)      1.80115
 Rotational constant (GHZ):          37.529854
    2 imaginary frequencies ignored.
 Zero-point vibrational energy      43719.7 (Joules/Mol)
                                   10.44926 (Kcal/Mol)
 Warning -- explicit consideration of   1 degrees of freedom as
           vibrations may cause significant error
 Vibrational temperatures:    382.38 10134.17
          (Kelvin)

 Zero-point correction=                           0.016652 (Hartree/Particle)
 Thermal correction to Energy=                    0.019477
 Thermal correction to Enthalpy=                  0.020421
 Thermal correction to Gibbs Free Energy=        -0.003435
 Sum of electronic and zero-point Energies=           -100.898283
 Sum of electronic and thermal Energies=              -100.895457
 Sum of electronic and thermal Enthalpies=            -100.894513
 Sum of electronic and thermal Free Energies=         -100.918369

                     E (Thermal)             CV                S
                      KCal/Mol        Cal/Mol-Kelvin    Cal/Mol-Kelvin
 Total                   12.222              6.704             50.209
 Electronic               0.000              0.000              1.377
 Translational            0.889              2.981             35.068
 Rotational               0.592              1.987             12.140
 Vibrational             10.741              1.736              1.624
 Vibration     1          0.672              1.736              1.624

 Normal termination of Gaussian 16 at Fri Aug 22 17:29:22 2025.
