 Gaussian 16, Revision C.01,
 Gaussian 16:  ES64L-G16RevC.01  3-Jul-2019

 -----------------------------------------
 # sp b3lyp/6-311g** Force nosymm scf=(qc)
 -----------------------------------------

 -------------------
 Title Card Required
 -------------------
 Symbolic Z-matrix:
 Charge =  0 Multiplicity = 2

                          Input orientation:
 ---------------------------------------------------------------------
 Center     Atomic      Atomic             Coordinates (Angstroms)
 Number     Number       Type             X           Y           Z
 ---------------------------------------------------------------------
      1          1           0        0.000000    0.000000    0.000000
      2          1           0       -3.550000    0.000000    0.000000
      3          9           0        2.900000    0.000000    0.000000
 ---------------------------------------------------------------------

 SCF Done:  E(UB3LYP) =  -100.761804103     a.u. after   20 cycles

 Alpha  occ. eigenvalues --  -24.73701  -1.19790  -0.52820  -0.44353  -0.44353
 Alpha  occ. eigenvalues --   -0.32588
 Alpha virt. eigenvalues --   -0.08459   0.23906   0.35989   0.89667   0.92505
 Alpha virt. eigenvalues --    0.92505   1.04475   1.24917   1.24917   1.25052
 Alpha virt. eigenvalues --    1.43560   1.43560   1.44018   2.14695   2.39563

  Beta  occ. eigenvalues --  -24.70701  -1.11200  -0.41352  -0.41352  -0.33994
  Beta virt. eigenvalues --   -0.24553  -0.06519   0.23939   0.37928   0.93956
  Beta virt. eigenvalues --    0.93956   0.98170   1.08073   1.23325   1.23325
  Beta virt. eigenvalues --    1.24174   1.45898   1.46153   1.46153   2.14639

 Mulliken charges and spin densities:
               1          2
     1  H    0.044697  -0.948530
     2  H    0.000460   0.998181
     3  F   -0.045156   0.950348
 Sum of Mulliken charges =  -0.00000   1.00000

 Dipole moment (field-independent basis, Debye):
    X=             -0.6798    Y=             -0.0000    Z=              0.0000  Tot=              0.6798
 Quadrupole moment (field-independent basis, Debye-Ang):
   XX=             -8.5161   YY=             -7.6038   ZZ=             -7.6038
   XY=             -0.0000   XZ=              0.0000   YZ=              0.0000

  Exact polarizability:      32.104      -0.000       2.025       0.000       0.000       2.025
 Approx polarizability:      34.373      -0.000       1.925       0.000      -0.000       1.925

 ******    2 imaginary frequencies (negative Signs) ******

                      1                      2                      3
                      A                      A                      A
 Frequencies --   -413.6975              -112.7435               148.1797
 Red. masses --      1.0496                 1.0620                 1.0206
 Frc consts  --      0.1058                 0.0080                 0.0132
 IR Inten    --     46.7639                 0.4405                 1.8887

                      4
                      A
 Frequencies --    148.1797
 Red. masses --      1.0206
 Frc consts  --      0.0132
 IR Inten    --      1.8887

 - Thermochemistry -
 -------------------
 Temperature   298.150 Kelvin.  Pressure   1.00000 Atm.
 Atom     1 has atomic number  1 and mass   1.00783

 Molecular mass:    21.01405 amu.
 Principal axes and moments of inertia in atomic units:
                           1         2         3
     Eigenvalues --     0.00000 164.90569 164.90569
           X            1.00000  -0.00000   0.00000
           Y            0.00000   1.00000   0.00000
           Z            0.00000   0.00000   1.00000
 This molecule is a prolate symmetric top.
 Rotational symmetry number  1.
 Rotational temperature (Kelvin)      0.52523
 Rotational constant (GHZ):          10.944081
    2 imaginary frequencies ignored.
 Zero-point vibrational energy       1772.6 (Joules/Mol)
                                    0.42367 (Kcal/Mol)
 Warning -- explicit consideration of   2 degrees of freedom as
           vibrations may cause significant error
 Vibrational temperatures:    213.20   213.20
          (Kelvin)

 Zero-point correction=                           0.000675 (Hartree/Particle)
 Thermal correction to Energy=                    0.004329
 Thermal correction to Enthalpy=                  0.005273
 Thermal correction to Gibbs Free Energy=        -0.021537
 Sum of electronic and zero-point Energies=           -100.761129
 Sum of electronic and thermal Energies=              -100.757475
 Sum of electronic and thermal Enthalpies=            -100.756531
 Sum of electronic and thermal Free Energies=         -100.783341

                     E (Thermal)             CV                S
                      KCal/Mol        Cal/Mol-Kelvin    Cal/Mol-Kelvin
 Total                    2.716              8.777             56.425
 Electronic               0.000              0.000              1.377
 Translational            0.889              2.981             35.068
 Rotational               0.592              1.987             14.589
 Vibrational              1.235              3.809              5.391
 Vibration     1          0.618              1.905              2.695
 Vibration     2          0.618              1.905              2.695

 Normal termination of Gaussian 16 at Fri Aug 22 19:04:50 2025.
