 Gaussian 16, Revision C.01,
 Gaussian 16:  ES64L-G16RevC.01  3-Jul-2019

 -----------------------------------------
 # sp b3lyp/6-311g** Force nosymm scf=(qc)
 -----------------------------------------

 -------------------
 Title Card Required
 -------------------
 Symbolic Z-matrix:
 Charge =  0 Multiplicity = 2

                          Input orientation:
 ---------------------------------------------------------------------
 Center     Atomic      Atomic             Coordinates (Angstroms)
 Number     Number       Type             X           Y           Z
 ---------------------------------------------------------------------
      1          1           0        0.000000    0.000000    0.000000
      2          1           0       -3.400000    0.000000    0.000000
      3          9           0        3.750000    0.000000    0.000000
 ---------------------------------------------------------------------

 SCF Done:  E(UB3LYP) =  -100.758901443     a.u. after   30 cycles

 Alpha  occ. eigenvalues --  -24.75710  -1.21649  -0.54834  -0.46040  -0.46040
 Alpha  occ. eigenvalues --   -0.32301
 Alpha virt. eigenvalues --   -0.06945   0.24454   0.37279   0.86955   0.91278
 Alpha virt. eigenvalues --    0.91278   1.01329   1.25207   1.25207   1.25420
 Alpha virt. eigenvalues --    1.45185   1.45418   1.45418   2.15213   2.40897

  Beta  occ. eigenvalues --  -24.72576  -1.12638  -0.42897  -0.42897  -0.32595
  Beta virt. eigenvalues --   -0.25649  -0.06623   0.24260   0.37802   0.92774
  Beta virt. eigenvalues --    0.92774   0.96235   1.05414   1.24878   1.24878
  Beta virt. eigenvalues --    1.25073   1.45695   1.45927   1.45927   2.15288

 Mulliken charges and spin densities:
               1          2
     1  H    0.005379  -0.991148
     2  H    0.000142   0.997259
     3  F   -0.005521   0.993889
 Sum of Mulliken charges =  -0.00000   1.00000

 Dipole moment (field-independent basis, Debye):
    X=             -0.1091    Y=             -0.0000    Z=              0.0000  Tot=              0.1091
 Quadrupole moment (field-independent basis, Debye-Ang):
   XX=             -7.0800   YY=             -7.6250   ZZ=             -7.6250
   XY=             -0.0000   XZ=              0.0000   YZ=             -0.0000

  Exact polarizability:      17.102       0.000       2.016       0.000      -0.000       2.016
 Approx polarizability:      12.687      -0.000       1.935       0.000       0.000       1.935

 ******    2 imaginary frequencies (negative Signs) ******

                      1                      2                      3
                      A                      A                      A
 Frequencies --   -228.2750               -91.2640                79.0736
 Red. masses --      1.0137                 1.1015                 1.0168
 Frc consts  --      0.0311                 0.0054                 0.0037
 IR Inten    --      3.0508                 1.1882                 0.0324

                      4
                      A
 Frequencies --     79.0739
 Red. masses --      1.0168
 Frc consts  --      0.0037
 IR Inten    --      0.0324

 - Thermochemistry -
 -------------------
 Temperature   298.150 Kelvin.  Pressure   1.00000 Atm.
 Atom     1 has atomic number  1 and mass   1.00783

 Molecular mass:    21.01405 amu.
 Principal axes and moments of inertia in atomic units:
                           1         2         3
     Eigenvalues --     0.00000 214.09394 214.09394
           X            1.00000  -0.00000   0.00000
           Y            0.00000   1.00000   0.00000
           Z            0.00000   0.00000   1.00000
 This molecule is a prolate symmetric top.
 Rotational symmetry number  1.
 Rotational temperature (Kelvin)      0.40456
 Rotational constant (GHZ):           8.429670
    2 imaginary frequencies ignored.
 Zero-point vibrational energy        945.9 (Joules/Mol)
                                    0.22608 (Kcal/Mol)
 Warning -- explicit consideration of   2 degrees of freedom as
           vibrations may cause significant error
 Vibrational temperatures:    113.77   113.77
          (Kelvin)

 Zero-point correction=                           0.000360 (Hartree/Particle)
 Thermal correction to Energy=                    0.004272
 Thermal correction to Enthalpy=                  0.005216
 Thermal correction to Gibbs Free Energy=        -0.022998
 Sum of electronic and zero-point Energies=           -100.758541
 Sum of electronic and thermal Energies=              -100.754630
 Sum of electronic and thermal Enthalpies=            -100.753686
 Sum of electronic and thermal Free Energies=         -100.781899

                     E (Thermal)             CV                S
                      KCal/Mol        Cal/Mol-Kelvin    Cal/Mol-Kelvin
 Total                    2.681              8.895             59.381
 Electronic               0.000              0.000              1.377
 Translational            0.889              2.981             35.068
 Rotational               0.592              1.987             15.108
 Vibrational              1.199              3.927              7.827
 Vibration     1          0.600              1.963              3.914
 Vibration     2          0.600              1.963              3.914

 Normal termination of Gaussian 16 at Sat Aug 23 00:27:33 2025.
