 Gaussian 16, Revision C.01,
 Gaussian 16:  ES64L-G16RevC.01  3-Jul-2019

 -----------------------------------------
 # sp b3lyp/6-311g** Force nosymm scf=(qc)
 -----------------------------------------

 -------------------
 Title Card Required
 -------------------
 Symbolic Z-matrix:
 Charge =  0 Multiplicity = 2

                          Input orientation:
 ---------------------------------------------------------------------
 Center     Atomic      Atomic             Coordinates (Angstroms)
 Number     Number       Type             X           Y           Z
 ---------------------------------------------------------------------
      1          1           0        0.000000    0.000000    0.000000
      2          1           0       -1.150000    0.000000    0.000000
      3          9           0        0.800000    0.000000    0.000000
 ---------------------------------------------------------------------

 SCF Done:  E(UB3LYP) =  -100.933824591     a.u. after    5 cycles

 Alpha  occ. eigenvalues --  -24.64114  -1.24102  -0.59555  -0.41164  -0.41164
 Alpha  occ. eigenvalues --   -0.35882
 Alpha virt. eigenvalues --    0.14744   0.19570   0.53512   0.91796   0.91796
 Alpha virt. eigenvalues --    0.95604   1.09884   1.09884   1.43143   1.56618
 Alpha virt. eigenvalues --    1.56618   1.66814   2.04777   2.30284   3.22440

  Beta  occ. eigenvalues --  -24.63715  -1.23027  -0.56956  -0.40826  -0.40826
  Beta virt. eigenvalues --   -0.14982   0.15939   0.25056   0.58934   0.92792
  Beta virt. eigenvalues --    0.92792   0.96413   1.18050   1.18050   1.45238
  Beta virt. eigenvalues --    1.62441   1.62441   1.77127   2.05819   2.47308

 Mulliken charges and spin densities:
               1          2
     1  H    0.259482   0.002710
     2  H    0.007508   0.915449
     3  F   -0.266990   0.081841
 Sum of Mulliken charges =   0.00000   1.00000

 Dipole moment (field-independent basis, Debye):
    X=             -1.6887    Y=             -0.0000    Z=              0.0000  Tot=              1.6887
 Quadrupole moment (field-independent basis, Debye-Ang):
   XX=             -7.4193   YY=             -6.5960   ZZ=             -6.5960
   XY=             -0.0000   XZ=              0.0000   YZ=             -0.0000

  Exact polarizability:       9.620       0.000       2.579       0.000      -0.000       2.579
 Approx polarizability:       9.817       0.000       2.610      -0.000      -0.000       2.610

 ******    2 imaginary frequencies (negative Signs) ******

                      1                      2                      3
                      A                      A                      A
 Frequencies --  -2086.0101             -2086.0101              1364.5153
 Red. masses --      1.0229                 1.0229                 1.0538
 Frc consts  --      2.6225                 2.6225                 1.1560
 IR Inten    --    108.8477               108.8477                31.1054

                      4
                      A
 Frequencies --   6194.1077
 Red. masses --      1.0578
 Frc consts  --     23.9113
 IR Inten    --    115.9268

 - Thermochemistry -
 -------------------
 Temperature   298.150 Kelvin.  Pressure   1.00000 Atm.
 Atom     1 has atomic number  1 and mass   1.00783

 Molecular mass:    21.01405 amu.
 Principal axes and moments of inertia in atomic units:
                           1         2         3
     Eigenvalues --     0.00000  14.68326  14.68326
           X            1.00000  -0.00000   0.00000
           Y            0.00000   1.00000   0.00000
           Z            0.00000   0.00000   1.00000
 This molecule is a prolate symmetric top.
 Rotational symmetry number  1.
 Rotational temperature (Kelvin)      5.89882
 Rotational constant (GHZ):         122.911515
    2 imaginary frequencies ignored.
 Zero-point vibrational energy      45210.6 (Joules/Mol)
                                   10.80559 (Kcal/Mol)
 Vibrational temperatures:   1963.23  8911.94
          (Kelvin)

 Zero-point correction=                           0.017220 (Hartree/Particle)
 Thermal correction to Energy=                    0.019589
 Thermal correction to Enthalpy=                  0.020533
 Thermal correction to Gibbs Free Energy=        -0.001441
 Sum of electronic and zero-point Energies=           -100.916605
 Sum of electronic and thermal Energies=              -100.914236
 Sum of electronic and thermal Enthalpies=            -100.913292
 Sum of electronic and thermal Free Energies=         -100.935266

                     E (Thermal)             CV                S
                      KCal/Mol        Cal/Mol-Kelvin    Cal/Mol-Kelvin
 Total                   12.292              5.087             46.249
 Electronic               0.000              0.000              1.377
 Translational            0.889              2.981             35.068
 Rotational               0.592              1.987              9.783
 Vibrational             10.811              0.119              0.021

 Normal termination of Gaussian 16 at Fri Aug 22 15:50:30 2025.
