 Gaussian 16, Revision C.01,
 Gaussian 16:  ES64L-G16RevC.01  3-Jul-2019

 -----------------------------------------
 # sp b3lyp/6-311g** Force nosymm scf=(qc)
 -----------------------------------------

 -------------------
 Title Card Required
 -------------------
 Symbolic Z-matrix:
 Charge =  0 Multiplicity = 2

                          Input orientation:
 ---------------------------------------------------------------------
 Center     Atomic      Atomic             Coordinates (Angstroms)
 Number     Number       Type             X           Y           Z
 ---------------------------------------------------------------------
      1          1           0        0.000000    0.000000    0.000000
      2          1           0       -3.750000    0.000000    0.000000
      3          9           0        3.000000    0.000000    0.000000
 ---------------------------------------------------------------------

 SCF Done:  E(UB3LYP) =  -100.760910135     a.u. after   22 cycles

 Alpha  occ. eigenvalues --  -24.74077  -1.20138  -0.53197  -0.44668  -0.44668
 Alpha  occ. eigenvalues --   -0.32490
 Alpha virt. eigenvalues --   -0.07908   0.23894   0.36219   0.89354   0.92280
 Alpha virt. eigenvalues --    0.92280   1.03880   1.25010   1.25010   1.25068
 Alpha virt. eigenvalues --    1.44252   1.44252   1.44665   2.14525   2.40483

  Beta  occ. eigenvalues --  -24.71050  -1.11464  -0.41638  -0.41638  -0.33726
  Beta virt. eigenvalues --   -0.24769  -0.06194   0.23804   0.38085   0.93742
  Beta virt. eigenvalues --    0.93742   0.98033   1.07593   1.23600   1.23600
  Beta virt. eigenvalues --    1.24005   1.46285   1.46484   1.46484   2.14610

 Mulliken charges and spin densities:
               1          2
     1  H    0.037048  -0.958011
     2  H    0.000235   0.998884
     3  F   -0.037283   0.959127
 Sum of Mulliken charges =  -0.00000   1.00000

 Dipole moment (field-independent basis, Debye):
    X=             -0.5785    Y=             -0.0000    Z=             -0.0000  Tot=              0.5785
 Quadrupole moment (field-independent basis, Debye-Ang):
   XX=             -8.3326   YY=             -7.6065   ZZ=             -7.6065
   XY=              0.0000   XZ=              0.0000   YZ=             -0.0000

  Exact polarizability:      31.185       0.000       2.027       0.000      -0.000       2.027
 Approx polarizability:      31.986       0.000       1.927       0.000       0.000       1.927

 ******    2 imaginary frequencies (negative Signs) ******

                      1                      2                      3
                      A                      A                      A
 Frequencies --   -368.9123               -90.7782               128.7971
 Red. masses --      1.0515                 1.0601                 1.0209
 Frc consts  --      0.0843                 0.0051                 0.0100
 IR Inten    --     39.5453                 0.2124                 1.3067

                      4
                      A
 Frequencies --    128.7972
 Red. masses --      1.0209
 Frc consts  --      0.0100
 IR Inten    --      1.3067

 - Thermochemistry -
 -------------------
 Temperature   298.150 Kelvin.  Pressure   1.00000 Atm.
 Atom     1 has atomic number  1 and mass   1.00783

 Molecular mass:    21.01405 amu.
 Principal axes and moments of inertia in atomic units:
                           1         2         3
     Eigenvalues --     0.00000 179.96246 179.96246
           X            1.00000  -0.00000   0.00000
           Y            0.00000   1.00000   0.00000
           Z            0.00000   0.00000   1.00000
 This molecule is a prolate symmetric top.
 Rotational symmetry number  1.
 Rotational temperature (Kelvin)      0.48129
 Rotational constant (GHZ):          10.028432
    2 imaginary frequencies ignored.
 Zero-point vibrational energy       1540.8 (Joules/Mol)
                                    0.36825 (Kcal/Mol)
 Warning -- explicit consideration of   2 degrees of freedom as
           vibrations may cause significant error
 Vibrational temperatures:    185.31   185.31
          (Kelvin)

 Zero-point correction=                           0.000587 (Hartree/Particle)
 Thermal correction to Energy=                    0.004309
 Thermal correction to Enthalpy=                  0.005253
 Thermal correction to Gibbs Free Energy=        -0.021894
 Sum of electronic and zero-point Energies=           -100.760323
 Sum of electronic and thermal Energies=              -100.756601
 Sum of electronic and thermal Enthalpies=            -100.755657
 Sum of electronic and thermal Free Energies=         -100.782804

                     E (Thermal)             CV                S
                      KCal/Mol        Cal/Mol-Kelvin    Cal/Mol-Kelvin
 Total                    2.704              8.817             57.136
 Electronic               0.000              0.000              1.377
 Translational            0.889              2.981             35.068
 Rotational               0.592              1.987             14.763
 Vibrational              1.223              3.849              5.928
 Vibration     1          0.611              1.924              2.964
 Vibration     2          0.611              1.924              2.964

 Normal termination of Gaussian 16 at Fri Aug 22 19:33:24 2025.
