 Gaussian 16, Revision C.01,
 Gaussian 16:  ES64L-G16RevC.01  3-Jul-2019

 -----------------------------------------
 # sp b3lyp/6-311g** Force nosymm scf=(qc)
 -----------------------------------------

 -------------------
 Title Card Required
 -------------------
 Symbolic Z-matrix:
 Charge =  0 Multiplicity = 2

                          Input orientation:
 ---------------------------------------------------------------------
 Center     Atomic      Atomic             Coordinates (Angstroms)
 Number     Number       Type             X           Y           Z
 ---------------------------------------------------------------------
      1          1           0        0.000000    0.000000    0.000000
      2          1           0       -1.250000    0.000000    0.000000
      3          9           0        2.200000    0.000000    0.000000
 ---------------------------------------------------------------------

 SCF Done:  E(UB3LYP) =  -100.866750765     a.u. after   16 cycles

 Alpha  occ. eigenvalues --  -24.73302  -1.19457  -0.52705  -0.44070  -0.44070
 Alpha  occ. eigenvalues --   -0.38149
 Alpha virt. eigenvalues --   -0.05929   0.22347   0.33825   0.87982   0.92243
 Alpha virt. eigenvalues --    0.92243   1.06484   1.11792   1.11792   1.28587
 Alpha virt. eigenvalues --    1.49623   1.49623   2.01462   2.27853   2.53091

  Beta  occ. eigenvalues --  -24.70391  -1.11167  -0.41168  -0.41168  -0.37735
  Beta virt. eigenvalues --   -0.25164  -0.04751   0.23093   0.34270   0.93594
  Beta virt. eigenvalues --    0.93594   0.94961   1.09411   1.12643   1.12643
  Beta virt. eigenvalues --    1.31527   1.50272   1.50272   2.02473   2.28850

 Mulliken charges and spin densities:
               1          2
     1  H    0.022122  -0.106160
     2  H    0.043055   0.189236
     3  F   -0.065177   0.916924
 Sum of Mulliken charges =  -0.00000   1.00000

 Dipole moment (field-independent basis, Debye):
    X=             -0.9668    Y=              0.0000    Z=             -0.0000  Tot=              0.9668
 Quadrupole moment (field-independent basis, Debye-Ang):
   XX=             -6.6681   YY=             -7.4644   ZZ=             -7.4644
   XY=              0.0000   XZ=             -0.0000   YZ=              0.0000

  Exact polarizability:      44.054       0.000       2.132      -0.000      -0.000       2.132
 Approx polarizability:      61.565      -0.000       2.128       0.000      -0.000       2.128

 ******    2 imaginary frequencies (negative Signs) ******

                      1                      2                      3
                      A                      A                      A
 Frequencies --  -1355.0949              -236.3866              1368.2072
 Red. masses --      1.0132                 1.1021                 1.0125
 Frc consts  --      1.0962                 0.0363                 1.1168
 IR Inten    --    793.0723                 2.8010                 0.0001

                      4
                      A
 Frequencies --   1368.2072
 Red. masses --      1.0125
 Frc consts  --      1.1168
 IR Inten    --      0.0001

 - Thermochemistry -
 -------------------
 Temperature   298.150 Kelvin.  Pressure   1.00000 Atm.
 Atom     1 has atomic number  1 and mass   1.00783

 Molecular mass:    21.01405 amu.
 Principal axes and moments of inertia in atomic units:
                           1         2         3
     Eigenvalues --     0.00000  54.74636  54.74636
           X            1.00000  -0.00000   0.00000
           Y            0.00000   1.00000   0.00000
           Z            0.00000   0.00000   1.00000
 This molecule is a prolate symmetric top.
 Rotational symmetry number  1.
 Rotational temperature (Kelvin)      1.58209
 Rotational constant (GHZ):          32.965504
    2 imaginary frequencies ignored.
 Zero-point vibrational energy      16367.4 (Joules/Mol)
                                    3.91190 (Kcal/Mol)
 Vibrational temperatures:   1968.54  1968.54
          (Kelvin)

 Zero-point correction=                           0.006234 (Hartree/Particle)
 Thermal correction to Energy=                    0.008611
 Thermal correction to Enthalpy=                  0.009556
 Thermal correction to Gibbs Free Energy=        -0.013671
 Sum of electronic and zero-point Energies=           -100.860517
 Sum of electronic and thermal Energies=              -100.858139
 Sum of electronic and thermal Enthalpies=            -100.857195
 Sum of electronic and thermal Free Energies=         -100.880422

                     E (Thermal)             CV                S
                      KCal/Mol        Cal/Mol-Kelvin    Cal/Mol-Kelvin
 Total                    5.404              5.204             48.884
 Electronic               0.000              0.000              1.377
 Translational            0.889              2.981             35.068
 Rotational               0.592              1.987             12.398
 Vibrational              3.923              0.236              0.041

 Normal termination of Gaussian 16 at Fri Aug 22 17:10:56 2025.
