 Gaussian 16, Revision C.01,
 Gaussian 16:  ES64L-G16RevC.01  3-Jul-2019

 -----------------------------------------
 # sp b3lyp/6-311g** Force nosymm scf=(qc)
 -----------------------------------------

 -------------------
 Title Card Required
 -------------------
 Symbolic Z-matrix:
 Charge =  0 Multiplicity = 2

                          Input orientation:
 ---------------------------------------------------------------------
 Center     Atomic      Atomic             Coordinates (Angstroms)
 Number     Number       Type             X           Y           Z
 ---------------------------------------------------------------------
      1          1           0        0.000000    0.000000    0.000000
      2          1           0       -4.000000    0.000000    0.000000
      3          9           0        1.750000    0.000000    0.000000
 ---------------------------------------------------------------------

 SCF Done:  E(UB3LYP) =  -100.805511201     a.u. after   10 cycles

 Alpha  occ. eigenvalues --  -24.64241  -1.08756  -0.40514  -0.35957  -0.35957
 Alpha  occ. eigenvalues --   -0.33632
 Alpha virt. eigenvalues --   -0.19692   0.20091   0.26549   0.94468   0.95245
 Alpha virt. eigenvalues --    0.95245   1.07522   1.23832   1.23872   1.23872
 Alpha virt. eigenvalues --    1.26774   1.26774   1.67994   2.11970   2.16641

  Beta  occ. eigenvalues --  -24.64245  -1.08767  -0.40519  -0.35960  -0.35960
  Beta virt. eigenvalues --   -0.19714  -0.06263   0.22426   0.38070   0.94479
  Beta virt. eigenvalues --    0.95247   0.95247   1.07522   1.26809   1.26809
  Beta virt. eigenvalues --    1.46299   1.46580   1.46580   1.68026   2.14931

 Mulliken charges and spin densities:
               1          2
     1  H    0.320942   0.001974
     2  H    0.000730   0.999234
     3  F   -0.321672  -0.001208
 Sum of Mulliken charges =  -0.00000   1.00000

 Dipole moment (field-independent basis, Debye):
    X=             -2.7972    Y=             -0.0000    Z=             -0.0000  Tot=              2.7972
 Quadrupole moment (field-independent basis, Debye-Ang):
   XX=            -10.9162   YY=             -7.4386   ZZ=             -7.4386
   XY=             -0.0000   XZ=             -0.0000   YZ=             -0.0000

  Exact polarizability:      20.190      -0.000       2.085       0.000      -0.000       2.085
 Approx polarizability:      51.540      -0.000       1.994      -0.000      -0.000       1.994

 ******    2 imaginary frequencies (negative Signs) ******

                      1                      2                      3
                      A                      A                      A
 Frequencies --  -1170.1519               -52.1999               837.9410
 Red. masses --      1.0580                 1.0535                 1.0302
 Frc consts  --      0.8536                 0.0017                 0.4262
 IR Inten    --     28.3270                 0.0676               100.7087

                      4
                      A
 Frequencies --    837.9410
 Red. masses --      1.0302
 Frc consts  --      0.4262
 IR Inten    --    100.7087

 - Thermochemistry -
 -------------------
 Temperature   298.150 Kelvin.  Pressure   1.00000 Atm.
 Atom     1 has atomic number  1 and mass   1.00783

 Molecular mass:    21.01405 amu.
 Principal axes and moments of inertia in atomic units:
                           1         2         3
     Eigenvalues --     0.00000 120.30504 120.30504
           X            1.00000  -0.00000   0.00000
           Y            0.00000   1.00000   0.00000
           Z            0.00000   0.00000   1.00000
 This molecule is a prolate symmetric top.
 Rotational symmetry number  1.
 Rotational temperature (Kelvin)      0.71995
 Rotational constant (GHZ):          15.001376
    2 imaginary frequencies ignored.
 Zero-point vibrational energy      10024.0 (Joules/Mol)
                                    2.39579 (Kcal/Mol)
 Vibrational temperatures:   1205.61  1205.61
          (Kelvin)

 Zero-point correction=                           0.003818 (Hartree/Particle)
 Thermal correction to Energy=                    0.006315
 Thermal correction to Enthalpy=                  0.007259
 Thermal correction to Gibbs Free Energy=        -0.016861
 Sum of electronic and zero-point Energies=           -100.801693
 Sum of electronic and thermal Energies=              -100.799197
 Sum of electronic and thermal Enthalpies=            -100.798252
 Sum of electronic and thermal Free Energies=         -100.822372

                     E (Thermal)             CV                S
                      KCal/Mol        Cal/Mol-Kelvin    Cal/Mol-Kelvin
 Total                    3.963              6.148             50.765
 Electronic               0.000              0.000              1.377
 Translational            0.889              2.981             35.068
 Rotational               0.592              1.987             13.962
 Vibrational              2.481              1.180              0.357

 Normal termination of Gaussian 16 at Fri Aug 22 16:42:09 2025.
