 Gaussian 16, Revision C.01,
 Gaussian 16:  ES64L-G16RevC.01  3-Jul-2019

 -----------------------------------------
 # sp b3lyp/6-311g** Force nosymm scf=(qc)
 -----------------------------------------

 -------------------
 Title Card Required
 -------------------
 Symbolic Z-matrix:
 Charge =  0 Multiplicity = 2

                          Input orientation:
 ---------------------------------------------------------------------
 Center     Atomic      Atomic             Coordinates (Angstroms)
 Number     Number       Type             X           Y           Z
 ---------------------------------------------------------------------
      1          1           0        0.000000    0.000000    0.000000
      2          1           0       -0.550000    0.000000    0.000000
      3          9           0        1.600000    0.000000    0.000000
 ---------------------------------------------------------------------

 SCF Done:  E(UB3LYP) =  -100.891670378     a.u. after    6 cycles

 Alpha  occ. eigenvalues --  -24.73276  -1.19967  -0.57968  -0.46207  -0.44346
 Alpha  occ. eigenvalues --   -0.44346
 Alpha virt. eigenvalues --    0.11839   0.19716   0.51708   0.88845   0.88845
 Alpha virt. eigenvalues --    0.96411   1.11281   1.11281   1.30301   1.68245
 Alpha virt. eigenvalues --    1.83119   1.95495   1.95495   2.49606   3.70553

  Beta  occ. eigenvalues --  -24.70354  -1.11831  -0.51132  -0.41478  -0.41478
  Beta virt. eigenvalues --   -0.23955   0.12515   0.20392   0.53441   0.90088
  Beta virt. eigenvalues --    0.90088   1.03272   1.12675   1.12675   1.33998
  Beta virt. eigenvalues --    1.70414   1.83939   1.96158   1.96158   2.51454

 Mulliken charges and spin densities:
               1          2
     1  H    0.080250  -0.025948
     2  H    0.004512   0.132916
     3  F   -0.084762   0.893032
 Sum of Mulliken charges =   0.00000   1.00000

 Dipole moment (field-independent basis, Debye):
    X=             -0.6555    Y=              0.0000    Z=             -0.0000  Tot=              0.6555
 Quadrupole moment (field-independent basis, Debye-Ang):
   XX=             -6.3523   YY=             -6.5734   ZZ=             -6.5734
   XY=              0.0000   XZ=              0.0000   YZ=             -0.0000

  Exact polarizability:      13.709      -0.000       2.163      -0.000      -0.000       2.163
 Approx polarizability:      15.481       0.000       2.226       0.000       0.000       2.226

 ******    2 imaginary frequencies (negative Signs) ******

                      1                      2                      3
                      A                      A                      A
 Frequencies --  -3784.8857             -3784.8857               470.3502
 Red. masses --      1.0100                 1.0100                 1.1085
 Frc consts  --      8.5243                 8.5243                 0.1445
 IR Inten    --      0.0390                 0.0390                44.9258

                      4
                      A
 Frequencies --   8243.8389
 Red. masses --      1.0078
 Frc consts  --     40.3549
 IR Inten    --    366.5921

 - Thermochemistry -
 -------------------
 Temperature   298.150 Kelvin.  Pressure   1.00000 Atm.
 Atom     1 has atomic number  1 and mass   1.00783

 Molecular mass:    21.01405 amu.
 Principal axes and moments of inertia in atomic units:
                           1         2         3
     Eigenvalues --     0.00000  23.42259  23.42259
           X            1.00000  -0.00000   0.00000
           Y            0.00000   1.00000   0.00000
           Z            0.00000   0.00000   1.00000
 This molecule is a prolate symmetric top.
 Rotational symmetry number  1.
 Rotational temperature (Kelvin)      3.69788
 Rotational constant (GHZ):          77.051295
    2 imaginary frequencies ignored.
 Zero-point vibrational energy      52122.4 (Joules/Mol)
                                   12.45756 (Kcal/Mol)
 Warning -- explicit consideration of   1 degrees of freedom as
           vibrations may cause significant error
 Vibrational temperatures:    676.73 11861.05
          (Kelvin)

 Zero-point correction=                           0.019852 (Hartree/Particle)
 Thermal correction to Energy=                    0.022460
 Thermal correction to Enthalpy=                  0.023404
 Thermal correction to Gibbs Free Energy=         0.000649
 Sum of electronic and zero-point Energies=           -100.871818
 Sum of electronic and thermal Energies=              -100.869211
 Sum of electronic and thermal Enthalpies=            -100.868266
 Sum of electronic and thermal Free Energies=         -100.891022

                     E (Thermal)             CV                S
                      KCal/Mol        Cal/Mol-Kelvin    Cal/Mol-Kelvin
 Total                   14.094              6.284             47.893
 Electronic               0.000              0.000              1.377
 Translational            0.889              2.981             35.068
 Rotational               0.592              1.987             10.711
 Vibrational             12.613              1.316              0.737
 Vibration     1          0.827              1.316              0.737

 Normal termination of Gaussian 16 at Fri Aug 22 16:29:54 2025.
