 Gaussian 16, Revision C.01,
 Gaussian 16:  ES64L-G16RevC.01  3-Jul-2019

 -----------------------------------------
 # sp b3lyp/6-311g** Force nosymm scf=(qc)
 -----------------------------------------

 -------------------
 Title Card Required
 -------------------
 Symbolic Z-matrix:
 Charge =  0 Multiplicity = 2

                          Input orientation:
 ---------------------------------------------------------------------
 Center     Atomic      Atomic             Coordinates (Angstroms)
 Number     Number       Type             X           Y           Z
 ---------------------------------------------------------------------
      1          1           0        0.000000    0.000000    0.000000
      2          1           0       -1.200000    0.000000    0.000000
      3          9           0        1.900000    0.000000    0.000000
 ---------------------------------------------------------------------

 SCF Done:  E(UB3LYP) =  -100.880902640     a.u. after   13 cycles

 Alpha  occ. eigenvalues --  -24.71320  -1.17688  -0.51344  -0.42477  -0.42477
 Alpha  occ. eigenvalues --   -0.39604
 Alpha virt. eigenvalues --   -0.04322   0.21471   0.33345   0.90087   0.92185
 Alpha virt. eigenvalues --    0.92185   1.05984   1.10090   1.10090   1.42388
 Alpha virt. eigenvalues --    1.51630   1.51630   2.07976   2.27827   2.53599

  Beta  occ. eigenvalues --  -24.68624  -1.10097  -0.39808  -0.39808  -0.39481
  Beta virt. eigenvalues --   -0.24491  -0.02431   0.22691   0.33889   0.93304
  Beta virt. eigenvalues --    0.93304   0.96303   1.09065   1.11792   1.11792
  Beta virt. eigenvalues --    1.45880   1.52691   1.52691   2.09986   2.29362

 Mulliken charges and spin densities:
               1          2
     1  H    0.064170  -0.138592
     2  H    0.056368   0.295465
     3  F   -0.120538   0.843127
 Sum of Mulliken charges =  -0.00000   1.00000

 Dipole moment (field-independent basis, Debye):
    X=             -1.4364    Y=              0.0000    Z=             -0.0000  Tot=              1.4364
 Quadrupole moment (field-independent basis, Debye-Ang):
   XX=             -7.0938   YY=             -7.3435   ZZ=             -7.3435
   XY=              0.0000   XZ=             -0.0000   YZ=             -0.0000

  Exact polarizability:      40.641       0.000       2.202      -0.000      -0.000       2.202
 Approx polarizability:      60.357      -0.000       2.188       0.000       0.000       2.188

 ******    2 imaginary frequencies (negative Signs) ******

                      1                      2                      3
                      A                      A                      A
 Frequencies --  -1637.5496               -45.4706              1355.1993
 Red. masses --      1.0193                 1.0949                 1.0133
 Frc consts  --      1.6105                 0.0013                 1.0965
 IR Inten    --   1122.7435                 3.3069                 0.4194

                      4
                      A
 Frequencies --   1355.1993
 Red. masses --      1.0133
 Frc consts  --      1.0965
 IR Inten    --      0.4194

 - Thermochemistry -
 -------------------
 Temperature   298.150 Kelvin.  Pressure   1.00000 Atm.
 Atom     1 has atomic number  1 and mass   1.00783

 Molecular mass:    21.01405 amu.
 Principal axes and moments of inertia in atomic units:
                           1         2         3
     Eigenvalues --     0.00000  43.26372  43.26372
           X            1.00000  -0.00000   0.00000
           Y            0.00000   1.00000   0.00000
           Z            0.00000   0.00000   1.00000
 This molecule is a prolate symmetric top.
 Rotational symmetry number  1.
 Rotational temperature (Kelvin)      2.00200
 Rotational constant (GHZ):          41.714887
    2 imaginary frequencies ignored.
 Zero-point vibrational energy      16211.8 (Joules/Mol)
                                    3.87471 (Kcal/Mol)
 Vibrational temperatures:   1949.83  1949.83
          (Kelvin)

 Zero-point correction=                           0.006175 (Hartree/Particle)
 Thermal correction to Energy=                    0.008553
 Thermal correction to Enthalpy=                  0.009497
 Thermal correction to Gibbs Free Energy=        -0.013508
 Sum of electronic and zero-point Energies=           -100.874728
 Sum of electronic and thermal Energies=              -100.872350
 Sum of electronic and thermal Enthalpies=            -100.871405
 Sum of electronic and thermal Free Energies=         -100.894411

                     E (Thermal)             CV                S
                      KCal/Mol        Cal/Mol-Kelvin    Cal/Mol-Kelvin
 Total                    5.367              5.214             48.419
 Electronic               0.000              0.000              1.377
 Translational            0.889              2.981             35.068
 Rotational               0.592              1.987             11.930
 Vibrational              3.886              0.246              0.043

 Normal termination of Gaussian 16 at Fri Aug 22 16:49:16 2025.
