 Gaussian 16, Revision C.01,
 Gaussian 16:  ES64L-G16RevC.01  3-Jul-2019

 -----------------------------------------
 # sp b3lyp/6-311g** Force nosymm scf=(qc)
 -----------------------------------------

 -------------------
 Title Card Required
 -------------------
 Symbolic Z-matrix:
 Charge =  0 Multiplicity = 2

                          Input orientation:
 ---------------------------------------------------------------------
 Center     Atomic      Atomic             Coordinates (Angstroms)
 Number     Number       Type             X           Y           Z
 ---------------------------------------------------------------------
      1          1           0        0.000000    0.000000    0.000000
      2          1           0       -3.000000    0.000000    0.000000
      3          9           0        3.650000    0.000000    0.000000
 ---------------------------------------------------------------------

 SCF Done:  E(UB3LYP) =  -100.759766568     a.u. after   30 cycles

 Alpha  occ. eigenvalues --  -24.75616  -1.21562  -0.54740  -0.45961  -0.45961
 Alpha  occ. eigenvalues --   -0.32400
 Alpha virt. eigenvalues --   -0.07889   0.25002   0.36167   0.87184   0.91336
 Alpha virt. eigenvalues --    0.91336   1.01481   1.25136   1.25136   1.25847
 Alpha virt. eigenvalues --    1.44076   1.44103   1.44103   2.15762   2.39534

  Beta  occ. eigenvalues --  -24.72488  -1.12570  -0.42825  -0.42825  -0.32721
  Beta virt. eigenvalues --   -0.25604  -0.07489   0.24793   0.36784   0.92830
  Beta virt. eigenvalues --    0.92830   0.96424   1.05548   1.24770   1.24770
  Beta virt. eigenvalues --    1.25450   1.44700   1.44732   1.44732   2.15957

 Mulliken charges and spin densities:
               1          2
     1  H    0.006828  -0.984282
     2  H    0.000490   0.992410
     3  F   -0.007318   0.991873
 Sum of Mulliken charges =  -0.00000   1.00000

 Dipole moment (field-independent basis, Debye):
    X=             -0.1446    Y=              0.0000    Z=              0.0000  Tot=              0.1446
 Quadrupole moment (field-independent basis, Debye-Ang):
   XX=             -7.1205   YY=             -7.6356   ZZ=             -7.6356
   XY=              0.0000   XZ=              0.0000   YZ=             -0.0000

  Exact polarizability:      21.991      -0.000       2.015      -0.000      -0.000       2.015
 Approx polarizability:      16.440       0.000       1.933       0.000       0.000       1.933

 ******    2 imaginary frequencies (negative Signs) ******

                      1                      2                      3
                      A                      A                      A
 Frequencies --   -349.1082              -112.0426               126.1539
 Red. masses --      1.0094                 1.1067                 1.0157
 Frc consts  --      0.0725                 0.0082                 0.0095
 IR Inten    --      3.9033                 2.6525                 0.0498

                      4
                      A
 Frequencies --    126.1540
 Red. masses --      1.0157
 Frc consts  --      0.0095
 IR Inten    --      0.0498

 - Thermochemistry -
 -------------------
 Temperature   298.150 Kelvin.  Pressure   1.00000 Atm.
 Atom     1 has atomic number  1 and mass   1.00783

 Molecular mass:    21.01405 amu.
 Principal axes and moments of inertia in atomic units:
                           1         2         3
     Eigenvalues --     0.00000 188.79308 188.79308
           X            1.00000  -0.00000   0.00000
           Y            0.00000   1.00000   0.00000
           Z            0.00000   0.00000   1.00000
 This molecule is a prolate symmetric top.
 Rotational symmetry number  1.
 Rotational temperature (Kelvin)      0.45878
 Rotational constant (GHZ):           9.559361
    2 imaginary frequencies ignored.
 Zero-point vibrational energy       1509.1 (Joules/Mol)
                                    0.36069 (Kcal/Mol)
 Warning -- explicit consideration of   2 degrees of freedom as
           vibrations may cause significant error
 Vibrational temperatures:    181.51   181.51
          (Kelvin)

 Zero-point correction=                           0.000575 (Hartree/Particle)
 Thermal correction to Energy=                    0.004307
 Thermal correction to Enthalpy=                  0.005251
 Thermal correction to Gibbs Free Energy=        -0.021979
 Sum of electronic and zero-point Energies=           -100.759192
 Sum of electronic and thermal Energies=              -100.755460
 Sum of electronic and thermal Enthalpies=            -100.754516
 Sum of electronic and thermal Free Energies=         -100.781746

                     E (Thermal)             CV                S
                      KCal/Mol        Cal/Mol-Kelvin    Cal/Mol-Kelvin
 Total                    2.703              8.822             57.311
 Electronic               0.000              0.000              1.377
 Translational            0.889              2.981             35.068
 Rotational               0.592              1.987             14.858
 Vibrational              1.221              3.854              6.008
 Vibration     1          0.611              1.927              3.004
 Vibration     2          0.611              1.927              3.004

 Normal termination of Gaussian 16 at Fri Aug 22 23:37:18 2025.
