 Gaussian 16, Revision C.01,
 Gaussian 16:  ES64L-G16RevC.01  3-Jul-2019

 -----------------------------------------
 # sp b3lyp/6-311g** Force nosymm scf=(qc)
 -----------------------------------------

 -------------------
 Title Card Required
 -------------------
 Symbolic Z-matrix:
 Charge =  0 Multiplicity = 2

                          Input orientation:
 ---------------------------------------------------------------------
 Center     Atomic      Atomic             Coordinates (Angstroms)
 Number     Number       Type             X           Y           Z
 ---------------------------------------------------------------------
      1          1           0        0.000000    0.000000    0.000000
      2          1           0       -0.650000    0.000000    0.000000
      3          9           0        1.700000    0.000000    0.000000
 ---------------------------------------------------------------------

 SCF Done:  E(UB3LYP) =  -100.926958205     a.u. after    5 cycles

 Alpha  occ. eigenvalues --  -24.73546  -1.20006  -0.55968  -0.45586  -0.44460
 Alpha  occ. eigenvalues --   -0.44460
 Alpha virt. eigenvalues --    0.10048   0.19996   0.46793   0.89458   0.89458
 Alpha virt. eigenvalues --    0.96015   1.09004   1.09004   1.22983   1.69533
 Alpha virt. eigenvalues --    1.84949   1.88310   1.88310   2.45973   3.62123

  Beta  occ. eigenvalues --  -24.70622  -1.11794  -0.48180  -0.41572  -0.41572
  Beta virt. eigenvalues --   -0.24583   0.10882   0.20705   0.48148   0.90707
  Beta virt. eigenvalues --    0.90707   1.03115   1.10274   1.10274   1.26545
  Beta virt. eigenvalues --    1.71526   1.85720   1.88929   1.88929   2.47400

 Mulliken charges and spin densities:
               1          2
     1  H    0.056079  -0.031514
     2  H    0.019467   0.128367
     3  F   -0.075546   0.903147
 Sum of Mulliken charges =   0.00000   1.00000

 Dipole moment (field-independent basis, Debye):
    X=             -0.6654    Y=              0.0000    Z=              0.0000  Tot=              0.6654
 Quadrupole moment (field-independent basis, Debye-Ang):
   XX=             -6.3492   YY=             -6.7284   ZZ=             -6.7284
   XY=              0.0000   XZ=              0.0000   YZ=              0.0000

  Exact polarizability:      16.451      -0.000       2.161       0.000      -0.000       2.161
 Approx polarizability:      18.938       0.000       2.220       0.000      -0.000       2.220

 ******    2 imaginary frequencies (negative Signs) ******

                      1                      2                      3
                      A                      A                      A
 Frequencies --  -2092.4560             -2092.4560               220.1658
 Red. masses --      1.0104                 1.0104                 1.1085
 Frc consts  --      2.6064                 2.6064                 0.0317
 IR Inten    --      0.0328                 0.0328                49.0412

                      4
                      A
 Frequencies --   5858.0965
 Red. masses --      1.0078
 Frc consts  --     20.3777
 IR Inten    --    413.8142

 - Thermochemistry -
 -------------------
 Temperature   298.150 Kelvin.  Pressure   1.00000 Atm.
 Atom     1 has atomic number  1 and mass   1.00783

 Molecular mass:    21.01405 amu.
 Principal axes and moments of inertia in atomic units:
                           1         2         3
     Eigenvalues --     0.00000  27.44547  27.44547
           X            1.00000  -0.00000   0.00000
           Y            0.00000   1.00000   0.00000
           Z            0.00000   0.00000   1.00000
 This molecule is a prolate symmetric top.
 Rotational symmetry number  1.
 Rotational temperature (Kelvin)      3.15585
 Rotational constant (GHZ):          65.757333
    2 imaginary frequencies ignored.
 Zero-point vibrational energy      36356.1 (Joules/Mol)
                                    8.68931 (Kcal/Mol)
 Warning -- explicit consideration of   1 degrees of freedom as
           vibrations may cause significant error
 Vibrational temperatures:    316.77  8428.49
          (Kelvin)

 Zero-point correction=                           0.013847 (Hartree/Particle)
 Thermal correction to Energy=                    0.016738
 Thermal correction to Enthalpy=                  0.017682
 Thermal correction to Gibbs Free Energy=        -0.005803
 Sum of electronic and zero-point Energies=           -100.913111
 Sum of electronic and thermal Energies=              -100.910221
 Sum of electronic and thermal Enthalpies=            -100.909276
 Sum of electronic and thermal Free Energies=         -100.932762

                     E (Thermal)             CV                S
                      KCal/Mol        Cal/Mol-Kelvin    Cal/Mol-Kelvin
 Total                   10.503              6.778             49.429
 Electronic               0.000              0.000              1.377
 Translational            0.889              2.981             35.068
 Rotational               0.592              1.987             11.026
 Vibrational              9.022              1.810              1.958
 Vibration     1          0.647              1.810              1.958

 Normal termination of Gaussian 16 at Fri Aug 22 16:36:15 2025.
