 Gaussian 16, Revision C.01,
 Gaussian 16:  ES64L-G16RevC.01  3-Jul-2019

 -----------------------------------------
 # sp b3lyp/6-311g** Force nosymm scf=(qc)
 -----------------------------------------

 -------------------
 Title Card Required
 -------------------
 Symbolic Z-matrix:
 Charge =  0 Multiplicity = 2

                          Input orientation:
 ---------------------------------------------------------------------
 Center     Atomic      Atomic             Coordinates (Angstroms)
 Number     Number       Type             X           Y           Z
 ---------------------------------------------------------------------
      1          1           0        0.000000    0.000000    0.000000
      2          1           0       -0.850000    0.000000    0.000000
      3          9           0        1.600000    0.000000    0.000000
 ---------------------------------------------------------------------

 SCF Done:  E(UB3LYP) =  -100.934401899     a.u. after    7 cycles

 Alpha  occ. eigenvalues --  -24.71379  -1.18142  -0.54264  -0.42760  -0.42760
 Alpha  occ. eigenvalues --   -0.42523
 Alpha virt. eigenvalues --    0.06279   0.20148   0.39433   0.89519   0.89519
 Alpha virt. eigenvalues --    0.97076   1.07292   1.07292   1.20586   1.68053
 Alpha virt. eigenvalues --    1.73792   1.73792   2.11022   2.37857   2.79051

  Beta  occ. eigenvalues --  -24.68720  -1.10768  -0.45273  -0.40156  -0.40156
  Beta virt. eigenvalues --   -0.24003   0.07866   0.21168   0.41113   0.90651
  Beta virt. eigenvalues --    0.90651   1.03609   1.09391   1.09391   1.23955
  Beta virt. eigenvalues --    1.70996   1.75017   1.75017   2.12444   2.40125

 Mulliken charges and spin densities:
               1          2
     1  H    0.103030  -0.060256
     2  H    0.035065   0.245258
     3  F   -0.138094   0.814998
 Sum of Mulliken charges =   0.00000   1.00000

 Dipole moment (field-independent basis, Debye):
    X=             -1.2053    Y=              0.0000    Z=              0.0000  Tot=              1.2053
 Quadrupole moment (field-independent basis, Debye-Ang):
   XX=             -6.8950   YY=             -6.9283   ZZ=             -6.9283
   XY=              0.0000   XZ=              0.0000   YZ=             -0.0000

  Exact polarizability:      23.991       0.000       2.288      -0.000       0.000       2.288
 Approx polarizability:      31.753       0.000       2.314      -0.000       0.000       2.314

 ******    1 imaginary frequencies (negative Signs) ******

                      1                      2                      3
                      A                      A                      A
 Frequencies --   -621.4937              1015.5162              1015.5162
 Red. masses --      1.1062                 1.0121                 1.0121
 Frc consts  --      0.2517                 0.6150                 0.6150
 IR Inten    --    163.0045                 0.6134                 0.6134

                      4
                      A
 Frequencies --   2718.4222
 Red. masses --      1.0098
 Frc consts  --      4.3965
 IR Inten    --    730.4223

 - Thermochemistry -
 -------------------
 Temperature   298.150 Kelvin.  Pressure   1.00000 Atm.
 Atom     1 has atomic number  1 and mass   1.00783

 Molecular mass:    21.01405 amu.
 Principal axes and moments of inertia in atomic units:
                           1         2         3
     Eigenvalues --     0.00000  27.98533  27.98533
           X            1.00000  -0.00000   0.00000
           Y            0.00000   1.00000   0.00000
           Z            0.00000   0.00000   1.00000
 This molecule is a prolate symmetric top.
 Rotational symmetry number  1.
 Rotational temperature (Kelvin)      3.09498
 Rotational constant (GHZ):          64.488840
    1 imaginary frequencies ignored.
 Zero-point vibrational energy      28408.0 (Joules/Mol)
                                    6.78969 (Kcal/Mol)
 Vibrational temperatures:   1461.10  1461.10  3911.20
          (Kelvin)

 Zero-point correction=                           0.010820 (Hartree/Particle)
 Thermal correction to Energy=                    0.013250
 Thermal correction to Enthalpy=                  0.014194
 Thermal correction to Gibbs Free Energy=        -0.008463
 Sum of electronic and zero-point Energies=           -100.923582
 Sum of electronic and thermal Energies=              -100.921152
 Sum of electronic and thermal Enthalpies=            -100.920208
 Sum of electronic and thermal Free Energies=         -100.942865

                     E (Thermal)             CV                S
                      KCal/Mol        Cal/Mol-Kelvin    Cal/Mol-Kelvin
 Total                    8.314              5.690             47.686
 Electronic               0.000              0.000              1.377
 Translational            0.889              2.981             35.068
 Rotational               0.592              1.987             11.064
 Vibrational              6.833              0.722              0.176

 Normal termination of Gaussian 16 at Fri Aug 22 16:30:07 2025.
