 Gaussian 16, Revision C.01,
 Gaussian 16:  ES64L-G16RevC.01  3-Jul-2019

 -----------------------------------------
 # sp b3lyp/6-311g** Force nosymm scf=(qc)
 -----------------------------------------

 -------------------
 Title Card Required
 -------------------
 Symbolic Z-matrix:
 Charge =  0 Multiplicity = 2

                          Input orientation:
 ---------------------------------------------------------------------
 Center     Atomic      Atomic             Coordinates (Angstroms)
 Number     Number       Type             X           Y           Z
 ---------------------------------------------------------------------
      1          1           0        0.000000    0.000000    0.000000
      2          1           0       -3.650000    0.000000    0.000000
      3          9           0        1.150000    0.000000    0.000000
 ---------------------------------------------------------------------

 SCF Done:  E(UB3LYP) =  -100.937343524     a.u. after    6 cycles

 Alpha  occ. eigenvalues --  -24.64331  -1.13007  -0.48657  -0.37802  -0.37802
 Alpha  occ. eigenvalues --   -0.33686
 Alpha virt. eigenvalues --   -0.04117   0.22584   0.30176   0.93349   0.93349
 Alpha virt. eigenvalues --    1.00186   1.23771   1.23826   1.23826   1.27625
 Alpha virt. eigenvalues --    1.34927   1.34927   1.75517   2.13782   2.30233

  Beta  occ. eigenvalues --  -24.64329  -1.13001  -0.48651  -0.37800  -0.37800
  Beta virt. eigenvalues --   -0.06591  -0.03175   0.27967   0.39021   0.93349
  Beta virt. eigenvalues --    0.93349   1.00192   1.27603   1.34922   1.34922
  Beta virt. eigenvalues --    1.48723   1.48723   1.49057   1.75540   2.29759

 Mulliken charges and spin densities:
               1          2
     1  H    0.347832   0.000181
     2  H    0.000848   0.999061
     3  F   -0.348680   0.000758
 Sum of Mulliken charges =   0.00000   1.00000

 Dipole moment (field-independent basis, Debye):
    X=             -2.2301    Y=              0.0000    Z=              0.0000  Tot=              2.2301
 Quadrupole moment (field-independent basis, Debye-Ang):
   XX=             -8.7239   YY=             -7.0891   ZZ=             -7.0891
   XY=              0.0000   XZ=              0.0000   YZ=             -0.0000

  Exact polarizability:       8.603      -0.000       2.343       0.000      -0.000       2.343
 Approx polarizability:      11.764      -0.000       2.303      -0.000       0.000       2.303

 ******    1 imaginary frequencies (negative Signs) ******

                      1                      2                      3
                      A                      A                      A
 Frequencies --    -48.6470              1209.0240              1209.0240
 Red. masses --      1.0531                 1.0355                 1.0355
 Frc consts  --      0.0015                 0.8918                 0.8918
 IR Inten    --      0.0547               152.5268               152.5268

                      4
                      A
 Frequencies --   1467.2892
 Red. masses --      1.0585
 Frc consts  --      1.3426
 IR Inten    --     71.3688

 - Thermochemistry -
 -------------------
 Temperature   298.150 Kelvin.  Pressure   1.00000 Atm.
 Atom     1 has atomic number  1 and mass   1.00783

 Molecular mass:    21.01405 amu.
 Principal axes and moments of inertia in atomic units:
                           1         2         3
     Eigenvalues --     0.00000  81.57013  81.57013
           X            1.00000  -0.00000   0.00000
           Y            0.00000   1.00000   0.00000
           Z            0.00000   0.00000   1.00000
 This molecule is a prolate symmetric top.
 Rotational symmetry number  1.
 Rotational temperature (Kelvin)      1.06183
 Rotational constant (GHZ):          22.125026
    1 imaginary frequencies ignored.
 Zero-point vibrational energy      23239.5 (Joules/Mol)
                                    5.55437 (Kcal/Mol)
 Vibrational temperatures:   1739.52  1739.52  2111.10
          (Kelvin)

 Zero-point correction=                           0.008851 (Hartree/Particle)
 Thermal correction to Energy=                    0.011250
 Thermal correction to Enthalpy=                  0.012194
 Thermal correction to Gibbs Free Energy=        -0.011434
 Sum of electronic and zero-point Energies=           -100.928492
 Sum of electronic and thermal Energies=              -100.926094
 Sum of electronic and thermal Enthalpies=            -100.925149
 Sum of electronic and thermal Free Energies=         -100.948777

                     E (Thermal)             CV                S
                      KCal/Mol        Cal/Mol-Kelvin    Cal/Mol-Kelvin
 Total                    7.059              5.450             49.729
 Electronic               0.000              0.000              1.377
 Translational            0.889              2.981             35.068
 Rotational               0.592              1.987             13.190
 Vibrational              5.578              0.482              0.093

 Normal termination of Gaussian 16 at Fri Aug 22 16:08:49 2025.
