 Gaussian 16, Revision C.01,
 Gaussian 16:  ES64L-G16RevC.01  3-Jul-2019

 -----------------------------------------
 # sp b3lyp/6-311g** Force nosymm scf=(qc)
 -----------------------------------------

 -------------------
 Title Card Required
 -------------------
 Symbolic Z-matrix:
 Charge =  0 Multiplicity = 2

                          Input orientation:
 ---------------------------------------------------------------------
 Center     Atomic      Atomic             Coordinates (Angstroms)
 Number     Number       Type             X           Y           Z
 ---------------------------------------------------------------------
      1          1           0        0.000000    0.000000    0.000000
      2          1           0       -1.000000    0.000000    0.000000
      3          9           0        2.400000    0.000000    0.000000
 ---------------------------------------------------------------------

 SCF Done:  E(UB3LYP) =  -100.907759028     a.u. after    8 cycles

 Alpha  occ. eigenvalues --  -24.75414  -1.21382  -0.54678  -0.45810  -0.45810
 Alpha  occ. eigenvalues --   -0.39993
 Alpha virt. eigenvalues --    0.00290   0.21362   0.39326   0.89418   0.91258
 Alpha virt. eigenvalues --    0.91258   1.08082   1.08082   1.10759   1.38436
 Alpha virt. eigenvalues --    1.64740   1.64740   2.21715   2.35864   2.58451

  Beta  occ. eigenvalues --  -24.72337  -1.12563  -0.42732  -0.42732  -0.39854
  Beta virt. eigenvalues --   -0.25973   0.00885   0.21706   0.39731   0.92708
  Beta virt. eigenvalues --    0.92708   0.97704   1.08394   1.08394   1.14695
  Beta virt. eigenvalues --    1.39211   1.64969   1.64969   2.22162   2.36157

 Mulliken charges and spin densities:
               1          2
     1  H   -0.006639  -0.022900
     2  H    0.024420   0.051150
     3  F   -0.017781   0.971750
 Sum of Mulliken charges =   0.00000   1.00000

 Dipole moment (field-independent basis, Debye):
    X=             -0.3315    Y=             -0.0000    Z=             -0.0000  Tot=              0.3315
 Quadrupole moment (field-independent basis, Debye-Ang):
   XX=             -5.9116   YY=             -7.2523   ZZ=             -7.2523
   XY=             -0.0000   XZ=             -0.0000   YZ=             -0.0000

  Exact polarizability:      24.554       0.000       2.077      -0.000      -0.000       2.077
 Approx polarizability:      28.523       0.000       2.137      -0.000       0.000       2.137

 ******    1 imaginary frequencies (negative Signs) ******

                      1                      2                      3
                      A                      A                      A
 Frequencies --   -229.1313              1521.9020              1521.9020
 Red. masses --      1.1083                 1.0107                 1.0107
 Frc consts  --      0.0343                 1.3793                 1.3793
 IR Inten    --     21.3288                 0.3738                 0.3738

                      4
                      A
 Frequencies --   1702.9615
 Red. masses --      1.0080
 Frc consts  --      1.7224
 IR Inten    --    163.1928

 - Thermochemistry -
 -------------------
 Temperature   298.150 Kelvin.  Pressure   1.00000 Atm.
 Atom     1 has atomic number  1 and mass   1.00783

 Molecular mass:    21.01405 amu.
 Principal axes and moments of inertia in atomic units:
                           1         2         3
     Eigenvalues --     0.00000  56.52833  56.52833
           X            1.00000  -0.00000   0.00000
           Y            0.00000   1.00000   0.00000
           Z            0.00000   0.00000   1.00000
 This molecule is a prolate symmetric top.
 Rotational symmetry number  1.
 Rotational temperature (Kelvin)      1.53222
 Rotational constant (GHZ):          31.926313
    1 imaginary frequencies ignored.
 Zero-point vibrational energy      28392.0 (Joules/Mol)
                                    6.78584 (Kcal/Mol)
 Vibrational temperatures:   2189.68  2189.68  2450.18
          (Kelvin)

 Zero-point correction=                           0.010814 (Hartree/Particle)
 Thermal correction to Energy=                    0.013185
 Thermal correction to Enthalpy=                  0.014130
 Thermal correction to Gibbs Free Energy=        -0.009120
 Sum of electronic and zero-point Energies=           -100.896945
 Sum of electronic and thermal Energies=              -100.894574
 Sum of electronic and thermal Enthalpies=            -100.893629
 Sum of electronic and thermal Free Energies=         -100.916879

                     E (Thermal)             CV                S
                      KCal/Mol        Cal/Mol-Kelvin    Cal/Mol-Kelvin
 Total                    8.274              5.143             48.933
 Electronic               0.000              0.000              1.377
 Translational            0.889              2.981             35.068
 Rotational               0.592              1.987             12.462
 Vibrational              6.793              0.175              0.026

 Normal termination of Gaussian 16 at Fri Aug 22 17:30:35 2025.
