 Gaussian 16, Revision C.01,
 Gaussian 16:  ES64L-G16RevC.01  3-Jul-2019

 -----------------------------------------
 # sp b3lyp/6-311g** Force nosymm scf=(qc)
 -----------------------------------------

 -------------------
 Title Card Required
 -------------------
 Symbolic Z-matrix:
 Charge =  0 Multiplicity = 2

                          Input orientation:
 ---------------------------------------------------------------------
 Center     Atomic      Atomic             Coordinates (Angstroms)
 Number     Number       Type             X           Y           Z
 ---------------------------------------------------------------------
      1          1           0        0.000000    0.000000    0.000000
      2          1           0       -3.200000    0.000000    0.000000
      3          9           0        3.150000    0.000000    0.000000
 ---------------------------------------------------------------------

 SCF Done:  E(UB3LYP) =  -100.760611577     a.u. after   24 cycles

 Alpha  occ. eigenvalues --  -24.74587  -1.20609  -0.53707  -0.45095  -0.45095
 Alpha  occ. eigenvalues --   -0.32543
 Alpha virt. eigenvalues --   -0.08218   0.24468   0.35839   0.88878   0.91972
 Alpha virt. eigenvalues --    0.91972   1.03119   1.24977   1.24977   1.25408
 Alpha virt. eigenvalues --    1.43668   1.43668   1.43838   2.15315   2.39932

  Beta  occ. eigenvalues --  -24.71525  -1.11827  -0.42029  -0.42029  -0.33412
  Beta virt. eigenvalues --   -0.25058  -0.07112   0.24334   0.37306   0.93445
  Beta virt. eigenvalues --    0.93445   0.97753   1.06978   1.23967   1.23967
  Beta virt. eigenvalues --    1.24429   1.45160   1.45367   1.45367   2.15733

 Mulliken charges and spin densities:
               1          2
     1  H    0.026230  -0.965919
     2  H    0.000759   0.995582
     3  F   -0.026989   0.970337
 Sum of Mulliken charges =  -0.00000   1.00000

 Dipole moment (field-independent basis, Debye):
    X=             -0.4485    Y=             -0.0000    Z=              0.0000  Tot=              0.4485
 Quadrupole moment (field-independent basis, Debye-Ang):
   XX=             -7.9554   YY=             -7.6211   ZZ=             -7.6211
   XY=              0.0000   XZ=             -0.0000   YZ=              0.0000

  Exact polarizability:      31.993       0.000       2.026      -0.000       0.000       2.026
 Approx polarizability:      29.538       0.000       1.928      -0.000      -0.000       1.928

 ******    2 imaginary frequencies (negative Signs) ******

                      1                      2                      3
                      A                      A                      A
 Frequencies --   -361.1216              -149.9300               128.6447
 Red. masses --      1.0289                 1.0841                 1.0181
 Frc consts  --      0.0791                 0.0144                 0.0099
 IR Inten    --     26.8315                 3.1558                 0.6186

                      4
                      A
 Frequencies --    128.6447
 Red. masses --      1.0181
 Frc consts  --      0.0099
 IR Inten    --      0.6186

 - Thermochemistry -
 -------------------
 Temperature   298.150 Kelvin.  Pressure   1.00000 Atm.
 Atom     1 has atomic number  1 and mass   1.00783

 Molecular mass:    21.01405 amu.
 Principal axes and moments of inertia in atomic units:
                           1         2         3
     Eigenvalues --     0.00000 165.25441 165.25441
           X            1.00000  -0.00000   0.00000
           Y            0.00000   1.00000   0.00000
           Z            0.00000   0.00000   1.00000
 This molecule is a prolate symmetric top.
 Rotational symmetry number  1.
 Rotational temperature (Kelvin)      0.52412
 Rotational constant (GHZ):          10.920987
    2 imaginary frequencies ignored.
 Zero-point vibrational energy       1538.9 (Joules/Mol)
                                    0.36781 (Kcal/Mol)
 Warning -- explicit consideration of   2 degrees of freedom as
           vibrations may cause significant error
 Vibrational temperatures:    185.09   185.09
          (Kelvin)

 Zero-point correction=                           0.000586 (Hartree/Particle)
 Thermal correction to Energy=                    0.004309
 Thermal correction to Enthalpy=                  0.005253
 Thermal correction to Gibbs Free Energy=        -0.021816
 Sum of electronic and zero-point Energies=           -100.760025
 Sum of electronic and thermal Energies=              -100.756302
 Sum of electronic and thermal Enthalpies=            -100.755358
 Sum of electronic and thermal Free Energies=         -100.782427

                     E (Thermal)             CV                S
                      KCal/Mol        Cal/Mol-Kelvin    Cal/Mol-Kelvin
 Total                    2.704              8.817             56.971
 Electronic               0.000              0.000              1.377
 Translational            0.889              2.981             35.068
 Rotational               0.592              1.987             14.593
 Vibrational              1.223              3.849              5.932
 Vibration     1          0.611              1.925              2.966
 Vibration     2          0.611              1.925              2.966

 Normal termination of Gaussian 16 at Fri Aug 22 20:11:26 2025.
