 Gaussian 16, Revision C.01,
 Gaussian 16:  ES64L-G16RevC.01  3-Jul-2019

 -----------------------------------------
 # sp b3lyp/6-311g** Force nosymm scf=(qc)
 -----------------------------------------

 -------------------
 Title Card Required
 -------------------
 Symbolic Z-matrix:
 Charge =  0 Multiplicity = 2

                          Input orientation:
 ---------------------------------------------------------------------
 Center     Atomic      Atomic             Coordinates (Angstroms)
 Number     Number       Type             X           Y           Z
 ---------------------------------------------------------------------
      1          1           0        0.000000    0.000000    0.000000
      2          1           0       -0.800000    0.000000    0.000000
      3          9           0        3.100000    0.000000    0.000000
 ---------------------------------------------------------------------

 SCF Done:  E(UB3LYP) =  -100.932481548     a.u. after   37 cycles

 Alpha  occ. eigenvalues --  -24.76565  -1.22382  -0.55576  -0.46820  -0.46727
 Alpha  occ. eigenvalues --   -0.42049
 Alpha virt. eigenvalues --    0.04983   0.20229   0.45057   0.85876   0.90749
 Alpha virt. eigenvalues --    0.93723   1.04536   1.08389   1.08395   1.52570
 Alpha virt. eigenvalues --    1.79057   1.79064   2.05987   2.38625   3.05501

  Beta  occ. eigenvalues --  -24.73404  -1.13297  -0.43720  -0.43558  -0.41976
  Beta virt. eigenvalues --   -0.26202   0.05017   0.20253   0.45148   0.92248
  Beta virt. eigenvalues --    0.95335   0.95460   1.08309   1.08389   1.08394
  Beta virt. eigenvalues --    1.52582   1.79056   1.79063   2.06013   2.38630

 Mulliken charges and spin densities:
               1          2
     1  H   -0.004286  -0.000923
     2  H   -0.003724  -0.000103
     3  F    0.008010   1.001026
 Sum of Mulliken charges =   0.00000   1.00000

 Dipole moment (field-independent basis, Debye):
    X=              0.0843    Y=             -0.0000    Z=             -0.0000  Tot=              0.0843
 Quadrupole moment (field-independent basis, Debye-Ang):
   XX=             -6.1095   YY=             -6.5946   ZZ=             -6.5950
   XY=             -0.0000   XZ=             -0.0000   YZ=              0.4318

  Exact polarizability:       9.287       0.000       2.217       0.000       0.230       2.217
 Approx polarizability:      10.845      -0.000       2.349       0.000       0.289       2.349

                      1                      2                      3
                      A                      A                      A
 Frequencies --     52.3789              1079.2683              1079.2875
 Red. masses --      1.1085                 1.0091                 1.0091
 Frc consts  --      0.0018                 0.6926                 0.6926
 IR Inten    --      0.2494                 0.0042                 0.0043

                      4
                      A
 Frequencies --   3695.2922
 Red. masses --      1.0078
 Frc consts  --      8.1084
 IR Inten    --      0.3350

 - Thermochemistry -
 -------------------
 Temperature   298.150 Kelvin.  Pressure   1.00000 Atm.
 Atom     1 has atomic number  1 and mass   1.00783

 Molecular mass:    21.01405 amu.
 Principal axes and moments of inertia in atomic units:
                           1         2         3
     Eigenvalues --     0.00000  80.86965  80.86965
           X            1.00000  -0.00000   0.00000
           Y            0.00000   1.00000   0.00000
           Z            0.00000   0.00000   1.00000
 This molecule is a prolate symmetric top.
 Rotational symmetry number  1.
 Rotational temperature (Kelvin)      1.07103
 Rotational constant (GHZ):          22.316668
 Zero-point vibrational energy      35327.1 (Joules/Mol)
                                    8.44338 (Kcal/Mol)
 Warning -- explicit consideration of   1 degrees of freedom as
           vibrations may cause significant error
 Vibrational temperatures:     75.36  1552.83  1552.85  5316.70
          (Kelvin)

 Zero-point correction=                           0.013455 (Hartree/Particle)
 Thermal correction to Energy=                    0.016700
 Thermal correction to Enthalpy=                  0.017644
 Thermal correction to Gibbs Free Energy=        -0.008241
 Sum of electronic and zero-point Energies=           -100.919026
 Sum of electronic and thermal Energies=              -100.915782
 Sum of electronic and thermal Enthalpies=            -100.914838
 Sum of electronic and thermal Free Energies=         -100.940723

                     E (Thermal)             CV                S
                      KCal/Mol        Cal/Mol-Kelvin    Cal/Mol-Kelvin
 Total                   10.479              7.541             54.480
 Electronic               0.000              0.000              1.377
 Translational            0.889              2.981             35.068
 Rotational               0.592              1.987             13.173
 Vibrational              8.998              2.573              4.861
 Vibration     1          0.596              1.977              4.725

 Normal termination of Gaussian 16 at Fri Aug 22 19:47:26 2025.
