 Gaussian 16, Revision C.01,
 Gaussian 16:  ES64L-G16RevC.01  3-Jul-2019

 -----------------------------------------
 # sp b3lyp/6-311g** Force nosymm scf=(qc)
 -----------------------------------------

 -------------------
 Title Card Required
 -------------------
 Symbolic Z-matrix:
 Charge =  0 Multiplicity = 2

                          Input orientation:
 ---------------------------------------------------------------------
 Center     Atomic      Atomic             Coordinates (Angstroms)
 Number     Number       Type             X           Y           Z
 ---------------------------------------------------------------------
      1          1           0        0.000000    0.000000    0.000000
      2          1           0       -1.200000    0.000000    0.000000
      3          9           0        2.050000    0.000000    0.000000
 ---------------------------------------------------------------------

 SCF Done:  E(UB3LYP) =  -100.877447901     a.u. after   13 cycles

 Alpha  occ. eigenvalues --  -24.72585  -1.18821  -0.52215  -0.43496  -0.43496
 Alpha  occ. eigenvalues --   -0.39068
 Alpha virt. eigenvalues --   -0.04610   0.21865   0.34121   0.88491   0.92201
 Alpha virt. eigenvalues --    0.92201   1.06525   1.10370   1.10370   1.36415
 Alpha virt. eigenvalues --    1.51897   1.51897   2.06808   2.28730   2.53680

  Beta  occ. eigenvalues --  -24.69749  -1.10777  -0.40675  -0.40675  -0.38734
  Beta virt. eigenvalues --   -0.24931  -0.03137   0.22772   0.34592   0.93471
  Beta virt. eigenvalues --    0.93471   0.95189   1.09543   1.11528   1.11528
  Beta virt. eigenvalues --    1.39497   1.52712   1.52712   2.08226   2.29923

 Mulliken charges and spin densities:
               1          2
     1  H    0.036385  -0.110659
     2  H    0.048763   0.219970
     3  F   -0.085148   0.890689
 Sum of Mulliken charges =  -0.00000   1.00000

 Dipole moment (field-independent basis, Debye):
    X=             -1.1345    Y=             -0.0000    Z=             -0.0000  Tot=              1.1345
 Quadrupole moment (field-independent basis, Debye-Ang):
   XX=             -6.8224   YY=             -7.3903   ZZ=             -7.3903
   XY=             -0.0000   XZ=             -0.0000   YZ=             -0.0000

  Exact polarizability:      41.369      -0.000       2.163      -0.000      -0.000       2.163
 Approx polarizability:      58.909       0.000       2.159       0.000       0.000       2.159

 ******    2 imaginary frequencies (negative Signs) ******

                      1                      2                      3
                      A                      A                      A
 Frequencies --  -1350.8843              -116.0878              1385.2878
 Red. masses --      1.0182                 1.0962                 1.0128
 Frc consts  --      1.0947                 0.0087                 1.1451
 IR Inten    --    929.0786                 1.1464                 0.0364

                      4
                      A
 Frequencies --   1385.2878
 Red. masses --      1.0128
 Frc consts  --      1.1451
 IR Inten    --      0.0364

 - Thermochemistry -
 -------------------
 Temperature   298.150 Kelvin.  Pressure   1.00000 Atm.
 Atom     1 has atomic number  1 and mass   1.00783

 Molecular mass:    21.01405 amu.
 Principal axes and moments of inertia in atomic units:
                           1         2         3
     Eigenvalues --     0.00000  48.29083  48.29083
           X            1.00000  -0.00000   0.00000
           Y            0.00000   1.00000   0.00000
           Z            0.00000   0.00000   1.00000
 This molecule is a prolate symmetric top.
 Rotational symmetry number  1.
 Rotational temperature (Kelvin)      1.79359
 Rotational constant (GHZ):          37.372335
    2 imaginary frequencies ignored.
 Zero-point vibrational energy      16571.7 (Joules/Mol)
                                    3.96074 (Kcal/Mol)
 Vibrational temperatures:   1993.12  1993.12
          (Kelvin)

 Zero-point correction=                           0.006312 (Hartree/Particle)
 Thermal correction to Energy=                    0.008688
 Thermal correction to Enthalpy=                  0.009632
 Thermal correction to Gibbs Free Energy=        -0.013474
 Sum of electronic and zero-point Energies=           -100.871136
 Sum of electronic and thermal Energies=              -100.868760
 Sum of electronic and thermal Enthalpies=            -100.867816
 Sum of electronic and thermal Free Energies=         -100.890922

                     E (Thermal)             CV                S
                      KCal/Mol        Cal/Mol-Kelvin    Cal/Mol-Kelvin
 Total                    5.452              5.191             48.632
 Electronic               0.000              0.000              1.377
 Translational            0.889              2.981             35.068
 Rotational               0.592              1.987             12.149
 Vibrational              3.971              0.222              0.038

 Normal termination of Gaussian 16 at Fri Aug 22 16:59:23 2025.
