 Gaussian 16, Revision C.01,
 Gaussian 16:  ES64L-G16RevC.01  3-Jul-2019

 -----------------------------------------
 # sp b3lyp/6-311g** Force nosymm scf=(qc)
 -----------------------------------------

 -------------------
 Title Card Required
 -------------------
 Symbolic Z-matrix:
 Charge =  0 Multiplicity = 2

                          Input orientation:
 ---------------------------------------------------------------------
 Center     Atomic      Atomic             Coordinates (Angstroms)
 Number     Number       Type             X           Y           Z
 ---------------------------------------------------------------------
      1          1           0        0.000000    0.000000    0.000000
      2          1           0       -2.250000    0.000000    0.000000
      3          9           0        1.600000    0.000000    0.000000
 ---------------------------------------------------------------------

 SCF Done:  E(UB3LYP) =  -100.838366780     a.u. after   12 cycles

 Alpha  occ. eigenvalues --  -24.64559  -1.10477  -0.43678  -0.36579  -0.36579
 Alpha  occ. eigenvalues --   -0.36512
 Alpha virt. eigenvalues --   -0.13684   0.23472   0.27584   0.94519   0.94519
 Alpha virt. eigenvalues --    1.00316   1.07011   1.21034   1.21034   1.26869
 Alpha virt. eigenvalues --    1.33050   1.33050   1.74774   2.11019   2.23483

  Beta  occ. eigenvalues --  -24.63503  -1.07639  -0.40784  -0.35565  -0.35565
  Beta virt. eigenvalues --   -0.18200  -0.09235   0.25036   0.33717   0.94244
  Beta virt. eigenvalues --    0.94244   1.02082   1.08257   1.28107   1.28107
  Beta virt. eigenvalues --    1.39342   1.39342   1.42877   1.72936   2.14208

 Mulliken charges and spin densities:
               1          2
     1  H    0.294069  -0.286684
     2  H    0.033125   0.954368
     3  F   -0.327194   0.332316
 Sum of Mulliken charges =   0.00000   1.00000

 Dipole moment (field-independent basis, Debye):
    X=             -2.9142    Y=              0.0000    Z=              0.0000  Tot=              2.9142
 Quadrupole moment (field-independent basis, Debye-Ang):
   XX=             -9.2116   YY=             -7.3783   ZZ=             -7.3783
   XY=              0.0000   XZ=              0.0000   YZ=             -0.0000

  Exact polarizability:      31.169       0.000       2.169       0.000       0.000       2.169
 Approx polarizability:      43.338      -0.000       2.086      -0.000       0.000       2.086

 ******    2 imaginary frequencies (negative Signs) ******

                      1                      2                      3
                      A                      A                      A
 Frequencies --  -1935.1775              -401.5606               885.1880
 Red. masses --      1.0457                 1.0661                 1.0226
 Frc consts  --      2.3072                 0.1013                 0.4721
 IR Inten    --     15.4049                 8.8778                68.4752

                      4
                      A
 Frequencies --    885.1880
 Red. masses --      1.0226
 Frc consts  --      0.4721
 IR Inten    --     68.4752

 - Thermochemistry -
 -------------------
 Temperature   298.150 Kelvin.  Pressure   1.00000 Atm.
 Atom     1 has atomic number  1 and mass   1.00783

 Molecular mass:    21.01405 amu.
 Principal axes and moments of inertia in atomic units:
                           1         2         3
     Eigenvalues --     0.00000  57.43291  57.43291
           X            1.00000  -0.00000   0.00000
           Y            0.00000   1.00000   0.00000
           Z            0.00000   0.00000   1.00000
 This molecule is a prolate symmetric top.
 Rotational symmetry number  1.
 Rotational temperature (Kelvin)      1.50809
 Rotational constant (GHZ):          31.423468
    2 imaginary frequencies ignored.
 Zero-point vibrational energy      10589.2 (Joules/Mol)
                                    2.53088 (Kcal/Mol)
 Vibrational temperatures:   1273.59  1273.59
          (Kelvin)

 Zero-point correction=                           0.004033 (Hartree/Particle)
 Thermal correction to Energy=                    0.006508
 Thermal correction to Enthalpy=                  0.007452
 Thermal correction to Gibbs Free Energy=        -0.015941
 Sum of electronic and zero-point Energies=           -100.834334
 Sum of electronic and thermal Energies=              -100.831859
 Sum of electronic and thermal Enthalpies=            -100.830915
 Sum of electronic and thermal Free Energies=         -100.854308

                     E (Thermal)             CV                S
                      KCal/Mol        Cal/Mol-Kelvin    Cal/Mol-Kelvin
 Total                    4.084              6.009             49.235
 Electronic               0.000              0.000              1.377
 Translational            0.889              2.981             35.068
 Rotational               0.592              1.987             12.493
 Vibrational              2.603              1.041              0.296

 Normal termination of Gaussian 16 at Fri Aug 22 16:31:23 2025.
