 Gaussian 16, Revision C.01,
 Gaussian 16:  ES64L-G16RevC.01  3-Jul-2019

 -----------------------------------------
 # sp b3lyp/6-311g** Force nosymm scf=(qc)
 -----------------------------------------

 -------------------
 Title Card Required
 -------------------
 Symbolic Z-matrix:
 Charge =  0 Multiplicity = 2

                          Input orientation:
 ---------------------------------------------------------------------
 Center     Atomic      Atomic             Coordinates (Angstroms)
 Number     Number       Type             X           Y           Z
 ---------------------------------------------------------------------
      1          1           0        0.000000    0.000000    0.000000
      2          1           0       -2.750000    0.000000    0.000000
      3          9           0        3.750000    0.000000    0.000000
 ---------------------------------------------------------------------

 SCF Done:  E(UB3LYP) =  -100.760688001     a.u. after   35 cycles

 Alpha  occ. eigenvalues --  -24.75735  -1.21672  -0.54859  -0.46061  -0.46061
 Alpha  occ. eigenvalues --   -0.32457
 Alpha virt. eigenvalues --   -0.08499   0.25432   0.35473   0.86949   0.91260
 Alpha virt. eigenvalues --    0.91260   1.01312   1.25118   1.25118   1.26353
 Alpha virt. eigenvalues --    1.43108   1.43108   1.43574   2.16030   2.38428

  Beta  occ. eigenvalues --  -24.72599  -1.12658  -0.42918  -0.42918  -0.32692
  Beta virt. eigenvalues --   -0.25667  -0.08178   0.25240   0.35936   0.92756
  Beta virt. eigenvalues --    0.92756   0.96244   1.05407   1.24852   1.24852
  Beta virt. eigenvalues --    1.26055   1.43595   1.43595   1.44060   2.16207

 Mulliken charges and spin densities:
               1          2
     1  H    0.004465  -0.979236
     2  H    0.000755   0.985089
     3  F   -0.005220   0.994147
 Sum of Mulliken charges =  -0.00000   1.00000

 Dipole moment (field-independent basis, Debye):
    X=             -0.1107    Y=             -0.0000    Z=             -0.0000  Tot=              0.1107
 Quadrupole moment (field-independent basis, Debye-Ang):
   XX=             -6.9472   YY=             -7.6482   ZZ=             -7.6482
   XY=             -0.0000   XZ=              0.0000   YZ=              0.0000

  Exact polarizability:      21.576       0.000       2.024      -0.000      -0.000       2.024
 Approx polarizability:      15.916      -0.000       1.932       0.000      -0.000       1.932

 ******    2 imaginary frequencies (negative Signs) ******

                      1                      2                      3
                      A                      A                      A
 Frequencies --   -470.3981              -101.5867               169.3915
 Red. masses --      1.0081                 1.1082                 1.0146
 Frc consts  --      0.1314                 0.0067                 0.0172
 IR Inten    --      2.1342                 2.0562                 0.0164

                      4
                      A
 Frequencies --    169.3915
 Red. masses --      1.0146
 Frc consts  --      0.0172
 IR Inten    --      0.0164

 - Thermochemistry -
 -------------------
 Temperature   298.150 Kelvin.  Pressure   1.00000 Atm.
 Atom     1 has atomic number  1 and mass   1.00783

 Molecular mass:    21.01405 amu.
 Principal axes and moments of inertia in atomic units:
                           1         2         3
     Eigenvalues --     0.00000 184.53465 184.53465
           X            1.00000  -0.00000   0.00000
           Y            0.00000   1.00000   0.00000
           Z            0.00000   0.00000   1.00000
 This molecule is a prolate symmetric top.
 Rotational symmetry number  1.
 Rotational temperature (Kelvin)      0.46936
 Rotational constant (GHZ):           9.779958
    2 imaginary frequencies ignored.
 Zero-point vibrational energy       2026.4 (Joules/Mol)
                                    0.48431 (Kcal/Mol)
 Warning -- explicit consideration of   2 degrees of freedom as
           vibrations may cause significant error
 Vibrational temperatures:    243.72   243.72
          (Kelvin)

 Zero-point correction=                           0.000772 (Hartree/Particle)
 Thermal correction to Energy=                    0.004353
 Thermal correction to Enthalpy=                  0.005297
 Thermal correction to Gibbs Free Energy=        -0.021378
 Sum of electronic and zero-point Energies=           -100.759916
 Sum of electronic and thermal Energies=              -100.756335
 Sum of electronic and thermal Enthalpies=            -100.755391
 Sum of electronic and thermal Free Energies=         -100.782066

                     E (Thermal)             CV                S
                      KCal/Mol        Cal/Mol-Kelvin    Cal/Mol-Kelvin
 Total                    2.731              8.728             56.142
 Electronic               0.000              0.000              1.377
 Translational            0.889              2.981             35.068
 Rotational               0.592              1.987             14.813
 Vibrational              1.250              3.760              4.884
 Vibration     1          0.625              1.880              2.442
 Vibration     2          0.625              1.880              2.442

 Normal termination of Gaussian 16 at Sat Aug 23 00:26:33 2025.
