 Gaussian 16, Revision C.01,
 Gaussian 16:  ES64L-G16RevC.01  3-Jul-2019

 -----------------------------------------
 # sp b3lyp/6-311g** Force nosymm scf=(qc)
 -----------------------------------------

 -------------------
 Title Card Required
 -------------------
 Symbolic Z-matrix:
 Charge =  0 Multiplicity = 2

                          Input orientation:
 ---------------------------------------------------------------------
 Center     Atomic      Atomic             Coordinates (Angstroms)
 Number     Number       Type             X           Y           Z
 ---------------------------------------------------------------------
      1          1           0        0.000000    0.000000    0.000000
      2          1           0       -2.650000    0.000000    0.000000
      3          9           0        1.350000    0.000000    0.000000
 ---------------------------------------------------------------------

 SCF Done:  E(UB3LYP) =  -100.889865818     a.u. after    7 cycles

 Alpha  occ. eigenvalues --  -24.64179  -1.10540  -0.45247  -0.36717  -0.36717
 Alpha  occ. eigenvalues --   -0.35178
 Alpha virt. eigenvalues --   -0.09874   0.23227   0.27192   0.93192   0.93192
 Alpha virt. eigenvalues --    1.02745   1.18589   1.22340   1.22340   1.24961
 Alpha virt. eigenvalues --    1.33501   1.33501   1.72068   2.13524   2.23789

  Beta  occ. eigenvalues --  -24.64115  -1.10376  -0.45021  -0.36658  -0.36658
  Beta virt. eigenvalues --   -0.12813  -0.05958   0.25997   0.36482   0.93179
  Beta virt. eigenvalues --    0.93179   1.02901   1.19785   1.33306   1.33306
  Beta virt. eigenvalues --    1.43726   1.43726   1.44162   1.72344   2.23462

 Mulliken charges and spin densities:
               1          2
     1  H    0.350722  -0.007746
     2  H    0.010423   0.987867
     3  F   -0.361145   0.019879
 Sum of Mulliken charges =  -0.00000   1.00000

 Dipole moment (field-independent basis, Debye):
    X=             -2.5857    Y=              0.0000    Z=              0.0000  Tot=              2.5857
 Quadrupole moment (field-independent basis, Debye-Ang):
   XX=             -9.0429   YY=             -7.2323   ZZ=             -7.2323
   XY=              0.0000   XZ=              0.0000   YZ=              0.0000

  Exact polarizability:      15.742       0.000       2.271       0.000      -0.000       2.271
 Approx polarizability:      23.003       0.000       2.213      -0.000      -0.000       2.213

 ******    2 imaginary frequencies (negative Signs) ******

                      1                      2                      3
                      A                      A                      A
 Frequencies --   -942.8984              -170.6641              1109.1105
 Red. masses --      1.0501                 1.0615                 1.0278
 Frc consts  --      0.5500                 0.0182                 0.7449
 IR Inten    --    108.4293                 0.7876               118.5432

                      4
                      A
 Frequencies --   1109.1105
 Red. masses --      1.0278
 Frc consts  --      0.7449
 IR Inten    --    118.5432

 - Thermochemistry -
 -------------------
 Temperature   298.150 Kelvin.  Pressure   1.00000 Atm.
 Atom     1 has atomic number  1 and mass   1.00783

 Molecular mass:    21.01405 amu.
 Principal axes and moments of inertia in atomic units:
                           1         2         3
     Eigenvalues --     0.00000  59.20289  59.20289
           X            1.00000  -0.00000   0.00000
           Y            0.00000   1.00000   0.00000
           Z            0.00000   0.00000   1.00000
 This molecule is a prolate symmetric top.
 Rotational symmetry number  1.
 Rotational temperature (Kelvin)      1.46300
 Rotational constant (GHZ):          30.484006
    2 imaginary frequencies ignored.
 Zero-point vibrational energy      13267.9 (Joules/Mol)
                                    3.17111 (Kcal/Mol)
 Vibrational temperatures:   1595.76  1595.76
          (Kelvin)

 Zero-point correction=                           0.005053 (Hartree/Particle)
 Thermal correction to Energy=                    0.007462
 Thermal correction to Enthalpy=                  0.008406
 Thermal correction to Gibbs Free Energy=        -0.014932
 Sum of electronic and zero-point Energies=           -100.884812
 Sum of electronic and thermal Energies=              -100.882404
 Sum of electronic and thermal Enthalpies=            -100.881460
 Sum of electronic and thermal Free Energies=         -100.904798

                     E (Thermal)             CV                S
                      KCal/Mol        Cal/Mol-Kelvin    Cal/Mol-Kelvin
 Total                    4.683              5.513             49.119
 Electronic               0.000              0.000              1.377
 Translational            0.889              2.981             35.068
 Rotational               0.592              1.987             12.553
 Vibrational              3.201              0.545              0.120

 Normal termination of Gaussian 16 at Fri Aug 22 16:18:03 2025.
