 Gaussian 16, Revision C.01,
 Gaussian 16:  ES64L-G16RevC.01  3-Jul-2019

 -----------------------------------------
 # sp b3lyp/6-311g** Force nosymm scf=(qc)
 -----------------------------------------

 -------------------
 Title Card Required
 -------------------
 Symbolic Z-matrix:
 Charge =  0 Multiplicity = 2

                          Input orientation:
 ---------------------------------------------------------------------
 Center     Atomic      Atomic             Coordinates (Angstroms)
 Number     Number       Type             X           Y           Z
 ---------------------------------------------------------------------
      1          1           0        0.000000    0.000000    0.000000
      2          1           0       -1.000000    0.000000    0.000000
      3          9           0        3.900000    0.000000    0.000000
 ---------------------------------------------------------------------

 SCF Done:  E(UB3LYP) =  -100.906555193     a.u. after    6 cycles

 Alpha  occ. eigenvalues --  -24.76133  -1.22045  -0.55260  -0.46408  -0.46408
 Alpha  occ. eigenvalues --   -0.39072
 Alpha virt. eigenvalues --    0.00132   0.21260   0.38493   0.86752   0.90981
 Alpha virt. eigenvalues --    0.90981   1.01035   1.09031   1.09031   1.37378
 Alpha virt. eigenvalues --    1.65676   1.65676   2.21263   2.35817   2.58705

  Beta  occ. eigenvalues --  -24.72980  -1.12978  -0.43248  -0.43248  -0.39070
  Beta virt. eigenvalues --   -0.25951   0.00141   0.21268   0.38554   0.92480
  Beta virt. eigenvalues --    0.92480   0.96117   1.05179   1.09033   1.09033
  Beta virt. eigenvalues --    1.37385   1.65678   1.65678   2.21271   2.35820

 Mulliken charges and spin densities:
               1          2
     1  H   -0.003210  -0.000300
     2  H    0.002952   0.000746
     3  F    0.000258   0.999553
 Sum of Mulliken charges =   0.00000   1.00000

 Dipole moment (field-independent basis, Debye):
    X=             -0.0086    Y=             -0.0000    Z=             -0.0000  Tot=              0.0086
 Quadrupole moment (field-independent basis, Debye-Ang):
   XX=             -5.5098   YY=             -7.2705   ZZ=             -7.2705
   XY=             -0.0000   XZ=             -0.0000   YZ=             -0.0000

  Exact polarizability:      12.562       0.000       2.057       0.000       0.000       2.057
 Approx polarizability:      16.468       0.000       2.108       0.000       0.000       2.108

 ******    1 imaginary frequencies (negative Signs) ******

                      1                      2                      3
                      A                      A                      A
 Frequencies --    -27.2306              1541.3472              1541.3472
 Red. masses --      1.1085                 1.0091                 1.0091
 Frc consts  --      0.0005                 1.4125                 1.4125
 IR Inten    --      0.0022                 0.0114                 0.0114

                      4
                      A
 Frequencies --   1794.3329
 Red. masses --      1.0078
 Frc consts  --      1.9118
 IR Inten    --      0.0866

 - Thermochemistry -
 -------------------
 Temperature   298.150 Kelvin.  Pressure   1.00000 Atm.
 Atom     1 has atomic number  1 and mass   1.00783

 Molecular mass:    21.01405 amu.
 Principal axes and moments of inertia in atomic units:
                           1         2         3
     Eigenvalues --     0.00000 127.78644 127.78644
           X            1.00000  -0.00000   0.00000
           Y            0.00000   1.00000   0.00000
           Z            0.00000   0.00000   1.00000
 This molecule is a prolate symmetric top.
 Rotational symmetry number  1.
 Rotational temperature (Kelvin)      0.67780
 Rotational constant (GHZ):          14.123105
    1 imaginary frequencies ignored.
 Zero-point vibrational energy      29171.1 (Joules/Mol)
                                    6.97206 (Kcal/Mol)
 Vibrational temperatures:   2217.65  2217.65  2581.64
          (Kelvin)

 Zero-point correction=                           0.011111 (Hartree/Particle)
 Thermal correction to Energy=                    0.013481
 Thermal correction to Enthalpy=                  0.014425
 Thermal correction to Gibbs Free Energy=        -0.009593
 Sum of electronic and zero-point Energies=           -100.895445
 Sum of electronic and thermal Energies=              -100.893074
 Sum of electronic and thermal Enthalpies=            -100.892130
 Sum of electronic and thermal Free Energies=         -100.916149

                     E (Thermal)             CV                S
                      KCal/Mol        Cal/Mol-Kelvin    Cal/Mol-Kelvin
 Total                    8.459              5.123             50.551
 Electronic               0.000              0.000              1.377
 Translational            0.889              2.981             35.068
 Rotational               0.592              1.987             14.082
 Vibrational              6.978              0.155              0.023

 Normal termination of Gaussian 16 at Sat Aug 23 01:15:17 2025.
