 Gaussian 16, Revision C.01,
 Gaussian 16:  ES64L-G16RevC.01  3-Jul-2019

 -----------------------------------------
 # sp b3lyp/6-311g** Force nosymm scf=(qc)
 -----------------------------------------

 -------------------
 Title Card Required
 -------------------
 Symbolic Z-matrix:
 Charge =  0 Multiplicity = 2

                          Input orientation:
 ---------------------------------------------------------------------
 Center     Atomic      Atomic             Coordinates (Angstroms)
 Number     Number       Type             X           Y           Z
 ---------------------------------------------------------------------
      1          1           0        0.000000    0.000000    0.000000
      2          1           0       -2.750000    0.000000    0.000000
      3          9           0        1.900000    0.000000    0.000000
 ---------------------------------------------------------------------

 SCF Done:  E(UB3LYP) =  -100.796498183     a.u. after   14 cycles

 Alpha  occ. eigenvalues --  -24.67343  -1.13624  -0.46262  -0.38992  -0.38992
 Alpha  occ. eigenvalues --   -0.34545
 Alpha virt. eigenvalues --   -0.14291   0.23227   0.30372   0.90925   0.94946
 Alpha virt. eigenvalues --    0.94946   1.06108   1.23033   1.23033   1.24556
 Alpha virt. eigenvalues --    1.34404   1.34404   1.65397   2.14020   2.28034

  Beta  occ. eigenvalues --  -24.65165  -1.07578  -0.38476  -0.36856  -0.36856
  Beta virt. eigenvalues --   -0.20096  -0.09000   0.23792   0.35781   0.92242
  Beta virt. eigenvalues --    0.95289   0.95289   1.08440   1.22868   1.22868
  Beta virt. eigenvalues --    1.42920   1.42920   1.43034   1.60016   2.13164

 Mulliken charges and spin densities:
               1          2
     1  H    0.212005  -0.668493
     2  H    0.011129   0.983873
     3  F   -0.223134   0.684620
 Sum of Mulliken charges =   0.00000   1.00000

 Dipole moment (field-independent basis, Debye):
    X=             -2.2283    Y=             -0.0000    Z=              0.0000  Tot=              2.2283
 Quadrupole moment (field-independent basis, Debye-Ang):
   XX=             -9.7108   YY=             -7.4846   ZZ=             -7.4846
   XY=             -0.0000   XZ=              0.0000   YZ=             -0.0000

  Exact polarizability:      31.464       0.000       2.077      -0.000      -0.000       2.077
 Approx polarizability:      41.483       0.000       1.967      -0.000       0.000       1.967

 ******    2 imaginary frequencies (negative Signs) ******

                      1                      2                      3
                      A                      A                      A
 Frequencies --  -1335.1002              -292.3492               563.8362
 Red. masses --      1.0523                 1.0593                 1.0230
 Frc consts  --      1.1051                 0.0533                 0.1916
 IR Inten    --    111.4887                 6.0340                38.9480

                      4
                      A
 Frequencies --    563.8362
 Red. masses --      1.0230
 Frc consts  --      0.1916
 IR Inten    --     38.9480

 - Thermochemistry -
 -------------------
 Temperature   298.150 Kelvin.  Pressure   1.00000 Atm.
 Atom     1 has atomic number  1 and mass   1.00783

 Molecular mass:    21.01405 amu.
 Principal axes and moments of inertia in atomic units:
                           1         2         3
     Eigenvalues --     0.00000  83.40671  83.40671
           X            1.00000  -0.00000   0.00000
           Y            0.00000   1.00000   0.00000
           Z            0.00000   0.00000   1.00000
 This molecule is a prolate symmetric top.
 Rotational symmetry number  1.
 Rotational temperature (Kelvin)      1.03845
 Rotational constant (GHZ):          21.637841
    2 imaginary frequencies ignored.
 Zero-point vibrational energy       6745.0 (Joules/Mol)
                                    1.61209 (Kcal/Mol)
 Warning -- explicit consideration of   2 degrees of freedom as
           vibrations may cause significant error
 Vibrational temperatures:    811.23   811.23
          (Kelvin)

 Zero-point correction=                           0.002569 (Hartree/Particle)
 Thermal correction to Energy=                    0.005291
 Thermal correction to Enthalpy=                  0.006236
 Thermal correction to Gibbs Free Energy=        -0.017859
 Sum of electronic and zero-point Energies=           -100.793929
 Sum of electronic and thermal Energies=              -100.791207
 Sum of electronic and thermal Enthalpies=            -100.790263
 Sum of electronic and thermal Free Energies=         -100.814358

                     E (Thermal)             CV                S
                      KCal/Mol        Cal/Mol-Kelvin    Cal/Mol-Kelvin
 Total                    3.320              7.187             50.712
 Electronic               0.000              0.000              1.377
 Translational            0.889              2.981             35.068
 Rotational               0.592              1.987             13.235
 Vibrational              1.839              2.219              1.032
 Vibration     1          0.920              1.110              0.516
 Vibration     2          0.920              1.110              0.516

 Normal termination of Gaussian 16 at Fri Aug 22 16:50:40 2025.
