 Gaussian 16, Revision C.01,
 Gaussian 16:  ES64L-G16RevC.01  3-Jul-2019

 -----------------------------------------
 # sp b3lyp/6-311g** Force nosymm scf=(qc)
 -----------------------------------------

 -------------------
 Title Card Required
 -------------------
 Symbolic Z-matrix:
 Charge =  0 Multiplicity = 2

                          Input orientation:
 ---------------------------------------------------------------------
 Center     Atomic      Atomic             Coordinates (Angstroms)
 Number     Number       Type             X           Y           Z
 ---------------------------------------------------------------------
      1          1           0        0.000000    0.000000    0.000000
      2          1           0       -2.500000    0.000000    0.000000
      3          9           0        2.650000    0.000000    0.000000
 ---------------------------------------------------------------------

 SCF Done:  E(UB3LYP) =  -100.768446624     a.u. after   19 cycles

 Alpha  occ. eigenvalues --  -24.72598  -1.18754  -0.51705  -0.43422  -0.43422
 Alpha  occ. eigenvalues --   -0.33541
 Alpha virt. eigenvalues --   -0.11431   0.25003   0.33318   0.90282   0.93156
 Alpha virt. eigenvalues --    0.93156   1.06060   1.24112   1.24112   1.26645
 Alpha virt. eigenvalues --    1.38573   1.38573   1.41705   2.14922   2.34774

  Beta  occ. eigenvalues --  -24.69683  -1.10435  -0.40512  -0.40512  -0.34771
  Beta virt. eigenvalues --   -0.23914  -0.09481   0.25762   0.34724   0.94569
  Beta virt. eigenvalues --    0.94569   0.98150   1.09449   1.22753   1.22753
  Beta virt. eigenvalues --    1.27155   1.41690   1.41690   1.43416   2.15158

 Mulliken charges and spin densities:
               1          2
     1  H    0.059902  -0.892797
     2  H    0.009158   0.970718
     3  F   -0.069061   0.922079
 Sum of Mulliken charges =  -0.00000   1.00000

 Dipole moment (field-independent basis, Debye):
    X=             -1.0444    Y=             -0.0000    Z=             -0.0000  Tot=              1.0444
 Quadrupole moment (field-independent basis, Debye-Ang):
   XX=             -8.5756   YY=             -7.6276   ZZ=             -7.6276
   XY=             -0.0000   XZ=             -0.0000   YZ=              0.0000

  Exact polarizability:      44.529      -0.000       2.013      -0.000       0.000       2.013
 Approx polarizability:      45.835      -0.000       1.918      -0.000       0.000       1.918

 ******    2 imaginary frequencies (negative Signs) ******

                      1                      2                      3
                      A                      A                      A
 Frequencies --   -767.2883              -310.2509               297.3823
 Red. masses --      1.0158                 1.0990                 1.0173
 Frc consts  --      0.3523                 0.0623                 0.0530
 IR Inten    --     42.9371                24.9211                 2.8979

                      4
                      A
 Frequencies --    297.3823
 Red. masses --      1.0173
 Frc consts  --      0.0530
 IR Inten    --      2.8979

 - Thermochemistry -
 -------------------
 Temperature   298.150 Kelvin.  Pressure   1.00000 Atm.
 Atom     1 has atomic number  1 and mass   1.00783

 Molecular mass:    21.01405 amu.
 Principal axes and moments of inertia in atomic units:
                           1         2         3
     Eigenvalues --     0.00000 110.22734 110.22734
           X            1.00000  -0.00000   0.00000
           Y            0.00000   1.00000   0.00000
           Z            0.00000   0.00000   1.00000
 This molecule is a prolate symmetric top.
 Rotational symmetry number  1.
 Rotational temperature (Kelvin)      0.78578
 Rotational constant (GHZ):          16.372900
    2 imaginary frequencies ignored.
 Zero-point vibrational energy       3557.5 (Joules/Mol)
                                    0.85026 (Kcal/Mol)
 Warning -- explicit consideration of   2 degrees of freedom as
           vibrations may cause significant error
 Vibrational temperatures:    427.87   427.87
          (Kelvin)

 Zero-point correction=                           0.001355 (Hartree/Particle)
 Thermal correction to Energy=                    0.004562
 Thermal correction to Enthalpy=                  0.005506
 Thermal correction to Gibbs Free Energy=        -0.019722
 Sum of electronic and zero-point Energies=           -100.767092
 Sum of electronic and thermal Energies=              -100.763884
 Sum of electronic and thermal Enthalpies=            -100.762940
 Sum of electronic and thermal Free Energies=         -100.788168

                     E (Thermal)             CV                S
                      KCal/Mol        Cal/Mol-Kelvin    Cal/Mol-Kelvin
 Total                    2.863              8.325             53.097
 Electronic               0.000              0.000              1.377
 Translational            0.889              2.981             35.068
 Rotational               0.592              1.987             13.789
 Vibrational              1.382              3.357              2.863
 Vibration     1          0.691              1.679              1.432
 Vibration     2          0.691              1.679              1.432

 Normal termination of Gaussian 16 at Fri Aug 22 18:14:51 2025.
