 Gaussian 16, Revision C.01,
 Gaussian 16:  ES64L-G16RevC.01  3-Jul-2019

 -----------------------------------------
 # sp b3lyp/6-311g** Force nosymm scf=(qc)
 -----------------------------------------

 -------------------
 Title Card Required
 -------------------
 Symbolic Z-matrix:
 Charge =  0 Multiplicity = 2

                          Input orientation:
 ---------------------------------------------------------------------
 Center     Atomic      Atomic             Coordinates (Angstroms)
 Number     Number       Type             X           Y           Z
 ---------------------------------------------------------------------
      1          1           0        0.000000    0.000000    0.000000
      2          1           0       -0.850000    0.000000    0.000000
      3          9           0        2.200000    0.000000    0.000000
 ---------------------------------------------------------------------

 SCF Done:  E(UB3LYP) =  -100.928706008     a.u. after    7 cycles

 Alpha  occ. eigenvalues --  -24.75264  -1.21265  -0.54727  -0.45697  -0.45697
 Alpha  occ. eigenvalues --   -0.42512
 Alpha virt. eigenvalues --    0.04291   0.20658   0.43179   0.89810   0.91066
 Alpha virt. eigenvalues --    0.91066   1.07030   1.07030   1.12794   1.52197
 Alpha virt. eigenvalues --    1.74330   1.74330   2.11150   2.38059   2.86935

  Beta  occ. eigenvalues --  -24.72201  -1.12503  -0.42636  -0.42636  -0.42498
  Beta virt. eigenvalues --   -0.25891   0.05013   0.21103   0.43509   0.92487
  Beta virt. eigenvalues --    0.92487   0.97980   1.07464   1.07464   1.16529
  Beta virt. eigenvalues --    1.53210   1.74595   1.74595   2.11595   2.38509

 Mulliken charges and spin densities:
               1          2
     1  H   -0.004602  -0.022074
     2  H    0.027088   0.057164
     3  F   -0.022486   0.964910
 Sum of Mulliken charges =   0.00000   1.00000

 Dipole moment (field-independent basis, Debye):
    X=             -0.3505    Y=             -0.0000    Z=              0.0000  Tot=              0.3505
 Quadrupole moment (field-independent basis, Debye-Ang):
   XX=             -5.9325   YY=             -7.0599   ZZ=             -7.0599
   XY=             -0.0000   XZ=              0.0000   YZ=             -0.0000

  Exact polarizability:      19.853       0.000       2.091      -0.000       0.000       2.091
 Approx polarizability:      22.227       0.000       2.136      -0.000      -0.000       2.136

 ******    1 imaginary frequencies (negative Signs) ******

                      1                      2                      3
                      A                      A                      A
 Frequencies --   -220.1133              1211.7159              1211.7159
 Red. masses --      1.1085                 1.0104                 1.0104
 Frc consts  --      0.0316                 0.8741                 0.8741
 IR Inten    --     20.8998                 0.0762                 0.0762

                      4
                      A
 Frequencies --   3064.4718
 Red. masses --      1.0079
 Frc consts  --      5.5765
 IR Inten    --    187.0912

 - Thermochemistry -
 -------------------
 Temperature   298.150 Kelvin.  Pressure   1.00000 Atm.
 Atom     1 has atomic number  1 and mass   1.00783

 Molecular mass:    21.01405 amu.
 Principal axes and moments of inertia in atomic units:
                           1         2         3
     Eigenvalues --     0.00000  46.14150  46.14150
           X            1.00000  -0.00000   0.00000
           Y            0.00000   1.00000   0.00000
           Z            0.00000   0.00000   1.00000
 This molecule is a prolate symmetric top.
 Rotational symmetry number  1.
 Rotational temperature (Kelvin)      1.87714
 Rotational constant (GHZ):          39.113189
    1 imaginary frequencies ignored.
 Zero-point vibrational energy      32825.0 (Joules/Mol)
                                    7.84535 (Kcal/Mol)
 Vibrational temperatures:   1743.39  1743.39  4409.09
          (Kelvin)

 Zero-point correction=                           0.012502 (Hartree/Particle)
 Thermal correction to Energy=                    0.014895
 Thermal correction to Enthalpy=                  0.015839
 Thermal correction to Gibbs Free Energy=        -0.007244
 Sum of electronic and zero-point Energies=           -100.916204
 Sum of electronic and thermal Energies=              -100.913811
 Sum of electronic and thermal Enthalpies=            -100.912867
 Sum of electronic and thermal Free Energies=         -100.935950

                     E (Thermal)             CV                S
                      KCal/Mol        Cal/Mol-Kelvin    Cal/Mol-Kelvin
 Total                    9.347              5.363             48.582
 Electronic               0.000              0.000              1.377
 Translational            0.889              2.981             35.068
 Rotational               0.592              1.987             12.058
 Vibrational              7.865              0.395              0.079

 Normal termination of Gaussian 16 at Fri Aug 22 17:10:34 2025.
