 Gaussian 16, Revision C.01,
 Gaussian 16:  ES64L-G16RevC.01  3-Jul-2019

 -----------------------------------------
 # sp b3lyp/6-311g** Force nosymm scf=(qc)
 -----------------------------------------

 -------------------
 Title Card Required
 -------------------
 Symbolic Z-matrix:
 Charge =  0 Multiplicity = 2

                          Input orientation:
 ---------------------------------------------------------------------
 Center     Atomic      Atomic             Coordinates (Angstroms)
 Number     Number       Type             X           Y           Z
 ---------------------------------------------------------------------
      1          1           0        0.000000    0.000000    0.000000
      2          1           0       -1.050000    0.000000    0.000000
      3          9           0        3.250000    0.000000    0.000000
 ---------------------------------------------------------------------

 SCF Done:  E(UB3LYP) =  -100.898864352     a.u. after   17 cycles

 Alpha  occ. eigenvalues --  -24.76504  -1.22346  -0.55542  -0.46758  -0.46694
 Alpha  occ. eigenvalues --   -0.38085
 Alpha virt. eigenvalues --   -0.00633   0.21844   0.37456   0.85888   0.90762
 Alpha virt. eigenvalues --    0.93066   1.02579   1.10001   1.10005   1.33800
 Alpha virt. eigenvalues --    1.62910   1.62915   2.20913   2.35680   2.56540

  Beta  occ. eigenvalues --  -24.73345  -1.13265  -0.43598  -0.43527  -0.38076
  Beta virt. eigenvalues --   -0.26175  -0.00619   0.21860   0.37517   0.92262
  Beta virt. eigenvalues --    0.94653   0.95349   1.06559   1.10000   1.10005
  Beta virt. eigenvalues --    1.33809   1.62910   1.62915   2.20925   2.35685

 Mulliken charges and spin densities:
               1          2
     1  H   -0.001390  -0.000429
     2  H   -0.004117  -0.000247
     3  F    0.005507   1.000676
 Sum of Mulliken charges =  -0.00000   1.00000

 Dipole moment (field-independent basis, Debye):
    X=              0.0710    Y=              0.0000    Z=              0.0000  Tot=              0.0710
 Quadrupole moment (field-independent basis, Debye-Ang):
   XX=             -6.1930   YY=             -6.4734   ZZ=             -7.3355
   XY=              0.0000   XZ=              0.0000   YZ=              0.0278

  Exact polarizability:      13.311       0.000       2.530      -0.000       0.015       2.069
 Approx polarizability:      17.923       0.000       2.694       0.000       0.019       2.115

                      1                      2                      3
                      A                      A                      A
 Frequencies --     22.1287              1411.2669              1542.9180
 Red. masses --      1.1085                 1.0078                 1.0097
 Frc consts  --      0.0003                 1.1826                 1.4163
 IR Inten    --      0.2584                 0.3215                 0.0000

                      4
                      A
 Frequencies --   1543.8709
 Red. masses --      1.0097
 Frc consts  --      1.4180
 IR Inten    --      0.0001

 - Thermochemistry -
 -------------------
 Temperature   298.150 Kelvin.  Pressure   1.00000 Atm.
 Atom     1 has atomic number  1 and mass   1.00783

 Molecular mass:    21.01405 amu.
 Principal axes and moments of inertia in atomic units:
                           1         2         3
     Eigenvalues --     0.00000  94.72117  94.72117
           X            1.00000  -0.00000   0.00000
           Y            0.00000   1.00000   0.00000
           Z            0.00000   0.00000   1.00000
 This molecule is a prolate symmetric top.
 Rotational symmetry number  1.
 Rotational temperature (Kelvin)      0.91441
 Rotational constant (GHZ):          19.053198
 Zero-point vibrational energy      27036.7 (Joules/Mol)
                                    6.46193 (Kcal/Mol)
 Warning -- explicit consideration of   1 degrees of freedom as
           vibrations may cause significant error
 Vibrational temperatures:     31.84  2030.50  2219.91  2221.29
          (Kelvin)

 Zero-point correction=                           0.010298 (Hartree/Particle)
 Thermal correction to Energy=                    0.013568
 Thermal correction to Enthalpy=                  0.014512
 Thermal correction to Gibbs Free Energy=        -0.012286
 Sum of electronic and zero-point Energies=           -100.888567
 Sum of electronic and thermal Energies=              -100.885296
 Sum of electronic and thermal Enthalpies=            -100.884352
 Sum of electronic and thermal Free Energies=         -100.911151

                     E (Thermal)             CV                S
                      KCal/Mol        Cal/Mol-Kelvin    Cal/Mol-Kelvin
 Total                    8.514              7.184             56.403
 Electronic               0.000              0.000              1.377
 Translational            0.889              2.981             35.068
 Rotational               0.592              1.987             13.487
 Vibrational              7.033              2.216              6.470
 Vibration     1          0.593              1.985              6.433

 Normal termination of Gaussian 16 at Fri Aug 22 20:28:22 2025.
