 Gaussian 16, Revision C.01,
 Gaussian 16:  ES64L-G16RevC.01  3-Jul-2019

 -----------------------------------------
 # sp b3lyp/6-311g** Force nosymm scf=(qc)
 -----------------------------------------

 -------------------
 Title Card Required
 -------------------
 Symbolic Z-matrix:
 Charge =  0 Multiplicity = 2

                          Input orientation:
 ---------------------------------------------------------------------
 Center     Atomic      Atomic             Coordinates (Angstroms)
 Number     Number       Type             X           Y           Z
 ---------------------------------------------------------------------
      1          1           0        0.000000    0.000000    0.000000
      2          1           0       -1.450000    0.000000    0.000000
      3          9           0        1.250000    0.000000    0.000000
 ---------------------------------------------------------------------

 SCF Done:  E(UB3LYP) =  -100.923695861     a.u. after    9 cycles

 Alpha  occ. eigenvalues --  -24.63671  -1.11734  -0.49456  -0.37831  -0.36860
 Alpha  occ. eigenvalues --   -0.36860
 Alpha virt. eigenvalues --    0.00007   0.20420   0.29578   0.93253   0.93253
 Alpha virt. eigenvalues --    1.01408   1.08074   1.14098   1.14098   1.42322
 Alpha virt. eigenvalues --    1.42322   1.54305   1.90333   2.24547   2.40779

  Beta  occ. eigenvalues --  -24.62944  -1.09871  -0.45478  -0.36188  -0.36188
  Beta virt. eigenvalues --   -0.19709   0.03480   0.24338   0.32399   0.93466
  Beta virt. eigenvalues --    0.93466   1.03100   1.14974   1.22820   1.22820
  Beta virt. eigenvalues --    1.46036   1.46036   1.57116   1.98268   2.29489

 Mulliken charges and spin densities:
               1          2
     1  H    0.297054  -0.066440
     2  H    0.059280   0.850073
     3  F   -0.356334   0.216367
 Sum of Mulliken charges =   0.00000   1.00000

 Dipole moment (field-independent basis, Debye):
    X=             -2.7506    Y=              0.0000    Z=              0.0000  Tot=              2.7506
 Quadrupole moment (field-independent basis, Debye-Ang):
   XX=             -8.0140   YY=             -7.0201   ZZ=             -7.0201
   XY=              0.0000   XZ=              0.0000   YZ=             -0.0000

  Exact polarizability:      22.394      -0.000       2.429       0.000       0.000       2.429
 Approx polarizability:      29.046       0.000       2.400       0.000       0.000       2.400

 ******    1 imaginary frequencies (negative Signs) ******

                      1                      2                      3
                      A                      A                      A
 Frequencies --  -1984.3650               496.5242              1118.6908
 Red. masses --      1.0196                 1.0946                 1.0198
 Frc consts  --      2.3655                 0.1590                 0.7520
 IR Inten    --      6.1839                29.0399                57.6497

                      4
                      A
 Frequencies --   1118.6908
 Red. masses --      1.0198
 Frc consts  --      0.7520
 IR Inten    --     57.6497

 - Thermochemistry -
 -------------------
 Temperature   298.150 Kelvin.  Pressure   1.00000 Atm.
 Atom     1 has atomic number  1 and mass   1.00783

 Molecular mass:    21.01405 amu.
 Principal axes and moments of inertia in atomic units:
                           1         2         3
     Eigenvalues --     0.00000  29.16712  29.16712
           X            1.00000  -0.00000   0.00000
           Y            0.00000   1.00000   0.00000
           Z            0.00000   0.00000   1.00000
 This molecule is a prolate symmetric top.
 Rotational symmetry number  1.
 Rotational temperature (Kelvin)      2.96957
 Rotational constant (GHZ):          61.875872
    1 imaginary frequencies ignored.
 Zero-point vibrational energy      16352.4 (Joules/Mol)
                                    3.90831 (Kcal/Mol)
 Warning -- explicit consideration of   1 degrees of freedom as
           vibrations may cause significant error
 Vibrational temperatures:    714.39  1609.55  1609.55
          (Kelvin)

 Zero-point correction=                           0.006228 (Hartree/Particle)
 Thermal correction to Energy=                    0.008862
 Thermal correction to Enthalpy=                  0.009806
 Thermal correction to Gibbs Free Energy=        -0.013178
 Sum of electronic and zero-point Energies=           -100.917468
 Sum of electronic and thermal Energies=              -100.914834
 Sum of electronic and thermal Enthalpies=            -100.913890
 Sum of electronic and thermal Free Energies=         -100.936874

                     E (Thermal)             CV                S
                      KCal/Mol        Cal/Mol-Kelvin    Cal/Mol-Kelvin
 Total                    5.561              6.754             48.374
 Electronic               0.000              0.000              1.377
 Translational            0.889              2.981             35.068
 Rotational               0.592              1.987             11.147
 Vibrational              4.080              1.786              0.782
 Vibration     1          0.852              1.258              0.667

 Normal termination of Gaussian 16 at Fri Aug 22 16:12:12 2025.
