 Gaussian 16, Revision C.01,
 Gaussian 16:  ES64L-G16RevC.01  3-Jul-2019

 -----------------------------------------
 # sp b3lyp/6-311g** Force nosymm scf=(qc)
 -----------------------------------------

 -------------------
 Title Card Required
 -------------------
 Symbolic Z-matrix:
 Charge =  0 Multiplicity = 2

                          Input orientation:
 ---------------------------------------------------------------------
 Center     Atomic      Atomic             Coordinates (Angstroms)
 Number     Number       Type             X           Y           Z
 ---------------------------------------------------------------------
      1          1           0        0.000000    0.000000    0.000000
      2          1           0       -1.100000    0.000000    0.000000
      3          9           0        0.600000    0.000000    0.000000
 ---------------------------------------------------------------------

 SCF Done:  E(UB3LYP) =  -100.654572276     a.u. after    7 cycles

 Alpha  occ. eigenvalues --  -24.64182  -1.37193  -0.64392  -0.44427  -0.44427
 Alpha  occ. eigenvalues --   -0.34478
 Alpha virt. eigenvalues --    0.16047   0.20368   0.72864   0.88977   0.88977
 Alpha virt. eigenvalues --    0.90580   1.11078   1.11078   1.49004   1.68401
 Alpha virt. eigenvalues --    1.68401   1.76345   2.05028   2.38833   3.76438

  Beta  occ. eigenvalues --  -24.63893  -1.36258  -0.62877  -0.44204  -0.44204
  Beta virt. eigenvalues --   -0.12180   0.16852   0.27550   0.78433   0.89954
  Beta virt. eigenvalues --    0.89954   0.91329   1.20374   1.20374   1.49736
  Beta virt. eigenvalues --    1.73997   1.73997   1.82985   2.13746   2.56424

 Mulliken charges and spin densities:
               1          2
     1  H    0.242564   0.002632
     2  H   -0.017189   0.967331
     3  F   -0.225375   0.030037
 Sum of Mulliken charges =   0.00000   1.00000

 Dipole moment (field-independent basis, Debye):
    X=             -1.1580    Y=              0.0000    Z=             -0.0000  Tot=              1.1580
 Quadrupole moment (field-independent basis, Debye-Ang):
   XX=             -7.1564   YY=             -6.4250   ZZ=             -6.4250
   XY=              0.0000   XZ=             -0.0000   YZ=             -0.0000

  Exact polarizability:       6.733      -0.000       2.527      -0.000      -0.000       2.527
 Approx polarizability:       6.458       0.000       2.576      -0.000      -0.000       2.576

 ******    2 imaginary frequencies (negative Signs) ******

                      1                      2                      3
                      A                      A                      A
 Frequencies --  -5720.2492             -5720.2492              1820.6036
 Red. masses --      1.0267                 1.0267                 1.0542
 Frc consts  --     19.7927                19.7927                 2.0587
 IR Inten    --    153.4309               153.4309                59.4375

                      4
                      A
 Frequencies --  13066.5518
 Red. masses --      1.0574
 Frc consts  --    106.3640
 IR Inten    --     67.1651

 - Thermochemistry -
 -------------------
 Temperature   298.150 Kelvin.  Pressure   1.00000 Atm.
 Atom     1 has atomic number  1 and mass   1.00783

 Molecular mass:    21.01405 amu.
 Principal axes and moments of inertia in atomic units:
                           1         2         3
     Eigenvalues --     0.00000  10.78369  10.78369
           X            1.00000  -0.00000   0.00000
           Y            0.00000   1.00000   0.00000
           Z            0.00000   0.00000   1.00000
 This molecule is a prolate symmetric top.
 Rotational symmetry number  1.
 Rotational temperature (Kelvin)      8.03194
 Rotational constant (GHZ):         167.358453
    2 imaginary frequencies ignored.
 Zero-point vibrational energy      89045.0 (Joules/Mol)
                                   21.28226 (Kcal/Mol)
 Vibrational temperatures:   2619.44 18799.85
          (Kelvin)

 Zero-point correction=                           0.033915 (Hartree/Particle)
 Thermal correction to Energy=                    0.036277
 Thermal correction to Enthalpy=                  0.037221
 Thermal correction to Gibbs Free Energy=         0.015547
 Sum of electronic and zero-point Energies=           -100.620657
 Sum of electronic and thermal Energies=              -100.618295
 Sum of electronic and thermal Enthalpies=            -100.617351
 Sum of electronic and thermal Free Energies=         -100.639025

                     E (Thermal)             CV                S
                      KCal/Mol        Cal/Mol-Kelvin    Cal/Mol-Kelvin
 Total                   22.764              4.991             45.618
 Electronic               0.000              0.000              1.377
 Translational            0.889              2.981             35.068
 Rotational               0.592              1.987              9.169
 Vibrational             21.283              0.023              0.003

 Normal termination of Gaussian 16 at Fri Aug 22 15:41:04 2025.
