 Gaussian 16, Revision C.01,
 Gaussian 16:  ES64L-G16RevC.01  3-Jul-2019

 -----------------------------------------
 # sp b3lyp/6-311g** Force nosymm scf=(qc)
 -----------------------------------------

 -------------------
 Title Card Required
 -------------------
 Symbolic Z-matrix:
 Charge =  0 Multiplicity = 2

                          Input orientation:
 ---------------------------------------------------------------------
 Center     Atomic      Atomic             Coordinates (Angstroms)
 Number     Number       Type             X           Y           Z
 ---------------------------------------------------------------------
      1          1           0        0.000000    0.000000    0.000000
      2          1           0       -1.750000    0.000000    0.000000
      3          9           0        3.400000    0.000000    0.000000
 ---------------------------------------------------------------------

 SCF Done:  E(UB3LYP) =  -100.790442519     a.u. after   41 cycles

 Alpha  occ. eigenvalues --  -24.75619  -1.21567  -0.54744  -0.45972  -0.45972
 Alpha  occ. eigenvalues --   -0.33491
 Alpha virt. eigenvalues --   -0.11167   0.25536   0.30656   0.87921   0.91307
 Alpha virt. eigenvalues --    0.91307   1.01949   1.08175   1.23822   1.23822
 Alpha virt. eigenvalues --    1.37382   1.37382   1.64055   2.15414   2.40462

  Beta  occ. eigenvalues --  -24.72500  -1.12604  -0.42846  -0.42846  -0.33465
  Beta virt. eigenvalues --   -0.25704  -0.11008   0.25532   0.31008   0.92797
  Beta virt. eigenvalues --    0.92797   0.97042   1.05983   1.08251   1.23855
  Beta virt. eigenvalues --    1.23855   1.37547   1.37547   1.64243   2.15959

 Mulliken charges and spin densities:
               1          2
     1  H    0.000124  -0.666944
     2  H    0.009084   0.678092
     3  F   -0.009208   0.988852
 Sum of Mulliken charges =  -0.00000   1.00000

 Dipole moment (field-independent basis, Debye):
    X=             -0.2348    Y=              0.0000    Z=              0.0000  Tot=              0.2348
 Quadrupole moment (field-independent basis, Debye-Ang):
   XX=             -6.2607   YY=             -7.7571   ZZ=             -7.7571
   XY=              0.0000   XZ=              0.0000   YZ=             -0.0000

  Exact polarizability:      46.350      -0.000       2.008      -0.000      -0.000       2.008
 Approx polarizability:      50.321       0.000       1.967       0.000       0.000       1.967

 ******    2 imaginary frequencies (negative Signs) ******

                      1                      2                      3
                      A                      A                      A
 Frequencies --  -1824.8968              -137.3755               831.7571
 Red. masses --      1.0078                 1.1085                 1.0119
 Frc consts  --      1.9775                 0.0123                 0.4125
 IR Inten    --     26.0565                 7.8256                 0.0100

                      4
                      A
 Frequencies --    831.7571
 Red. masses --      1.0119
 Frc consts  --      0.4125
 IR Inten    --      0.0100

 - Thermochemistry -
 -------------------
 Temperature   298.150 Kelvin.  Pressure   1.00000 Atm.
 Atom     1 has atomic number  1 and mass   1.00783

 Molecular mass:    21.01405 amu.
 Principal axes and moments of inertia in atomic units:
                           1         2         3
     Eigenvalues --     0.00000 124.44125 124.44125
           X            1.00000  -0.00000   0.00000
           Y            0.00000   1.00000   0.00000
           Z            0.00000   0.00000   1.00000
 This molecule is a prolate symmetric top.
 Rotational symmetry number  1.
 Rotational temperature (Kelvin)      0.69602
 Rotational constant (GHZ):          14.502757
    2 imaginary frequencies ignored.
 Zero-point vibrational energy       9950.0 (Joules/Mol)
                                    2.37811 (Kcal/Mol)
 Vibrational temperatures:   1196.71  1196.71
          (Kelvin)

 Zero-point correction=                           0.003790 (Hartree/Particle)
 Thermal correction to Energy=                    0.006290
 Thermal correction to Enthalpy=                  0.007234
 Thermal correction to Gibbs Free Energy=        -0.016922
 Sum of electronic and zero-point Energies=           -100.786653
 Sum of electronic and thermal Energies=              -100.784153
 Sum of electronic and thermal Enthalpies=            -100.783209
 Sum of electronic and thermal Free Energies=         -100.807365

                     E (Thermal)             CV                S
                      KCal/Mol        Cal/Mol-Kelvin    Cal/Mol-Kelvin
 Total                    3.947              6.168             50.841
 Electronic               0.000              0.000              1.377
 Translational            0.889              2.981             35.068
 Rotational               0.592              1.987             14.030
 Vibrational              2.466              1.200              0.366

 Normal termination of Gaussian 16 at Fri Aug 22 21:16:13 2025.
