 Gaussian 16, Revision C.01,
 Gaussian 16:  ES64L-G16RevC.01  3-Jul-2019

 -----------------------------------------
 # sp b3lyp/6-311g** Force nosymm scf=(qc)
 -----------------------------------------

 -------------------
 Title Card Required
 -------------------
 Symbolic Z-matrix:
 Charge =  0 Multiplicity = 2

                          Input orientation:
 ---------------------------------------------------------------------
 Center     Atomic      Atomic             Coordinates (Angstroms)
 Number     Number       Type             X           Y           Z
 ---------------------------------------------------------------------
      1          1           0        0.000000    0.000000    0.000000
      2          1           0       -1.550000    0.000000    0.000000
      3          9           0        0.700000    0.000000    0.000000
 ---------------------------------------------------------------------

 SCF Done:  E(UB3LYP) =  -100.870275657     a.u. after    6 cycles

 Alpha  occ. eigenvalues --  -24.63154  -1.28375  -0.59282  -0.41763  -0.41763
 Alpha  occ. eigenvalues --   -0.35976
 Alpha virt. eigenvalues --    0.13010   0.21943   0.51956   0.93261   0.93261
 Alpha virt. eigenvalues --    0.95453   1.18293   1.18293   1.32237   1.47384
 Alpha virt. eigenvalues --    1.47384   1.58050   2.01532   2.16835   3.08012

  Beta  occ. eigenvalues --  -24.63043  -1.28058  -0.58642  -0.41679  -0.41679
  Beta virt. eigenvalues --   -0.12261   0.14327   0.30246   0.55834   0.93379
  Beta virt. eigenvalues --    0.93379   0.95705   1.32315   1.32315   1.38425
  Beta virt. eigenvalues --    1.51521   1.51521   1.66269   2.02135   2.38894

 Mulliken charges and spin densities:
               1          2
     1  H    0.244900   0.014048
     2  H    0.013850   0.968575
     3  F   -0.258750   0.017377
 Sum of Mulliken charges =   0.00000   1.00000

 Dipole moment (field-independent basis, Debye):
    X=             -1.6544    Y=              0.0000    Z=              0.0000  Tot=              1.6544
 Quadrupole moment (field-independent basis, Debye-Ang):
   XX=             -7.0597   YY=             -6.5794   ZZ=             -6.5794
   XY=              0.0000   XZ=              0.0000   YZ=             -0.0000

  Exact polarizability:       7.266       0.000       2.533       0.000       0.000       2.533
 Approx polarizability:       7.081      -0.000       2.541      -0.000       0.000       2.541

 ******    2 imaginary frequencies (negative Signs) ******

                      1                      2                      3
                      A                      A                      A
 Frequencies --  -3476.5875             -3476.5875               755.2533
 Red. masses --      1.0297                 1.0297                 1.0534
 Frc consts  --      7.3328                 7.3328                 0.3540
 IR Inten    --    154.5416               154.5416                 2.1371

                      4
                      A
 Frequencies --   9055.2954
 Red. masses --      1.0581
 Frc consts  --     51.1194
 IR Inten    --    147.7565

 - Thermochemistry -
 -------------------
 Temperature   298.150 Kelvin.  Pressure   1.00000 Atm.
 Atom     1 has atomic number  1 and mass   1.00783

 Molecular mass:    21.01405 amu.
 Principal axes and moments of inertia in atomic units:
                           1         2         3
     Eigenvalues --     0.00000  18.48138  18.48138
           X            1.00000  -0.00000   0.00000
           Y            0.00000   1.00000   0.00000
           Z            0.00000   0.00000   1.00000
 This molecule is a prolate symmetric top.
 Rotational symmetry number  1.
 Rotational temperature (Kelvin)      4.68655
 Rotational constant (GHZ):          97.651847
    2 imaginary frequencies ignored.
 Zero-point vibrational energy      58680.1 (Joules/Mol)
                                   14.02488 (Kcal/Mol)
 Vibrational temperatures:   1086.64 13028.55
          (Kelvin)

 Zero-point correction=                           0.022350 (Hartree/Particle)
 Thermal correction to Energy=                    0.024803
 Thermal correction to Enthalpy=                  0.025747
 Thermal correction to Gibbs Free Energy=         0.003448
 Sum of electronic and zero-point Energies=           -100.847926
 Sum of electronic and thermal Energies=              -100.845473
 Sum of electronic and thermal Enthalpies=            -100.844529
 Sum of electronic and thermal Free Energies=         -100.866828

                     E (Thermal)             CV                S
                      KCal/Mol        Cal/Mol-Kelvin    Cal/Mol-Kelvin
 Total                   15.564              5.695             46.932
 Electronic               0.000              0.000              1.377
 Translational            0.889              2.981             35.068
 Rotational               0.592              1.987             10.240
 Vibrational             14.083              0.727              0.247

 Normal termination of Gaussian 16 at Fri Aug 22 15:46:06 2025.
