 Gaussian 16, Revision C.01,
 Gaussian 16:  ES64L-G16RevC.01  3-Jul-2019

 -----------------------------------------
 # sp b3lyp/6-311g** Force nosymm scf=(qc)
 -----------------------------------------

 -------------------
 Title Card Required
 -------------------
 Symbolic Z-matrix:
 Charge =  0 Multiplicity = 2

                          Input orientation:
 ---------------------------------------------------------------------
 Center     Atomic      Atomic             Coordinates (Angstroms)
 Number     Number       Type             X           Y           Z
 ---------------------------------------------------------------------
      1          1           0        0.000000    0.000000    0.000000
      2          1           0       -1.500000    0.000000    0.000000
      3          9           0        0.900000    0.000000    0.000000
 ---------------------------------------------------------------------

 SCF Done:  E(UB3LYP) =  -100.969849783     a.u. after    6 cycles

 Alpha  occ. eigenvalues --  -24.63550  -1.18889  -0.54886  -0.39341  -0.39341
 Alpha  occ. eigenvalues --   -0.36771
 Alpha virt. eigenvalues --    0.10477   0.21225   0.39283   0.94298   0.94298
 Alpha virt. eigenvalues --    0.97980   1.16075   1.16075   1.22736   1.42574
 Alpha virt. eigenvalues --    1.42574   1.53460   2.05647   2.24415   2.60512

  Beta  occ. eigenvalues --  -24.63335  -1.18341  -0.53463  -0.39157  -0.39157
  Beta virt. eigenvalues --   -0.14678   0.12394   0.27734   0.43026   0.94481
  Beta virt. eigenvalues --    0.94481   0.98433   1.27298   1.27298   1.31030
  Beta virt. eigenvalues --    1.48004   1.48004   1.57621   2.17446   2.29750

 Mulliken charges and spin densities:
               1          2
     1  H    0.273539   0.006602
     2  H    0.025460   0.941914
     3  F   -0.298999   0.051484
 Sum of Mulliken charges =   0.00000   1.00000

 Dipole moment (field-independent basis, Debye):
    X=             -2.0764    Y=              0.0000    Z=              0.0000  Tot=              2.0764
 Quadrupole moment (field-independent basis, Debye-Ang):
   XX=             -7.4703   YY=             -6.7526   ZZ=             -6.7526
   XY=              0.0000   XZ=              0.0000   YZ=             -0.0000

  Exact polarizability:      10.597      -0.000       2.537      -0.000       0.000       2.537
 Approx polarizability:      11.034      -0.000       2.540       0.000       0.000       2.540

 ******    2 imaginary frequencies (negative Signs) ******

                      1                      2                      3
                      A                      A                      A
 Frequencies --   -745.3888              -745.3888               579.4291
 Red. masses --      1.0251                 1.0251                 1.0518
 Frc consts  --      0.3356                 0.3356                 0.2081
 IR Inten    --    116.1512               116.1512                 0.2969

                      4
                      A
 Frequencies --   4311.0786
 Red. masses --      1.0597
 Frc consts  --     11.6044
 IR Inten    --    197.9789

 - Thermochemistry -
 -------------------
 Temperature   298.150 Kelvin.  Pressure   1.00000 Atm.
 Atom     1 has atomic number  1 and mass   1.00783

 Molecular mass:    21.01405 amu.
 Principal axes and moments of inertia in atomic units:
                           1         2         3
     Eigenvalues --     0.00000  21.76580  21.76580
           X            1.00000  -0.00000   0.00000
           Y            0.00000   1.00000   0.00000
           Z            0.00000   0.00000   1.00000
 This molecule is a prolate symmetric top.
 Rotational symmetry number  1.
 Rotational temperature (Kelvin)      3.97936
 Rotational constant (GHZ):          82.916386
    2 imaginary frequencies ignored.
 Zero-point vibrational energy      29251.7 (Joules/Mol)
                                    6.99133 (Kcal/Mol)
 Warning -- explicit consideration of   1 degrees of freedom as
           vibrations may cause significant error
 Vibrational temperatures:    833.67  6202.68
          (Kelvin)

 Zero-point correction=                           0.011141 (Hartree/Particle)
 Thermal correction to Energy=                    0.013674
 Thermal correction to Enthalpy=                  0.014618
 Thermal correction to Gibbs Free Energy=        -0.007950
 Sum of electronic and zero-point Energies=           -100.958708
 Sum of electronic and thermal Energies=              -100.956176
 Sum of electronic and thermal Enthalpies=            -100.955232
 Sum of electronic and thermal Free Energies=         -100.977799

                     E (Thermal)             CV                S
                      KCal/Mol        Cal/Mol-Kelvin    Cal/Mol-Kelvin
 Total                    8.580              6.044             47.497
 Electronic               0.000              0.000              1.377
 Translational            0.889              2.981             35.068
 Rotational               0.592              1.987             10.565
 Vibrational              7.099              1.076              0.486
 Vibration     1          0.936              1.076              0.486

 Normal termination of Gaussian 16 at Fri Aug 22 15:55:29 2025.
