 Gaussian 16, Revision C.01,
 Gaussian 16:  ES64L-G16RevC.01  3-Jul-2019

 -----------------------------------------
 # sp b3lyp/6-311g** Force nosymm scf=(qc)
 -----------------------------------------

 -------------------
 Title Card Required
 -------------------
 Symbolic Z-matrix:
 Charge =  0 Multiplicity = 2

                          Input orientation:
 ---------------------------------------------------------------------
 Center     Atomic      Atomic             Coordinates (Angstroms)
 Number     Number       Type             X           Y           Z
 ---------------------------------------------------------------------
      1          1           0        0.000000    0.000000    0.000000
      2          1           0       -3.000000    0.000000    0.000000
      3          9           0        0.650000    0.000000    0.000000
 ---------------------------------------------------------------------

 SCF Done:  E(UB3LYP) =  -100.800766545     a.u. after    6 cycles

 Alpha  occ. eigenvalues --  -24.62925  -1.31300  -0.59796  -0.42344  -0.42344
 Alpha  occ. eigenvalues --   -0.33784
 Alpha virt. eigenvalues --    0.07316   0.25507   0.55492   0.92895   0.92895
 Alpha virt. eigenvalues --    0.94690   1.22357   1.23742   1.23742   1.36244
 Alpha virt. eigenvalues --    1.46926   1.46926   1.96252   2.14978   3.09613

  Beta  occ. eigenvalues --  -24.62924  -1.31294  -0.59792  -0.42343  -0.42343
  Beta virt. eigenvalues --   -0.06048   0.08309   0.39302   0.55643   0.92894
  Beta virt. eigenvalues --    0.92894   0.94695   1.32565   1.46927   1.46927
  Beta virt. eigenvalues --    1.50872   1.50872   1.52144   1.96155   2.44684

 Mulliken charges and spin densities:
               1          2
     1  H    0.253325   0.001285
     2  H    0.001881   0.997482
     3  F   -0.255206   0.001233
 Sum of Mulliken charges =   0.00000   1.00000

 Dipole moment (field-independent basis, Debye):
    X=             -1.5321    Y=              0.0000    Z=              0.0000  Tot=              1.5321
 Quadrupole moment (field-independent basis, Debye-Ang):
   XX=             -7.0580   YY=             -6.6071   ZZ=             -6.6071
   XY=             -0.0000   XZ=              0.0000   YZ=              0.0000

  Exact polarizability:       4.263      -0.000       2.454      -0.000      -0.000       2.454
 Approx polarizability:       4.468      -0.000       2.436      -0.000       0.000       2.436

 ******    3 imaginary frequencies (negative Signs) ******

                      1                      2                      3
                      A                      A                      A
 Frequencies --  -4582.8611             -4582.8611               -19.3753
 Red. masses --      1.0409                 1.0409                 1.0532
 Frc consts  --     12.8807                12.8807                 0.0002
 IR Inten    --    220.9867               220.9867                 0.0905

                      4
                      A
 Frequencies --  10873.5049
 Red. masses --      1.0583
 Frc consts  --     73.7231
 IR Inten    --    107.6593

 - Thermochemistry -
 -------------------
 Temperature   298.150 Kelvin.  Pressure   1.00000 Atm.
 Atom     1 has atomic number  1 and mass   1.00783

 Molecular mass:    21.01405 amu.
 Principal axes and moments of inertia in atomic units:
                           1         2         3
     Eigenvalues --     0.00000  46.27687  46.27687
           X            1.00000  -0.00000   0.00000
           Y            0.00000   1.00000   0.00000
           Z            0.00000   0.00000   1.00000
 This molecule is a prolate symmetric top.
 Rotational symmetry number  1.
 Rotational temperature (Kelvin)      1.87165
 Rotational constant (GHZ):          38.998774
    3 imaginary frequencies ignored.
 Zero-point vibrational energy      65038.0 (Joules/Mol)
                                   15.54446 (Kcal/Mol)
 Vibrational temperatures:  15644.55
          (Kelvin)

 Zero-point correction=                           0.024772 (Hartree/Particle)
 Thermal correction to Energy=                    0.027132
 Thermal correction to Enthalpy=                  0.028076
 Thermal correction to Gibbs Free Energy=         0.005028
 Sum of electronic and zero-point Energies=           -100.775995
 Sum of electronic and thermal Energies=              -100.773634
 Sum of electronic and thermal Enthalpies=            -100.772690
 Sum of electronic and thermal Free Energies=         -100.795739

                     E (Thermal)             CV                S
                      KCal/Mol        Cal/Mol-Kelvin    Cal/Mol-Kelvin
 Total                   17.026              4.968             48.509
 Electronic               0.000              0.000              1.377
 Translational            0.889              2.981             35.068
 Rotational               0.592              1.987             12.064
 Vibrational             15.544              0.000              0.000

 Normal termination of Gaussian 16 at Fri Aug 22 15:44:43 2025.
