 Gaussian 16, Revision C.01,
 Gaussian 16:  ES64L-G16RevC.01  3-Jul-2019

 -----------------------------------------
 # sp b3lyp/6-311g** Force nosymm scf=(qc)
 -----------------------------------------

 -------------------
 Title Card Required
 -------------------
 Symbolic Z-matrix:
 Charge =  0 Multiplicity = 2

                          Input orientation:
 ---------------------------------------------------------------------
 Center     Atomic      Atomic             Coordinates (Angstroms)
 Number     Number       Type             X           Y           Z
 ---------------------------------------------------------------------
      1          1           0        0.000000    0.000000    0.000000
      2          1           0       -3.950000    0.000000    0.000000
      3          9           0        1.200000    0.000000    0.000000
 ---------------------------------------------------------------------

 SCF Done:  E(UB3LYP) =  -100.925532437     a.u. after    6 cycles

 Alpha  occ. eigenvalues --  -24.64363  -1.12280  -0.47753  -0.37539  -0.37539
 Alpha  occ. eigenvalues --   -0.33502
 Alpha virt. eigenvalues --   -0.05783   0.22186   0.28998   0.93164   0.93164
 Alpha virt. eigenvalues --    1.00799   1.23954   1.24005   1.24005   1.25996
 Alpha virt. eigenvalues --    1.34605   1.34605   1.72524   2.13466   2.28365

  Beta  occ. eigenvalues --  -24.64362  -1.12276  -0.47749  -0.37538  -0.37538
  Beta virt. eigenvalues --   -0.06675  -0.04532   0.26681   0.38953   0.93164
  Beta virt. eigenvalues --    0.93164   1.00803   1.25997   1.34602   1.34602
  Beta virt. eigenvalues --    1.48614   1.48614   1.49181   1.72542   2.27681

 Mulliken charges and spin densities:
               1          2
     1  H    0.353615   0.000005
     2  H    0.000447   0.999521
     3  F   -0.354063   0.000474
 Sum of Mulliken charges =   0.00000   1.00000

 Dipole moment (field-independent basis, Debye):
    X=             -2.2826    Y=              0.0000    Z=             -0.0000  Tot=              2.2826
 Quadrupole moment (field-independent basis, Debye-Ang):
   XX=             -8.9239   YY=             -7.1277   ZZ=             -7.1277
   XY=              0.0000   XZ=             -0.0000   YZ=              0.0000

  Exact polarizability:       9.118       0.000       2.322      -0.000      -0.000       2.322
 Approx polarizability:      13.129      -0.000       2.275       0.000      -0.000       2.275

 ******    1 imaginary frequencies (negative Signs) ******

                      1                      2                      3
                      A                      A                      A
 Frequencies --    -34.4451              1007.2563              1210.9867
 Red. masses --      1.0531                 1.0585                 1.0360
 Frc consts  --      0.0007                 0.6327                 0.8952
 IR Inten    --      0.0233                63.6013               148.7219

                      4
                      A
 Frequencies --   1210.9867
 Red. masses --      1.0360
 Frc consts  --      0.8952
 IR Inten    --    148.7219

 - Thermochemistry -
 -------------------
 Temperature   298.150 Kelvin.  Pressure   1.00000 Atm.
 Atom     1 has atomic number  1 and mass   1.00783

 Molecular mass:    21.01405 amu.
 Principal axes and moments of inertia in atomic units:
                           1         2         3
     Eigenvalues --     0.00000  93.67733  93.67733
           X            1.00000  -0.00000   0.00000
           Y            0.00000   1.00000   0.00000
           Z            0.00000   0.00000   1.00000
 This molecule is a prolate symmetric top.
 Rotational symmetry number  1.
 Rotational temperature (Kelvin)      0.92460
 Rotational constant (GHZ):          19.265506
    1 imaginary frequencies ignored.
 Zero-point vibrational energy      20511.3 (Joules/Mol)
                                    4.90233 (Kcal/Mol)
 Vibrational temperatures:   1449.22  1742.34  1742.34
          (Kelvin)

 Zero-point correction=                           0.007812 (Hartree/Particle)
 Thermal correction to Energy=                    0.010241
 Thermal correction to Enthalpy=                  0.011185
 Thermal correction to Gibbs Free Energy=        -0.012610
 Sum of electronic and zero-point Energies=           -100.917720
 Sum of electronic and thermal Energies=              -100.915292
 Sum of electronic and thermal Enthalpies=            -100.914348
 Sum of electronic and thermal Free Energies=         -100.938142

                     E (Thermal)             CV                S
                      KCal/Mol        Cal/Mol-Kelvin    Cal/Mol-Kelvin
 Total                    6.426              5.733             50.081
 Electronic               0.000              0.000              1.377
 Translational            0.889              2.981             35.068
 Rotational               0.592              1.987             13.465
 Vibrational              4.945              0.765              0.170

 Normal termination of Gaussian 16 at Fri Aug 22 16:11:25 2025.
