 Gaussian 16, Revision C.01,
 Gaussian 16:  ES64L-G16RevC.01  3-Jul-2019

 -----------------------------------------
 # sp b3lyp/6-311g** Force nosymm scf=(qc)
 -----------------------------------------

 -------------------
 Title Card Required
 -------------------
 Symbolic Z-matrix:
 Charge =  0 Multiplicity = 2

                          Input orientation:
 ---------------------------------------------------------------------
 Center     Atomic      Atomic             Coordinates (Angstroms)
 Number     Number       Type             X           Y           Z
 ---------------------------------------------------------------------
      1          1           0        0.000000    0.000000    0.000000
      2          1           0       -3.200000    0.000000    0.000000
      3          9           0        0.800000    0.000000    0.000000
 ---------------------------------------------------------------------

 SCF Done:  E(UB3LYP) =  -100.950359404     a.u. after    6 cycles

 Alpha  occ. eigenvalues --  -24.63667  -1.23030  -0.56183  -0.40641  -0.40641
 Alpha  occ. eigenvalues --   -0.33767
 Alpha virt. eigenvalues --    0.05226   0.25124   0.45759   0.94214   0.94214
 Alpha virt. eigenvalues --    0.97014   1.23130   1.23753   1.23753   1.31546
 Alpha virt. eigenvalues --    1.39829   1.39829   2.02798   2.14692   2.53087

  Beta  occ. eigenvalues --  -24.63665  -1.23025  -0.56178  -0.40639  -0.40639
  Beta virt. eigenvalues --   -0.05944   0.06068   0.39305   0.45786   0.94214
  Beta virt. eigenvalues --    0.94214   0.97000   1.30202   1.39829   1.39829
  Beta virt. eigenvalues --    1.50830   1.50831   1.50831   2.02853   2.44382

 Mulliken charges and spin densities:
               1          2
     1  H    0.273987   0.001030
     2  H    0.001439   0.998113
     3  F   -0.275426   0.000857
 Sum of Mulliken charges =   0.00000   1.00000

 Dipole moment (field-independent basis, Debye):
    X=             -1.7539    Y=             -0.0000    Z=             -0.0000  Tot=              1.7539
 Quadrupole moment (field-independent basis, Debye-Ang):
   XX=             -7.5543   YY=             -6.7687   ZZ=             -6.7687
   XY=             -0.0000   XZ=             -0.0000   YZ=             -0.0000

  Exact polarizability:       5.036      -0.000       2.448      -0.000       0.000       2.448
 Approx polarizability:       5.554      -0.000       2.430       0.000      -0.000       2.430

 ******    3 imaginary frequencies (negative Signs) ******

                      1                      2                      3
                      A                      A                      A
 Frequencies --  -1975.2931             -1975.2931               -46.7722
 Red. masses --      1.0389                 1.0389                 1.0532
 Frc consts  --      2.3884                 2.3884                 0.0014
 IR Inten    --    193.4890               193.4890                 0.0776

                      4
                      A
 Frequencies --   6349.5318
 Red. masses --      1.0583
 Frc consts  --     25.1391
 IR Inten    --    109.4010

 - Thermochemistry -
 -------------------
 Temperature   298.150 Kelvin.  Pressure   1.00000 Atm.
 Atom     1 has atomic number  1 and mass   1.00783

 Molecular mass:    21.01405 amu.
 Principal axes and moments of inertia in atomic units:
                           1         2         3
     Eigenvalues --     0.00000  55.91064  55.91064
           X            1.00000  -0.00000   0.00000
           Y            0.00000   1.00000   0.00000
           Z            0.00000   0.00000   1.00000
 This molecule is a prolate symmetric top.
 Rotational symmetry number  1.
 Rotational temperature (Kelvin)      1.54915
 Rotational constant (GHZ):          32.279030
    3 imaginary frequencies ignored.
 Zero-point vibrational energy      37978.6 (Joules/Mol)
                                    9.07711 (Kcal/Mol)
 Vibrational temperatures:   9135.56
          (Kelvin)

 Zero-point correction=                           0.014465 (Hartree/Particle)
 Thermal correction to Energy=                    0.016826
 Thermal correction to Enthalpy=                  0.017770
 Thermal correction to Gibbs Free Energy=        -0.005457
 Sum of electronic and zero-point Energies=           -100.935894
 Sum of electronic and thermal Energies=              -100.933534
 Sum of electronic and thermal Enthalpies=            -100.932589
 Sum of electronic and thermal Free Energies=         -100.955816

                     E (Thermal)             CV                S
                      KCal/Mol        Cal/Mol-Kelvin    Cal/Mol-Kelvin
 Total                   10.558              4.968             48.885
 Electronic               0.000              0.000              1.377
 Translational            0.889              2.981             35.068
 Rotational               0.592              1.987             12.440
 Vibrational              9.077              0.000              0.000

 Normal termination of Gaussian 16 at Fri Aug 22 15:51:53 2025.
