 Gaussian 16, Revision C.01,
 Gaussian 16:  ES64L-G16RevC.01  3-Jul-2019

 -----------------------------------------
 # sp b3lyp/6-311g** Force nosymm scf=(qc)
 -----------------------------------------

 -------------------
 Title Card Required
 -------------------
 Symbolic Z-matrix:
 Charge =  0 Multiplicity = 2

                          Input orientation:
 ---------------------------------------------------------------------
 Center     Atomic      Atomic             Coordinates (Angstroms)
 Number     Number       Type             X           Y           Z
 ---------------------------------------------------------------------
      1          1           0        0.000000    0.000000    0.000000
      2          1           0       -1.150000    0.000000    0.000000
      3          9           0        2.000000    0.000000    0.000000
 ---------------------------------------------------------------------

 SCF Done:  E(UB3LYP) =  -100.886598059     a.u. after   12 cycles

 Alpha  occ. eigenvalues --  -24.72571  -1.18825  -0.52329  -0.43497  -0.43497
 Alpha  occ. eigenvalues --   -0.39618
 Alpha virt. eigenvalues --   -0.03259   0.21608   0.34702   0.89338   0.91970
 Alpha virt. eigenvalues --    0.91970   1.07240   1.09355   1.09355   1.40843
 Alpha virt. eigenvalues --    1.54607   1.54607   2.11568   2.29869   2.54471

  Beta  occ. eigenvalues --  -24.69742  -1.10813  -0.40686  -0.40686  -0.39393
  Beta virt. eigenvalues --   -0.24934  -0.01742   0.22508   0.35218   0.93221
  Beta virt. eigenvalues --    0.93221   0.96208   1.10193   1.10577   1.10577
  Beta virt. eigenvalues --    1.43826   1.55447   1.55447   2.13098   2.31130

 Mulliken charges and spin densities:
               1          2
     1  H    0.038740  -0.098047
     2  H    0.048694   0.211010
     3  F   -0.087435   0.887037
 Sum of Mulliken charges =  -0.00000   1.00000

 Dipole moment (field-independent basis, Debye):
    X=             -1.1192    Y=             -0.0000    Z=              0.0000  Tot=              1.1192
 Quadrupole moment (field-independent basis, Debye-Ang):
   XX=             -6.7999   YY=             -7.3369   ZZ=             -7.3369
   XY=             -0.0000   XZ=              0.0000   YZ=              0.0000

  Exact polarizability:      38.583      -0.000       2.178       0.000       0.000       2.178
 Approx polarizability:      54.224       0.000       2.179      -0.000      -0.000       2.179

 ******    1 imaginary frequencies (negative Signs) ******

                      1                      2                      3
                      A                      A                      A
 Frequencies --  -1172.2571               292.1081              1409.7830
 Red. masses --      1.0273                 1.0859                 1.0126
 Frc consts  --      0.8317                 0.0546                 1.1858
 IR Inten    --    887.8993                25.3263                 0.0381

                      4
                      A
 Frequencies --   1409.7830
 Red. masses --      1.0126
 Frc consts  --      1.1858
 IR Inten    --      0.0381

 - Thermochemistry -
 -------------------
 Temperature   298.150 Kelvin.  Pressure   1.00000 Atm.
 Atom     1 has atomic number  1 and mass   1.00783

 Molecular mass:    21.01405 amu.
 Principal axes and moments of inertia in atomic units:
                           1         2         3
     Eigenvalues --     0.00000  45.52923  45.52923
           X            1.00000  -0.00000   0.00000
           Y            0.00000   1.00000   0.00000
           Z            0.00000   0.00000   1.00000
 This molecule is a prolate symmetric top.
 Rotational symmetry number  1.
 Rotational temperature (Kelvin)      1.90238
 Rotational constant (GHZ):          39.639177
    1 imaginary frequencies ignored.
 Zero-point vibrational energy      18611.9 (Joules/Mol)
                                    4.44836 (Kcal/Mol)
 Warning -- explicit consideration of   1 degrees of freedom as
           vibrations may cause significant error
 Vibrational temperatures:    420.28  2028.36  2028.36
          (Kelvin)

 Zero-point correction=                           0.007089 (Hartree/Particle)
 Thermal correction to Energy=                    0.009894
 Thermal correction to Enthalpy=                  0.010838
 Thermal correction to Gibbs Free Energy=        -0.012906
 Sum of electronic and zero-point Energies=           -100.879509
 Sum of electronic and thermal Energies=              -100.876704
 Sum of electronic and thermal Enthalpies=            -100.875760
 Sum of electronic and thermal Free Energies=         -100.899504

                     E (Thermal)             CV                S
                      KCal/Mol        Cal/Mol-Kelvin    Cal/Mol-Kelvin
 Total                    6.208              6.861             49.973
 Electronic               0.000              0.000              1.377
 Translational            0.889              2.981             35.068
 Rotational               0.592              1.987             12.032
 Vibrational              4.727              1.893              1.496
 Vibration     1          0.687              1.688              1.462

 Normal termination of Gaussian 16 at Fri Aug 22 16:55:42 2025.
