 Gaussian 16, Revision C.01,
 Gaussian 16:  ES64L-G16RevC.01  3-Jul-2019

 -----------------------------------------
 # sp b3lyp/6-311g** Force nosymm scf=(qc)
 -----------------------------------------

 -------------------
 Title Card Required
 -------------------
 Symbolic Z-matrix:
 Charge =  0 Multiplicity = 2

                          Input orientation:
 ---------------------------------------------------------------------
 Center     Atomic      Atomic             Coordinates (Angstroms)
 Number     Number       Type             X           Y           Z
 ---------------------------------------------------------------------
      1          1           0        0.000000    0.000000    0.000000
      2          1           0       -2.850000    0.000000    0.000000
      3          9           0        2.800000    0.000000    0.000000
 ---------------------------------------------------------------------

 SCF Done:  E(UB3LYP) =  -100.764168050     a.u. after   20 cycles

 Alpha  occ. eigenvalues --  -24.73307  -1.19420  -0.52422  -0.44021  -0.44021
 Alpha  occ. eigenvalues --   -0.32982
 Alpha virt. eigenvalues --   -0.10016   0.24718   0.34424   0.90027   0.92739
 Alpha virt. eigenvalues --    0.92739   1.05169   1.24578   1.24578   1.25838
 Alpha virt. eigenvalues --    1.41083   1.41083   1.42252   2.15461   2.37382

  Beta  occ. eigenvalues --  -24.70337  -1.10925  -0.41051  -0.41051  -0.34308
  Beta virt. eigenvalues --   -0.24328  -0.08150   0.25017   0.36144   0.94180
  Beta virt. eigenvalues --    0.94180   0.98366   1.08763   1.23072   1.23072
  Beta virt. eigenvalues --    1.25220   1.43934   1.43934   1.44195   2.15657

 Mulliken charges and spin densities:
               1          2
     1  H    0.050402  -0.929480
     2  H    0.003172   0.989006
     3  F   -0.053575   0.940473
 Sum of Mulliken charges =  -0.00000   1.00000

 Dipole moment (field-independent basis, Debye):
    X=             -0.8120    Y=              0.0000    Z=             -0.0000  Tot=              0.8120
 Quadrupole moment (field-independent basis, Debye-Ang):
   XX=             -8.5306   YY=             -7.6172   ZZ=             -7.6172
   XY=              0.0000   XZ=             -0.0000   YZ=              0.0000

  Exact polarizability:      37.539       0.000       2.018      -0.000       0.000       2.018
 Approx polarizability:      39.255       0.000       1.921      -0.000      -0.000       1.921

 ******    2 imaginary frequencies (negative Signs) ******

                      1                      2                      3
                      A                      A                      A
 Frequencies --   -547.4221              -229.0154               207.2888
 Red. masses --      1.0265                 1.0868                 1.0182
 Frc consts  --      0.1812                 0.0336                 0.0258
 IR Inten    --     46.4372                 8.6690                 2.2380

                      4
                      A
 Frequencies --    207.2888
 Red. masses --      1.0182
 Frc consts  --      0.0258
 IR Inten    --      2.2380

 - Thermochemistry -
 -------------------
 Temperature   298.150 Kelvin.  Pressure   1.00000 Atm.
 Atom     1 has atomic number  1 and mass   1.00783

 Molecular mass:    21.01405 amu.
 Principal axes and moments of inertia in atomic units:
                           1         2         3
     Eigenvalues --     0.00000 130.78101 130.78101
           X            1.00000  -0.00000   0.00000
           Y            0.00000   1.00000   0.00000
           Z            0.00000   0.00000   1.00000
 This molecule is a prolate symmetric top.
 Rotational symmetry number  1.
 Rotational temperature (Kelvin)      0.66228
 Rotational constant (GHZ):          13.799719
    2 imaginary frequencies ignored.
 Zero-point vibrational energy       2479.7 (Joules/Mol)
                                    0.59267 (Kcal/Mol)
 Warning -- explicit consideration of   2 degrees of freedom as
           vibrations may cause significant error
 Vibrational temperatures:    298.24   298.24
          (Kelvin)

 Zero-point correction=                           0.000944 (Hartree/Particle)
 Thermal correction to Energy=                    0.004404
 Thermal correction to Enthalpy=                  0.005348
 Thermal correction to Gibbs Free Energy=        -0.020646
 Sum of electronic and zero-point Energies=           -100.763224
 Sum of electronic and thermal Energies=              -100.759764
 Sum of electronic and thermal Enthalpies=            -100.758820
 Sum of electronic and thermal Free Energies=         -100.784814

                     E (Thermal)             CV                S
                      KCal/Mol        Cal/Mol-Kelvin    Cal/Mol-Kelvin
 Total                    2.763              8.627             54.709
 Electronic               0.000              0.000              1.377
 Translational            0.889              2.981             35.068
 Rotational               0.592              1.987             14.128
 Vibrational              1.282              3.659              4.135
 Vibration     1          0.641              1.829              2.067
 Vibration     2          0.641              1.829              2.067

 Normal termination of Gaussian 16 at Fri Aug 22 18:43:57 2025.
