 Gaussian 16, Revision C.01,
 Gaussian 16:  ES64L-G16RevC.01  3-Jul-2019

 -----------------------------------------
 # sp b3lyp/6-311g** Force nosymm scf=(qc)
 -----------------------------------------

 -------------------
 Title Card Required
 -------------------
 Symbolic Z-matrix:
 Charge =  0 Multiplicity = 2

                          Input orientation:
 ---------------------------------------------------------------------
 Center     Atomic      Atomic             Coordinates (Angstroms)
 Number     Number       Type             X           Y           Z
 ---------------------------------------------------------------------
      1          1           0        0.000000    0.000000    0.000000
      2          1           0       -1.050000    0.000000    0.000000
      3          9           0        3.850000    0.000000    0.000000
 ---------------------------------------------------------------------

 SCF Done:  E(UB3LYP) =  -100.898390488     a.u. after   97 cycles

 Alpha  occ. eigenvalues --  -24.76228  -1.22123  -0.55326  -0.46503  -0.46482
 Alpha  occ. eigenvalues --   -0.38176
 Alpha virt. eigenvalues --   -0.00765   0.21783   0.37442   0.86048   0.90925
 Alpha virt. eigenvalues --    0.91581   1.01007   1.09923   1.09925   1.33614
 Alpha virt. eigenvalues --    1.62830   1.62833   2.19691   2.35144   2.56187

  Beta  occ. eigenvalues --  -24.73073  -1.13048  -0.43340  -0.43318  -0.38175
  Beta virt. eigenvalues --   -0.25974  -0.00762   0.21786   0.37459   0.92425
  Beta virt. eigenvalues --    0.93074   0.95514   1.05150   1.09923   1.09925
  Beta virt. eigenvalues --    1.33617   1.62830   1.62832   2.19695   2.35145

 Mulliken charges and spin densities:
               1          2
     1  H    0.000702  -0.000111
     2  H   -0.002052  -0.000037
     3  F    0.001350   1.000148
 Sum of Mulliken charges =   0.00000   1.00000

 Dipole moment (field-independent basis, Debye):
    X=              0.0249    Y=              0.0000    Z=             -0.0000  Tot=              0.0249
 Quadrupole moment (field-independent basis, Debye-Ang):
   XX=             -6.3289   YY=             -6.8959   ZZ=             -6.9014
   XY=              0.0000   XZ=             -0.0000   YZ=             -0.4323

  Exact polarizability:      12.874       0.000       2.302      -0.000      -0.233       2.299
 Approx polarizability:      17.562       0.000       2.405      -0.000      -0.291       2.401

 ******    1 imaginary frequencies (negative Signs) ******

                      1                      2                      3
                      A                      A                      A
 Frequencies --    -51.0633              1410.9988              1544.6625
 Red. masses --      1.1085                 1.0078                 1.0093
 Frc consts  --      0.0017                 1.1822                 1.4188
 IR Inten    --      0.0531                 0.0589                 0.0007

                      4
                      A
 Frequencies --   1544.7053
 Red. masses --      1.0093
 Frc consts  --      1.4189
 IR Inten    --      0.0006

 - Thermochemistry -
 -------------------
 Temperature   298.150 Kelvin.  Pressure   1.00000 Atm.
 Atom     1 has atomic number  1 and mass   1.00783

 Molecular mass:    21.01405 amu.
 Principal axes and moments of inertia in atomic units:
                           1         2         3
     Eigenvalues --     0.00000 126.54328 126.54328
           X            1.00000  -0.00000   0.00000
           Y            0.00000   1.00000   0.00000
           Z            0.00000   0.00000   1.00000
 This molecule is a prolate symmetric top.
 Rotational symmetry number  1.
 Rotational temperature (Kelvin)      0.68446
 Rotational constant (GHZ):          14.261849
    1 imaginary frequencies ignored.
 Zero-point vibrational energy      26918.2 (Joules/Mol)
                                    6.43360 (Kcal/Mol)
 Vibrational temperatures:   2030.11  2222.42  2222.49
          (Kelvin)

 Zero-point correction=                           0.010253 (Hartree/Particle)
 Thermal correction to Energy=                    0.012628
 Thermal correction to Enthalpy=                  0.013572
 Thermal correction to Gibbs Free Energy=        -0.010443
 Sum of electronic and zero-point Energies=           -100.888138
 Sum of electronic and thermal Energies=              -100.885762
 Sum of electronic and thermal Enthalpies=            -100.884818
 Sum of electronic and thermal Free Energies=         -100.908834

                     E (Thermal)             CV                S
                      KCal/Mol        Cal/Mol-Kelvin    Cal/Mol-Kelvin
 Total                    7.924              5.198             50.545
 Electronic               0.000              0.000              1.377
 Translational            0.889              2.981             35.068
 Rotational               0.592              1.987             14.063
 Vibrational              6.443              0.230              0.037

 Normal termination of Gaussian 16 at Sat Aug 23 00:57:09 2025.
