 Gaussian 16, Revision C.01,
 Gaussian 16:  ES64L-G16RevC.01  3-Jul-2019

 -----------------------------------------
 # sp b3lyp/6-311g** Force nosymm scf=(qc)
 -----------------------------------------

 -------------------
 Title Card Required
 -------------------
 Symbolic Z-matrix:
 Charge =  0 Multiplicity = 2

                          Input orientation:
 ---------------------------------------------------------------------
 Center     Atomic      Atomic             Coordinates (Angstroms)
 Number     Number       Type             X           Y           Z
 ---------------------------------------------------------------------
      1          1           0        0.000000    0.000000    0.000000
      2          1           0       -1.200000    0.000000    0.000000
      3          9           0        3.850000    0.000000    0.000000
 ---------------------------------------------------------------------

 SCF Done:  E(UB3LYP) =  -100.871586595     a.u. after  149 cycles

 Alpha  occ. eigenvalues --  -24.76239  -1.22135  -0.55338  -0.46516  -0.46494
 Alpha  occ. eigenvalues --   -0.36337
 Alpha virt. eigenvalues --   -0.04089   0.22843   0.34283   0.86034   0.90912
 Alpha virt. eigenvalues --    0.91485   1.00953   1.12904   1.12906   1.22161
 Alpha virt. eigenvalues --    1.54404   1.54406   2.07270   2.31593   2.54358

  Beta  occ. eigenvalues --  -24.73083  -1.13061  -0.43352  -0.43330  -0.36336
  Beta virt. eigenvalues --   -0.25987  -0.04087   0.22847   0.34297   0.92412
  Beta virt. eigenvalues --    0.92978   0.95500   1.05098   1.12904   1.12906
  Beta virt. eigenvalues --    1.22164   1.54404   1.54406   2.07272   2.31594

 Mulliken charges and spin densities:
               1          2
     1  H    0.000873  -0.000075
     2  H   -0.002102  -0.000062
     3  F    0.001230   1.000136
 Sum of Mulliken charges =   0.00000   1.00000

 Dipole moment (field-independent basis, Debye):
    X=              0.0254    Y=             -0.0000    Z=             -0.0000  Tot=              0.0254
 Quadrupole moment (field-independent basis, Debye-Ang):
   XX=             -6.3264   YY=             -7.3400   ZZ=             -6.7829
   XY=              0.0000   XZ=              0.0000   YZ=              0.3306

  Exact polarizability:      15.815       0.000       2.162       0.000       0.179       2.463
 Approx polarizability:      23.935       0.000       2.208       0.000       0.223       2.583

 ******    2 imaginary frequencies (negative Signs) ******

                      1                      2                      3
                      A                      A                      A
 Frequencies --   -453.7841               -51.7521              1471.0148
 Red. masses --      1.0078                 1.1085                 1.0096
 Frc consts  --      0.1223                 0.0017                 1.2872
 IR Inten    --      0.0672                 0.0511                 0.0029

                      4
                      A
 Frequencies --   1473.0139
 Red. masses --      1.0096
 Frc consts  --      1.2907
 IR Inten    --      0.0011

 - Thermochemistry -
 -------------------
 Temperature   298.150 Kelvin.  Pressure   1.00000 Atm.
 Atom     1 has atomic number  1 and mass   1.00783

 Molecular mass:    21.01405 amu.
 Principal axes and moments of inertia in atomic units:
                           1         2         3
     Eigenvalues --     0.00000 131.45783 131.45783
           X            1.00000  -0.00000   0.00000
           Y            0.00000   1.00000   0.00000
           Z            0.00000   0.00000   1.00000
 This molecule is a prolate symmetric top.
 Rotational symmetry number  1.
 Rotational temperature (Kelvin)      0.65887
 Rotational constant (GHZ):          13.728671
    2 imaginary frequencies ignored.
 Zero-point vibrational energy      17609.2 (Joules/Mol)
                                    4.20870 (Kcal/Mol)
 Vibrational temperatures:   2116.46  2119.34
          (Kelvin)

 Zero-point correction=                           0.006707 (Hartree/Particle)
 Thermal correction to Energy=                    0.009078
 Thermal correction to Enthalpy=                  0.010023
 Thermal correction to Gibbs Free Energy=        -0.014024
 Sum of electronic and zero-point Energies=           -100.864880
 Sum of electronic and thermal Energies=              -100.862508
 Sum of electronic and thermal Enthalpies=            -100.861564
 Sum of electronic and thermal Free Energies=         -100.885611

                     E (Thermal)             CV                S
                      KCal/Mol        Cal/Mol-Kelvin    Cal/Mol-Kelvin
 Total                    5.697              5.133             50.611
 Electronic               0.000              0.000              1.377
 Translational            0.889              2.981             35.068
 Rotational               0.592              1.987             14.139
 Vibrational              4.216              0.165              0.027

 Normal termination of Gaussian 16 at Sat Aug 23 00:58:08 2025.
