 Gaussian 16, Revision C.01,
 Gaussian 16:  ES64L-G16RevC.01  3-Jul-2019

 -----------------------------------------
 # sp b3lyp/6-311g** Force nosymm scf=(qc)
 -----------------------------------------

 -------------------
 Title Card Required
 -------------------
 Symbolic Z-matrix:
 Charge =  0 Multiplicity = 2

                          Input orientation:
 ---------------------------------------------------------------------
 Center     Atomic      Atomic             Coordinates (Angstroms)
 Number     Number       Type             X           Y           Z
 ---------------------------------------------------------------------
      1          1           0        0.000000    0.000000    0.000000
      2          1           0       -2.950000    0.000000    0.000000
      3          9           0        2.750000    0.000000    0.000000
 ---------------------------------------------------------------------

 SCF Done:  E(UB3LYP) =  -100.764373641     a.u. after   19 cycles

 Alpha  occ. eigenvalues --  -24.73072  -1.19201  -0.52185  -0.43824  -0.43824
 Alpha  occ. eigenvalues --   -0.32962
 Alpha virt. eigenvalues --   -0.09955   0.24503   0.34670   0.90072   0.92876
 Alpha virt. eigenvalues --    0.92876   1.05448   1.24584   1.24584   1.25584
 Alpha virt. eigenvalues --    1.41313   1.41313   1.42567   2.15343   2.37267

  Beta  occ. eigenvalues --  -24.70119  -1.10762  -0.40873  -0.40873  -0.34459
  Beta virt. eigenvalues --   -0.24185  -0.07880   0.24839   0.36506   0.94309
  Beta virt. eigenvalues --    0.94309   0.98222   1.08877   1.22909   1.22909
  Beta virt. eigenvalues --    1.25406   1.44380   1.44380   1.44447   2.15256

 Mulliken charges and spin densities:
               1          2
     1  H    0.056161  -0.926202
     2  H    0.002638   0.991582
     3  F   -0.058799   0.934620
 Sum of Mulliken charges =  -0.00000   1.00000

 Dipole moment (field-independent basis, Debye):
    X=             -0.8653    Y=              0.0000    Z=             -0.0000  Tot=              0.8653
 Quadrupole moment (field-independent basis, Debye-Ang):
   XX=             -8.6713   YY=             -7.6091   ZZ=             -7.6091
   XY=             -0.0000   XZ=              0.0000   YZ=              0.0000

  Exact polarizability:      36.140      -0.000       2.019       0.000       0.000       2.019
 Approx polarizability:      39.227      -0.000       1.920       0.000      -0.000       1.920

 ******    2 imaginary frequencies (negative Signs) ******

                      1                      2                      3
                      A                      A                      A
 Frequencies --   -539.4500              -213.9882               204.1789
 Red. masses --      1.0338                 1.0787                 1.0188
 Frc consts  --      0.1772                 0.0291                 0.0250
 IR Inten    --     53.4628                 5.4494                 2.8335

                      4
                      A
 Frequencies --    204.1789
 Red. masses --      1.0188
 Frc consts  --      0.0250
 IR Inten    --      2.8335

 - Thermochemistry -
 -------------------
 Temperature   298.150 Kelvin.  Pressure   1.00000 Atm.
 Atom     1 has atomic number  1 and mass   1.00783

 Molecular mass:    21.01405 amu.
 Principal axes and moments of inertia in atomic units:
                           1         2         3
     Eigenvalues --     0.00000 131.82472 131.82472
           X            1.00000  -0.00000   0.00000
           Y            0.00000   1.00000   0.00000
           Z            0.00000   0.00000   1.00000
 This molecule is a prolate symmetric top.
 Rotational symmetry number  1.
 Rotational temperature (Kelvin)      0.65704
 Rotational constant (GHZ):          13.690461
    2 imaginary frequencies ignored.
 Zero-point vibrational energy       2442.5 (Joules/Mol)
                                    0.58378 (Kcal/Mol)
 Warning -- explicit consideration of   2 degrees of freedom as
           vibrations may cause significant error
 Vibrational temperatures:    293.77   293.77
          (Kelvin)

 Zero-point correction=                           0.000930 (Hartree/Particle)
 Thermal correction to Energy=                    0.004399
 Thermal correction to Enthalpy=                  0.005343
 Thermal correction to Gibbs Free Energy=        -0.020684
 Sum of electronic and zero-point Energies=           -100.763443
 Sum of electronic and thermal Energies=              -100.759974
 Sum of electronic and thermal Enthalpies=            -100.759030
 Sum of electronic and thermal Free Energies=         -100.785058

                     E (Thermal)             CV                S
                      KCal/Mol        Cal/Mol-Kelvin    Cal/Mol-Kelvin
 Total                    2.761              8.636             54.780
 Electronic               0.000              0.000              1.377
 Translational            0.889              2.981             35.068
 Rotational               0.592              1.987             14.144
 Vibrational              1.279              3.668              4.190
 Vibration     1          0.640              1.834              2.095
 Vibration     2          0.640              1.834              2.095

 Normal termination of Gaussian 16 at Fri Aug 22 18:34:37 2025.
