 Gaussian 16, Revision C.01,
 Gaussian 16:  ES64L-G16RevC.01  3-Jul-2019

 -----------------------------------------
 # sp b3lyp/6-311g** Force nosymm scf=(qc)
 -----------------------------------------

 -------------------
 Title Card Required
 -------------------
 Symbolic Z-matrix:
 Charge =  0 Multiplicity = 2

                          Input orientation:
 ---------------------------------------------------------------------
 Center     Atomic      Atomic             Coordinates (Angstroms)
 Number     Number       Type             X           Y           Z
 ---------------------------------------------------------------------
      1          1           0        0.000000    0.000000    0.000000
      2          1           0       -2.100000    0.000000    0.000000
      3          9           0        1.750000    0.000000    0.000000
 ---------------------------------------------------------------------

 SCF Done:  E(UB3LYP) =  -100.819087982     a.u. after   19 cycles

 Alpha  occ. eigenvalues --  -24.65853  -1.12072  -0.44940  -0.37705  -0.37705
 Alpha  occ. eigenvalues --   -0.36813
 Alpha virt. eigenvalues --   -0.13662   0.23596   0.29084   0.93800   0.94960
 Alpha virt. eigenvalues --    0.94960   1.05581   1.20933   1.20933   1.28471
 Alpha virt. eigenvalues --    1.33746   1.33746   1.70644   2.10838   2.27455

  Beta  occ. eigenvalues --  -24.64055  -1.07140  -0.39160  -0.35955  -0.35955
  Beta virt. eigenvalues --   -0.19777  -0.10503   0.25297   0.32441   0.94946
  Beta virt. eigenvalues --    0.94946   0.95647   1.08371   1.25414   1.25414
  Beta virt. eigenvalues --    1.37332   1.37332   1.42110   1.67612   2.12632

 Mulliken charges and spin densities:
               1          2
     1  H    0.227693  -0.489107
     2  H    0.042516   0.924040
     3  F   -0.270209   0.565067
 Sum of Mulliken charges =   0.00000   1.00000

 Dipole moment (field-independent basis, Debye):
    X=             -2.7400    Y=             -0.0000    Z=             -0.0000  Tot=              2.7400
 Quadrupole moment (field-independent basis, Debye-Ang):
   XX=             -9.0129   YY=             -7.4521   ZZ=             -7.4521
   XY=             -0.0000   XZ=             -0.0000   YZ=              0.0000

  Exact polarizability:      39.747      -0.000       2.123      -0.000       0.000       2.123
 Approx polarizability:      50.718      -0.000       2.028      -0.000      -0.000       2.028

 ******    2 imaginary frequencies (negative Signs) ******

                      1                      2                      3
                      A                      A                      A
 Frequencies --  -1799.0159              -541.1477               751.1151
 Red. masses --      1.0370                 1.0753                 1.0203
 Frc consts  --      1.9774                 0.1855                 0.3391
 IR Inten    --     89.5843                15.9933                36.7747

                      4
                      A
 Frequencies --    751.1151
 Red. masses --      1.0203
 Frc consts  --      0.3391
 IR Inten    --     36.7747

 - Thermochemistry -
 -------------------
 Temperature   298.150 Kelvin.  Pressure   1.00000 Atm.
 Atom     1 has atomic number  1 and mass   1.00783

 Molecular mass:    21.01405 amu.
 Principal axes and moments of inertia in atomic units:
                           1         2         3
     Eigenvalues --     0.00000  58.95531  58.95531
           X            1.00000  -0.00000   0.00000
           Y            0.00000   1.00000   0.00000
           Z            0.00000   0.00000   1.00000
 This molecule is a prolate symmetric top.
 Rotational symmetry number  1.
 Rotational temperature (Kelvin)      1.46915
 Rotational constant (GHZ):          30.612019
    2 imaginary frequencies ignored.
 Zero-point vibrational energy       8985.3 (Joules/Mol)
                                    2.14755 (Kcal/Mol)
 Vibrational temperatures:   1080.69  1080.69
          (Kelvin)

 Zero-point correction=                           0.003422 (Hartree/Particle)
 Thermal correction to Energy=                    0.005970
 Thermal correction to Enthalpy=                  0.006914
 Thermal correction to Gibbs Free Energy=        -0.016601
 Sum of electronic and zero-point Energies=           -100.815666
 Sum of electronic and thermal Energies=              -100.813118
 Sum of electronic and thermal Enthalpies=            -100.812174
 Sum of electronic and thermal Free Energies=         -100.835689

                     E (Thermal)             CV                S
                      KCal/Mol        Cal/Mol-Kelvin    Cal/Mol-Kelvin
 Total                    3.746              6.437             49.492
 Electronic               0.000              0.000              1.377
 Translational            0.889              2.981             35.068
 Rotational               0.592              1.987             12.545
 Vibrational              2.265              1.469              0.502

 Normal termination of Gaussian 16 at Fri Aug 22 16:40:33 2025.
