 Gaussian 16, Revision C.01,
 Gaussian 16:  ES64L-G16RevC.01  3-Jul-2019

 -----------------------------------------
 # sp b3lyp/6-311g** Force nosymm scf=(qc)
 -----------------------------------------

 -------------------
 Title Card Required
 -------------------
 Symbolic Z-matrix:
 Charge =  0 Multiplicity = 2

                          Input orientation:
 ---------------------------------------------------------------------
 Center     Atomic      Atomic             Coordinates (Angstroms)
 Number     Number       Type             X           Y           Z
 ---------------------------------------------------------------------
      1          1           0        0.000000    0.000000    0.000000
      2          1           0       -2.600000    0.000000    0.000000
      3          9           0        1.650000    0.000000    0.000000
 ---------------------------------------------------------------------

 SCF Done:  E(UB3LYP) =  -100.827134468     a.u. after   17 cycles

 Alpha  occ. eigenvalues --  -24.65129  -1.11051  -0.43857  -0.37044  -0.37044
 Alpha  occ. eigenvalues --   -0.35419
 Alpha virt. eigenvalues --   -0.14684   0.22929   0.28019   0.94548   0.94548
 Alpha virt. eigenvalues --    0.98820   1.07111   1.22149   1.22149   1.24259
 Alpha virt. eigenvalues --    1.32940   1.32940   1.74660   2.13228   2.23108

  Beta  occ. eigenvalues --  -24.63869  -1.07639  -0.40505  -0.35828  -0.35828
  Beta virt. eigenvalues --   -0.18090  -0.09089   0.23901   0.35306   0.94253
  Beta virt. eigenvalues --    0.94253   1.00015   1.08050   1.26654   1.26654
  Beta virt. eigenvalues --    1.42069   1.42069   1.42818   1.72038   2.14101

 Mulliken charges and spin densities:
               1          2
     1  H    0.294656  -0.375566
     2  H    0.017167   0.978196
     3  F   -0.311823   0.397370
 Sum of Mulliken charges =   0.00000   1.00000

 Dipole moment (field-independent basis, Debye):
    X=             -2.7211    Y=             -0.0000    Z=              0.0000  Tot=              2.7211
 Quadrupole moment (field-independent basis, Debye-Ang):
   XX=             -9.6126   YY=             -7.4034   ZZ=             -7.4034
   XY=              0.0000   XZ=             -0.0000   YZ=             -0.0000

  Exact polarizability:      28.351       0.000       2.141      -0.000      -0.000       2.141
 Approx polarizability:      40.703       0.000       2.049      -0.000       0.000       2.049

 ******    2 imaginary frequencies (negative Signs) ******

                      1                      2                      3
                      A                      A                      A
 Frequencies --  -1845.1171              -302.4334               825.9513
 Red. masses --      1.0528                 1.0588                 1.0243
 Frc consts  --      2.1118                 0.0571                 0.4117
 IR Inten    --     56.5899                 7.1287                74.4545

                      4
                      A
 Frequencies --    825.9513
 Red. masses --      1.0243
 Frc consts  --      0.4117
 IR Inten    --     74.4545

 - Thermochemistry -
 -------------------
 Temperature   298.150 Kelvin.  Pressure   1.00000 Atm.
 Atom     1 has atomic number  1 and mass   1.00783

 Molecular mass:    21.01405 amu.
 Principal axes and moments of inertia in atomic units:
                           1         2         3
     Eigenvalues --     0.00000  68.79695  68.79695
           X            1.00000  -0.00000   0.00000
           Y            0.00000   1.00000   0.00000
           Z            0.00000   0.00000   1.00000
 This molecule is a prolate symmetric top.
 Rotational symmetry number  1.
 Rotational temperature (Kelvin)      1.25898
 Rotational constant (GHZ):          26.232868
    2 imaginary frequencies ignored.
 Zero-point vibrational energy       9880.6 (Joules/Mol)
                                    2.36151 (Kcal/Mol)
 Vibrational temperatures:   1188.36  1188.36
          (Kelvin)

 Zero-point correction=                           0.003763 (Hartree/Particle)
 Thermal correction to Energy=                    0.006266
 Thermal correction to Enthalpy=                  0.007210
 Thermal correction to Gibbs Free Energy=        -0.016390
 Sum of electronic and zero-point Energies=           -100.823371
 Sum of electronic and thermal Energies=              -100.820868
 Sum of electronic and thermal Enthalpies=            -100.819924
 Sum of electronic and thermal Free Energies=         -100.843525

                     E (Thermal)             CV                S
                      KCal/Mol        Cal/Mol-Kelvin    Cal/Mol-Kelvin
 Total                    3.932              6.186             49.672
 Electronic               0.000              0.000              1.377
 Translational            0.889              2.981             35.068
 Rotational               0.592              1.987             12.852
 Vibrational              2.451              1.218              0.374

 Normal termination of Gaussian 16 at Fri Aug 22 16:34:53 2025.
