 Gaussian 16, Revision C.01,
 Gaussian 16:  ES64L-G16RevC.01  3-Jul-2019

 -----------------------------------------
 # sp b3lyp/6-311g** Force nosymm scf=(qc)
 -----------------------------------------

 -------------------
 Title Card Required
 -------------------
 Symbolic Z-matrix:
 Charge =  0 Multiplicity = 2

                          Input orientation:
 ---------------------------------------------------------------------
 Center     Atomic      Atomic             Coordinates (Angstroms)
 Number     Number       Type             X           Y           Z
 ---------------------------------------------------------------------
      1          1           0        0.000000    0.000000    0.000000
      2          1           0       -2.050000    0.000000    0.000000
      3          9           0        1.700000    0.000000    0.000000
 ---------------------------------------------------------------------

 SCF Done:  E(UB3LYP) =  -100.826431385     a.u. after   16 cycles

 Alpha  occ. eigenvalues --  -24.65408  -1.11592  -0.44619  -0.37328  -0.37328
 Alpha  occ. eigenvalues --   -0.37098
 Alpha virt. eigenvalues --   -0.13340   0.23430   0.28766   0.94864   0.94864
 Alpha virt. eigenvalues --    0.94900   1.05404   1.20583   1.20583   1.29463
 Alpha virt. eigenvalues --    1.33755   1.33755   1.72018   2.10712   2.27527

  Beta  occ. eigenvalues --  -24.63776  -1.07139  -0.39545  -0.35745  -0.35745
  Beta virt. eigenvalues --   -0.19660  -0.10130   0.25353   0.32136   0.94750
  Beta virt. eigenvalues --    0.94750   0.96946   1.08162   1.26240   1.26240
  Beta virt. eigenvalues --    1.36944   1.36944   1.42411   1.69814   2.12876

 Mulliken charges and spin densities:
               1          2
     1  H    0.241228  -0.430961
     2  H    0.046029   0.918148
     3  F   -0.287256   0.512813
 Sum of Mulliken charges =   0.00000   1.00000

 Dipole moment (field-independent basis, Debye):
    X=             -2.8385    Y=              0.0000    Z=             -0.0000  Tot=              2.8385
 Quadrupole moment (field-independent basis, Debye-Ang):
   XX=             -8.9561   YY=             -7.4269   ZZ=             -7.4269
   XY=              0.0000   XZ=             -0.0000   YZ=             -0.0000

  Exact polarizability:      38.750       0.000       2.143      -0.000      -0.000       2.143
 Approx polarizability:      50.422       0.000       2.052      -0.000       0.000       2.052

 ******    2 imaginary frequencies (negative Signs) ******

                      1                      2                      3
                      A                      A                      A
 Frequencies --  -1913.8008              -542.5851               800.8599
 Red. masses --      1.0368                 1.0755                 1.0204
 Frc consts  --      2.2373                 0.1865                 0.3856
 IR Inten    --     82.1575                12.3741                40.6341

                      4
                      A
 Frequencies --    800.8599
 Red. masses --      1.0204
 Frc consts  --      0.3856
 IR Inten    --     40.6341

 - Thermochemistry -
 -------------------
 Temperature   298.150 Kelvin.  Pressure   1.00000 Atm.
 Atom     1 has atomic number  1 and mass   1.00783

 Molecular mass:    21.01405 amu.
 Principal axes and moments of inertia in atomic units:
                           1         2         3
     Eigenvalues --     0.00000  55.88534  55.88534
           X            1.00000  -0.00000   0.00000
           Y            0.00000   1.00000   0.00000
           Z            0.00000   0.00000   1.00000
 This molecule is a prolate symmetric top.
 Rotational symmetry number  1.
 Rotational temperature (Kelvin)      1.54985
 Rotational constant (GHZ):          32.293645
    2 imaginary frequencies ignored.
 Zero-point vibrational energy       9580.4 (Joules/Mol)
                                    2.28977 (Kcal/Mol)
 Vibrational temperatures:   1152.26  1152.26
          (Kelvin)

 Zero-point correction=                           0.003649 (Hartree/Particle)
 Thermal correction to Energy=                    0.006166
 Thermal correction to Enthalpy=                  0.007110
 Thermal correction to Gibbs Free Energy=        -0.016313
 Sum of electronic and zero-point Energies=           -100.822782
 Sum of electronic and thermal Energies=              -100.820266
 Sum of electronic and thermal Enthalpies=            -100.819321
 Sum of electronic and thermal Free Energies=         -100.842744

                     E (Thermal)             CV                S
                      KCal/Mol        Cal/Mol-Kelvin    Cal/Mol-Kelvin
 Total                    3.869              6.267             49.297
 Electronic               0.000              0.000              1.377
 Translational            0.889              2.981             35.068
 Rotational               0.592              1.987             12.439
 Vibrational              2.388              1.299              0.413

 Normal termination of Gaussian 16 at Fri Aug 22 16:37:28 2025.
