 Gaussian 16, Revision C.01,
 Gaussian 16:  ES64L-G16RevC.01  3-Jul-2019

 -----------------------------------------
 # sp b3lyp/6-311g** Force nosymm scf=(qc)
 -----------------------------------------

 -------------------
 Title Card Required
 -------------------
 Symbolic Z-matrix:
 Charge =  0 Multiplicity = 2

                          Input orientation:
 ---------------------------------------------------------------------
 Center     Atomic      Atomic             Coordinates (Angstroms)
 Number     Number       Type             X           Y           Z
 ---------------------------------------------------------------------
      1          1           0        0.000000    0.000000    0.000000
      2          1           0       -3.850000    0.000000    0.000000
      3          9           0        3.650000    0.000000    0.000000
 ---------------------------------------------------------------------

 SCF Done:  E(UB3LYP) =  -100.758688018     a.u. after   26 cycles

 Alpha  occ. eigenvalues --  -24.75596  -1.21544  -0.54720  -0.45943  -0.45943
 Alpha  occ. eigenvalues --   -0.32271
 Alpha virt. eigenvalues --   -0.06257   0.24161   0.37489   0.87173   0.91350
 Alpha virt. eigenvalues --    0.91350   1.01489   1.25225   1.25225   1.25264
 Alpha virt. eigenvalues --    1.46179   1.46179   1.46607   2.14659   2.42253

  Beta  occ. eigenvalues --  -24.72468  -1.12554  -0.42808  -0.42808  -0.32653
  Beta virt. eigenvalues --   -0.25589  -0.05967   0.23921   0.38187   0.92844
  Beta virt. eigenvalues --    0.92844   0.96402   1.05546   1.24796   1.24796
  Beta virt. eigenvalues --    1.24817   1.46520   1.46658   1.46658   2.14745

 Mulliken charges and spin densities:
               1          2
     1  H    0.007536  -0.990745
     2  H    0.000052   0.999099
     3  F   -0.007588   0.991646
 Sum of Mulliken charges =  -0.00000   1.00000

 Dipole moment (field-independent basis, Debye):
    X=             -0.1436    Y=              0.0000    Z=             -0.0000  Tot=              0.1436
 Quadrupole moment (field-independent basis, Debye-Ang):
   XX=             -7.2232   YY=             -7.6190   ZZ=             -7.6190
   XY=              0.0000   XZ=             -0.0000   YZ=             -0.0000

  Exact polarizability:      18.873      -0.000       1.976       0.000       0.000       1.976
 Approx polarizability:      14.251       0.000       1.935      -0.000       0.000       1.935

 ******    2 imaginary frequencies (negative Signs) ******

                      1                      2                      3
                      A                      A                      A
 Frequencies --   -189.3894               -74.0119                94.7021
 Red. masses --      1.0360                 1.0763                 1.0186
 Frc consts  --      0.0219                 0.0035                 0.0054
 IR Inten    --      6.2120                 0.3467                 0.1177

                      4
                      A
 Frequencies --     94.7037
 Red. masses --      1.0186
 Frc consts  --      0.0054
 IR Inten    --      0.1177

 - Thermochemistry -
 -------------------
 Temperature   298.150 Kelvin.  Pressure   1.00000 Atm.
 Atom     1 has atomic number  1 and mass   1.00783

 Molecular mass:    21.01405 amu.
 Principal axes and moments of inertia in atomic units:
                           1         2         3
     Eigenvalues --     0.00000 228.93310 228.93310
           X            1.00000  -0.00000   0.00000
           Y            0.00000   1.00000   0.00000
           Z            0.00000   0.00000   1.00000
 This molecule is a prolate symmetric top.
 Rotational symmetry number  1.
 Rotational temperature (Kelvin)      0.37834
 Rotational constant (GHZ):           7.883269
    2 imaginary frequencies ignored.
 Zero-point vibrational energy       1132.9 (Joules/Mol)
                                    0.27077 (Kcal/Mol)
 Warning -- explicit consideration of   2 degrees of freedom as
           vibrations may cause significant error
 Vibrational temperatures:    136.26   136.26
          (Kelvin)

 Zero-point correction=                           0.000431 (Hartree/Particle)
 Thermal correction to Energy=                    0.004282
 Thermal correction to Enthalpy=                  0.005226
 Thermal correction to Gibbs Free Energy=        -0.022716
 Sum of electronic and zero-point Energies=           -100.758257
 Sum of electronic and thermal Energies=              -100.754406
 Sum of electronic and thermal Enthalpies=            -100.753462
 Sum of electronic and thermal Free Energies=         -100.781404

                     E (Thermal)             CV                S
                      KCal/Mol        Cal/Mol-Kelvin    Cal/Mol-Kelvin
 Total                    2.687              8.874             58.807
 Electronic               0.000              0.000              1.377
 Translational            0.889              2.981             35.068
 Rotational               0.592              1.987             15.241
 Vibrational              1.206              3.906              7.121
 Vibration     1          0.603              1.953              3.561
 Vibration     2          0.603              1.953              3.560

 Normal termination of Gaussian 16 at Fri Aug 22 23:38:39 2025.
