 Gaussian 16, Revision C.01,
 Gaussian 16:  ES64L-G16RevC.01  3-Jul-2019

 -----------------------------------------
 # sp b3lyp/6-311g** Force nosymm scf=(qc)
 -----------------------------------------

 -------------------
 Title Card Required
 -------------------
 Symbolic Z-matrix:
 Charge =  0 Multiplicity = 2

                          Input orientation:
 ---------------------------------------------------------------------
 Center     Atomic      Atomic             Coordinates (Angstroms)
 Number     Number       Type             X           Y           Z
 ---------------------------------------------------------------------
      1          1           0        0.000000    0.000000    0.000000
      2          1           0       -2.300000    0.000000    0.000000
      3          9           0        3.700000    0.000000    0.000000
 ---------------------------------------------------------------------

 SCF Done:  E(UB3LYP) =  -100.765555275     a.u. after   31 cycles

 Alpha  occ. eigenvalues --  -24.75738  -1.21675  -0.54862  -0.46065  -0.46065
 Alpha  occ. eigenvalues --   -0.32726
 Alpha virt. eigenvalues --   -0.10010   0.25910   0.33872   0.87042   0.91254
 Alpha virt. eigenvalues --    0.91254   1.01351   1.25040   1.25040   1.25346
 Alpha virt. eigenvalues --    1.40199   1.40199   1.44092   2.14865   2.35619

  Beta  occ. eigenvalues --  -24.72604  -1.12665  -0.42923  -0.42923  -0.32878
  Beta virt. eigenvalues --   -0.25683  -0.09735   0.25741   0.34291   0.92749
  Beta virt. eigenvalues --    0.92749   0.96325   1.05444   1.24861   1.24861
  Beta virt. eigenvalues --    1.25170   1.40602   1.40602   1.44454   2.15199

 Mulliken charges and spin densities:
               1          2
     1  H    0.003108  -0.938539
     2  H    0.002383   0.944821
     3  F   -0.005491   0.993718
 Sum of Mulliken charges =   0.00000   1.00000

 Dipole moment (field-independent basis, Debye):
    X=             -0.1303    Y=             -0.0000    Z=              0.0000  Tot=              0.1303
 Quadrupole moment (field-independent basis, Debye-Ang):
   XX=             -6.7425   YY=             -7.6872   ZZ=             -7.6872
   XY=             -0.0000   XZ=              0.0000   YZ=              0.0000

  Exact polarizability:      30.769      -0.000       2.014      -0.000      -0.000       2.014
 Approx polarizability:      23.655      -0.000       1.930       0.000       0.000       1.930

 ******    2 imaginary frequencies (negative Signs) ******

                      1                      2                      3
                      A                      A                      A
 Frequencies --   -884.5018              -107.7927               336.4942
 Red. masses --      1.0079                 1.1085                 1.0132
 Frc consts  --      0.4646                 0.0076                 0.0676
 IR Inten    --      2.6689                 2.8548                 0.0045

                      4
                      A
 Frequencies --    336.4942
 Red. masses --      1.0132
 Frc consts  --      0.0676
 IR Inten    --      0.0045

 - Thermochemistry -
 -------------------
 Temperature   298.150 Kelvin.  Pressure   1.00000 Atm.
 Atom     1 has atomic number  1 and mass   1.00783

 Molecular mass:    21.01405 amu.
 Principal axes and moments of inertia in atomic units:
                           1         2         3
     Eigenvalues --     0.00000 162.59415 162.59415
           X            1.00000  -0.00000   0.00000
           Y            0.00000   1.00000   0.00000
           Z            0.00000   0.00000   1.00000
 This molecule is a prolate symmetric top.
 Rotational symmetry number  1.
 Rotational temperature (Kelvin)      0.53270
 Rotational constant (GHZ):          11.099669
    2 imaginary frequencies ignored.
 Zero-point vibrational energy       4025.4 (Joules/Mol)
                                    0.96209 (Kcal/Mol)
 Warning -- explicit consideration of   2 degrees of freedom as
           vibrations may cause significant error
 Vibrational temperatures:    484.14   484.14
          (Kelvin)

 Zero-point correction=                           0.001533 (Hartree/Particle)
 Thermal correction to Energy=                    0.004647
 Thermal correction to Enthalpy=                  0.005591
 Thermal correction to Gibbs Free Energy=        -0.019812
 Sum of electronic and zero-point Energies=           -100.764022
 Sum of electronic and thermal Energies=              -100.760909
 Sum of electronic and thermal Enthalpies=            -100.759964
 Sum of electronic and thermal Free Energies=         -100.785367

                     E (Thermal)             CV                S
                      KCal/Mol        Cal/Mol-Kelvin    Cal/Mol-Kelvin
 Total                    2.916              8.173             53.464
 Electronic               0.000              0.000              1.377
 Translational            0.889              2.981             35.068
 Rotational               0.592              1.987             14.561
 Vibrational              1.435              3.205              2.457
 Vibration     1          0.717              1.603              1.229
 Vibration     2          0.717              1.603              1.229

 Normal termination of Gaussian 16 at Sat Aug 23 00:03:02 2025.
