 Gaussian 16, Revision C.01,
 Gaussian 16:  ES64L-G16RevC.01  3-Jul-2019

 -----------------------------------------
 # sp b3lyp/6-311g** Force nosymm scf=(qc)
 -----------------------------------------

 -------------------
 Title Card Required
 -------------------
 Symbolic Z-matrix:
 Charge =  0 Multiplicity = 2

                          Input orientation:
 ---------------------------------------------------------------------
 Center     Atomic      Atomic             Coordinates (Angstroms)
 Number     Number       Type             X           Y           Z
 ---------------------------------------------------------------------
      1          1           0        0.000000    0.000000    0.000000
      2          1           0       -2.300000    0.000000    0.000000
      3          9           0        2.200000    0.000000    0.000000
 ---------------------------------------------------------------------

 SCF Done:  E(UB3LYP) =  -100.782728931     a.u. after   14 cycles

 Alpha  occ. eigenvalues --  -24.69686  -1.15986  -0.48747  -0.40971  -0.40971
 Alpha  occ. eigenvalues --   -0.34881
 Alpha virt. eigenvalues --   -0.13284   0.24476   0.31961   0.89008   0.94583
 Alpha virt. eigenvalues --    0.94583   1.06333   1.22873   1.22873   1.27222
 Alpha virt. eigenvalues --    1.35459   1.35459   1.50481   2.12800   2.30422

  Beta  occ. eigenvalues --  -24.67063  -1.08582  -0.38369  -0.38369  -0.36529
  Beta virt. eigenvalues --   -0.22065  -0.10664   0.25949   0.33645   0.93115
  Beta virt. eigenvalues --    0.95686   0.95686   1.08948   1.22079   1.22079
  Beta virt. eigenvalues --    1.39547   1.39547   1.41301   1.43626   2.12584

 Mulliken charges and spin densities:
               1          2
     1  H    0.119071  -0.774584
     2  H    0.023074   0.948131
     3  F   -0.142145   0.826453
 Sum of Mulliken charges =   0.00000   1.00000

 Dipole moment (field-independent basis, Debye):
    X=             -1.8232    Y=              0.0000    Z=              0.0000  Tot=              1.8232
 Quadrupole moment (field-independent basis, Debye-Ang):
   XX=             -8.9960   YY=             -7.5798   ZZ=             -7.5798
   XY=             -0.0000   XZ=              0.0000   YZ=              0.0000

  Exact polarizability:      45.878      -0.000       2.031       0.000       0.000       2.031
 Approx polarizability:      51.504       0.000       1.931      -0.000      -0.000       1.931

 ******    2 imaginary frequencies (negative Signs) ******

                      1                      2                      3
                      A                      A                      A
 Frequencies --  -1112.6188              -449.9650               458.5338
 Red. masses --      1.0236                 1.0901                 1.0185
 Frc consts  --      0.7466                 0.1300                 0.1262
 IR Inten    --     69.0871                33.9485                10.7384

                      4
                      A
 Frequencies --    458.5338
 Red. masses --      1.0185
 Frc consts  --      0.1262
 IR Inten    --     10.7384

 - Thermochemistry -
 -------------------
 Temperature   298.150 Kelvin.  Pressure   1.00000 Atm.
 Atom     1 has atomic number  1 and mass   1.00783

 Molecular mass:    21.01405 amu.
 Principal axes and moments of inertia in atomic units:
                           1         2         3
     Eigenvalues --     0.00000  82.55080  82.55080
           X            1.00000  -0.00000   0.00000
           Y            0.00000   1.00000   0.00000
           Z            0.00000   0.00000   1.00000
 This molecule is a prolate symmetric top.
 Rotational symmetry number  1.
 Rotational temperature (Kelvin)      1.04922
 Rotational constant (GHZ):          21.862189
    2 imaginary frequencies ignored.
 Zero-point vibrational energy       5485.3 (Joules/Mol)
                                    1.31101 (Kcal/Mol)
 Warning -- explicit consideration of   2 degrees of freedom as
           vibrations may cause significant error
 Vibrational temperatures:    659.73   659.73
          (Kelvin)

 Zero-point correction=                           0.002089 (Hartree/Particle)
 Thermal correction to Energy=                    0.004963
 Thermal correction to Enthalpy=                  0.005907
 Thermal correction to Gibbs Free Energy=        -0.018420
 Sum of electronic and zero-point Energies=           -100.780640
 Sum of electronic and thermal Energies=              -100.777766
 Sum of electronic and thermal Enthalpies=            -100.776822
 Sum of electronic and thermal Free Energies=         -100.801149

                     E (Thermal)             CV                S
                      KCal/Mol        Cal/Mol-Kelvin    Cal/Mol-Kelvin
 Total                    3.114              7.652             51.200
 Electronic               0.000              0.000              1.377
 Translational            0.889              2.981             35.068
 Rotational               0.592              1.987             13.214
 Vibrational              1.633              2.684              1.541
 Vibration     1          0.817              1.342              0.770
 Vibration     2          0.817              1.342              0.770

 Normal termination of Gaussian 16 at Fri Aug 22 17:11:55 2025.
