 Gaussian 16, Revision C.01,
 Gaussian 16:  ES64L-G16RevC.01  3-Jul-2019

 -----------------------------------------
 # sp b3lyp/6-311g** Force nosymm scf=(qc)
 -----------------------------------------

 -------------------
 Title Card Required
 -------------------
 Symbolic Z-matrix:
 Charge =  0 Multiplicity = 2

                          Input orientation:
 ---------------------------------------------------------------------
 Center     Atomic      Atomic             Coordinates (Angstroms)
 Number     Number       Type             X           Y           Z
 ---------------------------------------------------------------------
      1          1           0        0.000000    0.000000    0.000000
      2          1           0       -2.000000    0.000000    0.000000
      3          9           0        0.850000    0.000000    0.000000
 ---------------------------------------------------------------------

 SCF Done:  E(UB3LYP) =  -100.965697073     a.u. after    6 cycles

 Alpha  occ. eigenvalues --  -24.63617  -1.20725  -0.55059  -0.39934  -0.39934
 Alpha  occ. eigenvalues --   -0.35724
 Alpha virt. eigenvalues --    0.07793   0.24240   0.41254   0.94510   0.94510
 Alpha virt. eigenvalues --    0.97361   1.15201   1.21621   1.21621   1.38713
 Alpha virt. eigenvalues --    1.38713   1.51519   1.98495   2.20118   2.43921

  Beta  occ. eigenvalues --  -24.63566  -1.20593  -0.54786  -0.39892  -0.39892
  Beta virt. eigenvalues --   -0.11438   0.09650   0.34857   0.41534   0.94519
  Beta virt. eigenvalues --    0.94519   0.97723   1.24713   1.37658   1.37658
  Beta virt. eigenvalues --    1.42493   1.42493   1.60160   2.03246   2.37176

 Mulliken charges and spin densities:
               1          2
     1  H    0.271083   0.007866
     2  H    0.012714   0.979553
     3  F   -0.283797   0.012581
 Sum of Mulliken charges =   0.00000   1.00000

 Dipole moment (field-independent basis, Debye):
    X=             -1.9429    Y=             -0.0000    Z=             -0.0000  Tot=              1.9429
 Quadrupole moment (field-independent basis, Debye-Ang):
   XX=             -7.4101   YY=             -6.7826   ZZ=             -6.7826
   XY=             -0.0000   XZ=             -0.0000   YZ=             -0.0000

  Exact polarizability:       8.207       0.000       2.494      -0.000       0.000       2.494
 Approx polarizability:       8.478      -0.000       2.484       0.000       0.000       2.484

 ******    2 imaginary frequencies (negative Signs) ******

                      1                      2                      3
                      A                      A                      A
 Frequencies --  -1310.3523             -1310.3523               257.7583
 Red. masses --      1.0307                 1.0307                 1.0531
 Frc consts  --      1.0427                 1.0427                 0.0412
 IR Inten    --    155.0043               155.0043                 0.8376

                      4
                      A
 Frequencies --   5292.7876
 Red. masses --      1.0585
 Frc consts  --     17.4699
 IR Inten    --    166.9805

 - Thermochemistry -
 -------------------
 Temperature   298.150 Kelvin.  Pressure   1.00000 Atm.
 Atom     1 has atomic number  1 and mass   1.00783

 Molecular mass:    21.01405 amu.
 Principal axes and moments of inertia in atomic units:
                           1         2         3
     Eigenvalues --     0.00000  29.47024  29.47024
           X            1.00000  -0.00000   0.00000
           Y            0.00000   1.00000   0.00000
           Z            0.00000   0.00000   1.00000
 This molecule is a prolate symmetric top.
 Rotational symmetry number  1.
 Rotational temperature (Kelvin)      2.93903
 Rotational constant (GHZ):          61.239443
    2 imaginary frequencies ignored.
 Zero-point vibrational energy      33199.6 (Joules/Mol)
                                    7.93490 (Kcal/Mol)
 Warning -- explicit consideration of   1 degrees of freedom as
           vibrations may cause significant error
 Vibrational temperatures:    370.86  7615.14
          (Kelvin)

 Zero-point correction=                           0.012645 (Hartree/Particle)
 Thermal correction to Energy=                    0.015481
 Thermal correction to Enthalpy=                  0.016425
 Thermal correction to Gibbs Free Energy=        -0.006994
 Sum of electronic and zero-point Energies=           -100.953052
 Sum of electronic and thermal Energies=              -100.950216
 Sum of electronic and thermal Enthalpies=            -100.949272
 Sum of electronic and thermal Free Energies=         -100.972691

                     E (Thermal)             CV                S
                      KCal/Mol        Cal/Mol-Kelvin    Cal/Mol-Kelvin
 Total                    9.715              6.718             49.289
 Electronic               0.000              0.000              1.377
 Translational            0.889              2.981             35.068
 Rotational               0.592              1.987             11.167
 Vibrational              8.233              1.750              1.677
 Vibration     1          0.667              1.750              1.677

 Normal termination of Gaussian 16 at Fri Aug 22 15:53:27 2025.
