 Gaussian 16, Revision C.01,
 Gaussian 16:  ES64L-G16RevC.01  3-Jul-2019

 -----------------------------------------
 # sp b3lyp/6-311g** Force nosymm scf=(qc)
 -----------------------------------------

 -------------------
 Title Card Required
 -------------------
 Symbolic Z-matrix:
 Charge =  0 Multiplicity = 2

                          Input orientation:
 ---------------------------------------------------------------------
 Center     Atomic      Atomic             Coordinates (Angstroms)
 Number     Number       Type             X           Y           Z
 ---------------------------------------------------------------------
      1          1           0        0.000000    0.000000    0.000000
      2          1           0       -0.800000    0.000000    0.000000
      3          9           0        1.900000    0.000000    0.000000
 ---------------------------------------------------------------------

 SCF Done:  E(UB3LYP) =  -100.934036068     a.u. after    7 cycles

 Alpha  occ. eigenvalues --  -24.74094  -1.20299  -0.54432  -0.44795  -0.44795
 Alpha  occ. eigenvalues --   -0.43740
 Alpha virt. eigenvalues --    0.06233   0.20471   0.42547   0.90528   0.90528
 Alpha virt. eigenvalues --    0.92928   1.07021   1.07021   1.14609   1.63336
 Alpha virt. eigenvalues --    1.77439   1.77439   2.03142   2.38888   3.06239

  Beta  occ. eigenvalues --  -24.71132  -1.11896  -0.44309  -0.41850  -0.41850
  Beta virt. eigenvalues --   -0.25281   0.07224   0.21130   0.43246   0.91831
  Beta virt. eigenvalues --    0.91831   1.00587   1.07973   1.07973   1.17883
  Beta virt. eigenvalues --    1.65157   1.77966   1.77966   2.03929   2.39895

 Mulliken charges and spin densities:
               1          2
     1  H    0.023247  -0.035567
     2  H    0.032325   0.109846
     3  F   -0.055572   0.925720
 Sum of Mulliken charges =   0.00000   1.00000

 Dipole moment (field-independent basis, Debye):
    X=             -0.6228    Y=             -0.0000    Z=             -0.0000  Tot=              0.6228
 Quadrupole moment (field-independent basis, Debye-Ang):
   XX=             -6.2794   YY=             -6.9577   ZZ=             -6.9577
   XY=             -0.0000   XZ=             -0.0000   YZ=              0.0000

  Exact polarizability:      21.052      -0.000       2.142       0.000       0.000       2.142
 Approx polarizability:      24.711       0.000       2.192      -0.000       0.000       2.192

 ******    1 imaginary frequencies (negative Signs) ******

                      1                      2                      3
                      A                      A                      A
 Frequencies --   -260.3031               887.6455               887.6455
 Red. masses --      1.1084                 1.0108                 1.0108
 Frc consts  --      0.0442                 0.4692                 0.4692
 IR Inten    --     50.5742                 0.0824                 0.0824

                      4
                      A
 Frequencies --   3564.1898
 Red. masses --      1.0079
 Frc consts  --      7.5438
 IR Inten    --    408.5850

 - Thermochemistry -
 -------------------
 Temperature   298.150 Kelvin.  Pressure   1.00000 Atm.
 Atom     1 has atomic number  1 and mass   1.00783

 Molecular mass:    21.01405 amu.
 Principal axes and moments of inertia in atomic units:
                           1         2         3
     Eigenvalues --     0.00000  35.57683  35.57683
           X            1.00000  -0.00000   0.00000
           Y            0.00000   1.00000   0.00000
           Z            0.00000   0.00000   1.00000
 This molecule is a prolate symmetric top.
 Rotational symmetry number  1.
 Rotational temperature (Kelvin)      2.43456
 Rotational constant (GHZ):          50.727992
    1 imaginary frequencies ignored.
 Zero-point vibrational energy      31937.2 (Joules/Mol)
                                    7.63317 (Kcal/Mol)
 Vibrational temperatures:   1277.12  1277.12  5128.07
          (Kelvin)

 Zero-point correction=                           0.012164 (Hartree/Particle)
 Thermal correction to Energy=                    0.014638
 Thermal correction to Enthalpy=                  0.015582
 Thermal correction to Gibbs Free Energy=        -0.007357
 Sum of electronic and zero-point Energies=           -100.921872
 Sum of electronic and thermal Energies=              -100.919398
 Sum of electronic and thermal Enthalpies=            -100.918454
 Sum of electronic and thermal Free Energies=         -100.941393

                     E (Thermal)             CV                S
                      KCal/Mol        Cal/Mol-Kelvin    Cal/Mol-Kelvin
 Total                    9.185              6.002             48.280
 Electronic               0.000              0.000              1.377
 Translational            0.889              2.981             35.068
 Rotational               0.592              1.987             11.541
 Vibrational              7.704              1.034              0.293

 Normal termination of Gaussian 16 at Fri Aug 22 16:48:56 2025.
