 Gaussian 16, Revision C.01,
 Gaussian 16:  ES64L-G16RevC.01  3-Jul-2019

 -----------------------------------------
 # sp b3lyp/6-311g** Force nosymm scf=(qc)
 -----------------------------------------

 -------------------
 Title Card Required
 -------------------
 Symbolic Z-matrix:
 Charge =  0 Multiplicity = 2

                          Input orientation:
 ---------------------------------------------------------------------
 Center     Atomic      Atomic             Coordinates (Angstroms)
 Number     Number       Type             X           Y           Z
 ---------------------------------------------------------------------
      1          1           0        0.000000    0.000000    0.000000
      2          1           0       -3.750000    0.000000    0.000000
      3          9           0        3.200000    0.000000    0.000000
 ---------------------------------------------------------------------

 SCF Done:  E(UB3LYP) =  -100.759833224     a.u. after   21 cycles

 Alpha  occ. eigenvalues --  -24.74713  -1.20727  -0.53834  -0.45201  -0.45201
 Alpha  occ. eigenvalues --   -0.32403
 Alpha virt. eigenvalues --   -0.07266   0.24016   0.36575   0.88643   0.91895
 Alpha virt. eigenvalues --    0.91895   1.02864   1.25096   1.25096   1.25154
 Alpha virt. eigenvalues --    1.45053   1.45053   1.45353   2.14618   2.41311

  Beta  occ. eigenvalues --  -24.71643  -1.11917  -0.42126  -0.42126  -0.33286
  Beta virt. eigenvalues --   -0.25125  -0.06152   0.23806   0.38103   0.93371
  Beta virt. eigenvalues --    0.93371   0.97549   1.06726   1.24080   1.24080
  Beta virt. eigenvalues --    1.24188   1.46316   1.46505   1.46505   2.14872

 Mulliken charges and spin densities:
               1          2
     1  H    0.024278  -0.972109
     2  H    0.000168   0.998874
     3  F   -0.024446   0.973236
 Sum of Mulliken charges =  -0.00000   1.00000

 Dipole moment (field-independent basis, Debye):
    X=             -0.4050    Y=              0.0000    Z=              0.0000  Tot=              0.4050
 Quadrupole moment (field-independent basis, Debye-Ang):
   XX=             -7.9341   YY=             -7.6134   ZZ=             -7.6134
   XY=             -0.0000   XZ=             -0.0000   YZ=             -0.0000

  Exact polarizability:      29.264      -0.000       2.030      -0.000       0.000       2.030
 Approx polarizability:      26.941      -0.000       1.930      -0.000       0.000       1.930

 ******    2 imaginary frequencies (negative Signs) ******

                      1                      2                      3
                      A                      A                      A
 Frequencies --   -299.3845               -89.3333                99.1513
 Red. masses --      1.0477                 1.0640                 1.0200
 Frc consts  --      0.0553                 0.0050                 0.0059
 IR Inten    --     26.3436                 0.3201                 0.5522

                      4
                      A
 Frequencies --     99.1513
 Red. masses --      1.0200
 Frc consts  --      0.0059
 IR Inten    --      0.5522

 - Thermochemistry -
 -------------------
 Temperature   298.150 Kelvin.  Pressure   1.00000 Atm.
 Atom     1 has atomic number  1 and mass   1.00783

 Molecular mass:    21.01405 amu.
 Principal axes and moments of inertia in atomic units:
                           1         2         3
     Eigenvalues --     0.00000 192.91256 192.91256
           X            1.00000  -0.00000   0.00000
           Y            0.00000   1.00000   0.00000
           Z            0.00000   0.00000   1.00000
 This molecule is a prolate symmetric top.
 Rotational symmetry number  1.
 Rotational temperature (Kelvin)      0.44898
 Rotational constant (GHZ):           9.355229
    2 imaginary frequencies ignored.
 Zero-point vibrational energy       1186.1 (Joules/Mol)
                                    0.28349 (Kcal/Mol)
 Warning -- explicit consideration of   2 degrees of freedom as
           vibrations may cause significant error
 Vibrational temperatures:    142.66   142.66
          (Kelvin)

 Zero-point correction=                           0.000452 (Hartree/Particle)
 Thermal correction to Energy=                    0.004285
 Thermal correction to Enthalpy=                  0.005229
 Thermal correction to Gibbs Free Energy=        -0.022466
 Sum of electronic and zero-point Energies=           -100.759381
 Sum of electronic and thermal Energies=              -100.755549
 Sum of electronic and thermal Enthalpies=            -100.754604
 Sum of electronic and thermal Free Energies=         -100.782299

                     E (Thermal)             CV                S
                      KCal/Mol        Cal/Mol-Kelvin    Cal/Mol-Kelvin
 Total                    2.689              8.867             58.288
 Electronic               0.000              0.000              1.377
 Translational            0.889              2.981             35.068
 Rotational               0.592              1.987             14.901
 Vibrational              1.207              3.899              6.942
 Vibration     1          0.604              1.950              3.471
 Vibration     2          0.604              1.950              3.471

 Normal termination of Gaussian 16 at Fri Aug 22 20:25:10 2025.
