 Gaussian 16, Revision C.01,
 Gaussian 16:  ES64L-G16RevC.01  3-Jul-2019

 -----------------------------------------
 # sp b3lyp/6-311g** Force nosymm scf=(qc)
 -----------------------------------------

 -------------------
 Title Card Required
 -------------------
 Symbolic Z-matrix:
 Charge =  0 Multiplicity = 2

                          Input orientation:
 ---------------------------------------------------------------------
 Center     Atomic      Atomic             Coordinates (Angstroms)
 Number     Number       Type             X           Y           Z
 ---------------------------------------------------------------------
      1          1           0        0.000000    0.000000    0.000000
      2          1           0       -0.900000    0.000000    0.000000
      3          9           0        3.250000    0.000000    0.000000
 ---------------------------------------------------------------------

 SCF Done:  E(UB3LYP) =  -100.922296672     a.u. after   68 cycles

 Alpha  occ. eigenvalues --  -24.76490  -1.22327  -0.55523  -0.46741  -0.46675
 Alpha  occ. eigenvalues --   -0.40326
 Alpha virt. eigenvalues --    0.02743   0.20819   0.41611   0.85910   0.90784
 Alpha virt. eigenvalues --    0.93282   1.02953   1.08447   1.08452   1.45603
 Alpha virt. eigenvalues --    1.72336   1.72342   2.18585   2.37843   2.74270

  Beta  occ. eigenvalues --  -24.73330  -1.13245  -0.43589  -0.43507  -0.40308
  Beta virt. eigenvalues --   -0.26155   0.02763   0.20836   0.41681   0.92283
  Beta virt. eigenvalues --    0.94896   0.95371   1.06890   1.08447   1.08451
  Beta virt. eigenvalues --    1.45612   1.72336   1.72341   2.18603   2.37847

 Mulliken charges and spin densities:
               1          2
     1  H   -0.002336  -0.000588
     2  H   -0.003614  -0.000140
     3  F    0.005950   1.000728
 Sum of Mulliken charges =   0.00000   1.00000

 Dipole moment (field-independent basis, Debye):
    X=              0.0698    Y=              0.0000    Z=              0.0000  Tot=              0.0698
 Quadrupole moment (field-independent basis, Debye-Ang):
   XX=             -6.1707   YY=             -6.4636   ZZ=             -6.9832
   XY=             -0.0000   XZ=             -0.0000   YZ=              0.3451

  Exact polarizability:      10.703      -0.000       2.398      -0.000       0.185       2.120
 Approx polarizability:      13.183      -0.000       2.556      -0.000       0.232       2.207

                      1                      2                      3
                      A                      A                      A
 Frequencies --     33.1916              1454.6763              1455.5203
 Red. masses --      1.1085                 1.0093                 1.0093
 Frc consts  --      0.0007                 1.2584                 1.2598
 IR Inten    --      0.2231                 0.0006                 0.0004

                      4
                      A
 Frequencies --   2643.0272
 Red. masses --      1.0078
 Frc consts  --      4.1480
 IR Inten    --      0.2356

 - Thermochemistry -
 -------------------
 Temperature   298.150 Kelvin.  Pressure   1.00000 Atm.
 Atom     1 has atomic number  1 and mass   1.00783

 Molecular mass:    21.01405 amu.
 Principal axes and moments of inertia in atomic units:
                           1         2         3
     Eigenvalues --     0.00000  90.54650  90.54650
           X            1.00000  -0.00000   0.00000
           Y            0.00000   1.00000   0.00000
           Z            0.00000   0.00000   1.00000
 This molecule is a prolate symmetric top.
 Rotational symmetry number  1.
 Rotational temperature (Kelvin)      0.95657
 Rotational constant (GHZ):          19.931651
 Zero-point vibrational energy      33414.2 (Joules/Mol)
                                    7.98618 (Kcal/Mol)
 Warning -- explicit consideration of   1 degrees of freedom as
           vibrations may cause significant error
 Vibrational temperatures:     47.76  2092.95  2094.17  3802.73
          (Kelvin)

 Zero-point correction=                           0.012727 (Hartree/Particle)
 Thermal correction to Energy=                    0.015970
 Thermal correction to Enthalpy=                  0.016914
 Thermal correction to Gibbs Free Energy=        -0.009456
 Sum of electronic and zero-point Energies=           -100.909570
 Sum of electronic and thermal Energies=              -100.906327
 Sum of electronic and thermal Enthalpies=            -100.905383
 Sum of electronic and thermal Free Energies=         -100.931753

                     E (Thermal)             CV                S
                      KCal/Mol        Cal/Mol-Kelvin    Cal/Mol-Kelvin
 Total                   10.021              7.127             55.501
 Electronic               0.000              0.000              1.377
 Translational            0.889              2.981             35.068
 Rotational               0.592              1.987             13.398
 Vibrational              8.540              2.159              5.657
 Vibration     1          0.594              1.983              5.629

 Normal termination of Gaussian 16 at Fri Aug 22 20:28:01 2025.
