 Gaussian 16, Revision C.01,
 Gaussian 16:  ES64L-G16RevC.01  3-Jul-2019

 -----------------------------------------
 # sp b3lyp/6-311g** Force nosymm scf=(qc)
 -----------------------------------------

 -------------------
 Title Card Required
 -------------------
 Symbolic Z-matrix:
 Charge =  0 Multiplicity = 2

                          Input orientation:
 ---------------------------------------------------------------------
 Center     Atomic      Atomic             Coordinates (Angstroms)
 Number     Number       Type             X           Y           Z
 ---------------------------------------------------------------------
      1          1           0        0.000000    0.000000    0.000000
      2          1           0       -3.050000    0.000000    0.000000
      3          9           0        1.550000    0.000000    0.000000
 ---------------------------------------------------------------------

 SCF Done:  E(UB3LYP) =  -100.844315421     a.u. after    7 cycles

 Alpha  occ. eigenvalues --  -24.64404  -1.09777  -0.42937  -0.36395  -0.36395
 Alpha  occ. eigenvalues --   -0.34589
 Alpha virt. eigenvalues --   -0.15123   0.21083   0.27732   0.93913   0.93913
 Alpha virt. eigenvalues --    1.02528   1.08153   1.22928   1.22928   1.23391
 Alpha virt. eigenvalues --    1.31234   1.31234   1.74079   2.13616   2.19158

  Beta  occ. eigenvalues --  -24.64086  -1.08929  -0.42213  -0.36091  -0.36091
  Beta virt. eigenvalues --   -0.16258  -0.07569   0.23475   0.37240   0.93775
  Beta virt. eigenvalues --    0.93775   1.03151   1.08082   1.29567   1.29567
  Beta virt. eigenvalues --    1.44474   1.44837   1.44837   1.73407   2.16674

 Mulliken charges and spin densities:
               1          2
     1  H    0.338906  -0.094124
     2  H    0.006130   0.993286
     3  F   -0.345036   0.100838
 Sum of Mulliken charges =  -0.00000   1.00000

 Dipole moment (field-independent basis, Debye):
    X=             -2.7105    Y=              0.0000    Z=              0.0000  Tot=              2.7105
 Quadrupole moment (field-independent basis, Debye-Ang):
   XX=             -9.8671   YY=             -7.3509   ZZ=             -7.3509
   XY=              0.0000   XZ=              0.0000   YZ=              0.0000

  Exact polarizability:      19.749      -0.000       2.168       0.000      -0.000       2.168
 Approx polarizability:      34.475       0.000       2.090      -0.000      -0.000       2.090

 ******    2 imaginary frequencies (negative Signs) ******

                      1                      2                      3
                      A                      A                      A
 Frequencies --  -1583.5915              -150.3632               964.8055
 Red. masses --      1.0552                 1.0564                 1.0278
 Frc consts  --      1.5591                 0.0141                 0.5637
 IR Inten    --      3.9280                 1.0927               106.6887

                      4
                      A
 Frequencies --    964.8055
 Red. masses --      1.0278
 Frc consts  --      0.5637
 IR Inten    --    106.6887

 - Thermochemistry -
 -------------------
 Temperature   298.150 Kelvin.  Pressure   1.00000 Atm.
 Atom     1 has atomic number  1 and mass   1.00783

 Molecular mass:    21.01405 amu.
 Principal axes and moments of inertia in atomic units:
                           1         2         3
     Eigenvalues --     0.00000  78.27321  78.27321
           X            1.00000  -0.00000   0.00000
           Y            0.00000   1.00000   0.00000
           Z            0.00000   0.00000   1.00000
 This molecule is a prolate symmetric top.
 Rotational symmetry number  1.
 Rotational temperature (Kelvin)      1.10656
 Rotational constant (GHZ):          23.056945
    2 imaginary frequencies ignored.
 Zero-point vibrational energy      11541.6 (Joules/Mol)
                                    2.75852 (Kcal/Mol)
 Vibrational temperatures:   1388.14  1388.14
          (Kelvin)

 Zero-point correction=                           0.004396 (Hartree/Particle)
 Thermal correction to Energy=                    0.006841
 Thermal correction to Enthalpy=                  0.007785
 Thermal correction to Gibbs Free Energy=        -0.015862
 Sum of electronic and zero-point Energies=           -100.839919
 Sum of electronic and thermal Energies=              -100.837475
 Sum of electronic and thermal Enthalpies=            -100.836530
 Sum of electronic and thermal Free Energies=         -100.860177

                     E (Thermal)             CV                S
                      KCal/Mol        Cal/Mol-Kelvin    Cal/Mol-Kelvin
 Total                    4.293              5.803             49.769
 Electronic               0.000              0.000              1.377
 Translational            0.889              2.981             35.068
 Rotational               0.592              1.987             13.108
 Vibrational              2.811              0.835              0.216

 Normal termination of Gaussian 16 at Fri Aug 22 16:29:08 2025.
