 Gaussian 16, Revision C.01,
 Gaussian 16:  ES64L-G16RevC.01  3-Jul-2019

 -----------------------------------------
 # sp b3lyp/6-311g** Force nosymm scf=(qc)
 -----------------------------------------

 -------------------
 Title Card Required
 -------------------
 Symbolic Z-matrix:
 Charge =  0 Multiplicity = 2

                          Input orientation:
 ---------------------------------------------------------------------
 Center     Atomic      Atomic             Coordinates (Angstroms)
 Number     Number       Type             X           Y           Z
 ---------------------------------------------------------------------
      1          1           0        0.000000    0.000000    0.000000
      2          1           0       -1.450000    0.000000    0.000000
      3          9           0        1.900000    0.000000    0.000000
 ---------------------------------------------------------------------

 SCF Done:  E(UB3LYP) =  -100.845819116     a.u. after   13 cycles

 Alpha  occ. eigenvalues --  -24.69233  -1.15643  -0.48980  -0.40678  -0.40678
 Alpha  occ. eigenvalues --   -0.38487
 Alpha virt. eigenvalues --   -0.09422   0.21979   0.30993   0.86609   0.93639
 Alpha virt. eigenvalues --    0.93639   1.03240   1.15169   1.15169   1.33937
 Alpha virt. eigenvalues --    1.40557   1.40557   1.88164   2.21235   2.45635

  Beta  occ. eigenvalues --  -24.66753  -1.08702  -0.38233  -0.38233  -0.38223
  Beta virt. eigenvalues --   -0.23455  -0.07426   0.24055   0.31052   0.90785
  Beta virt. eigenvalues --    0.94505   0.94505   1.07265   1.17628   1.17628
  Beta virt. eigenvalues --    1.38415   1.41510   1.41510   1.90304   2.22208

 Mulliken charges and spin densities:
               1          2
     1  H    0.101823  -0.311991
     2  H    0.066146   0.535281
     3  F   -0.167968   0.776710
 Sum of Mulliken charges =  -0.00000   1.00000

 Dipole moment (field-independent basis, Debye):
    X=             -2.0295    Y=              0.0000    Z=              0.0000  Tot=              2.0295
 Quadrupole moment (field-independent basis, Debye-Ang):
   XX=             -7.7037   YY=             -7.4676   ZZ=             -7.4676
   XY=              0.0000   XZ=              0.0000   YZ=             -0.0000

  Exact polarizability:      48.769       0.000       2.154       0.000       0.000       2.154
 Approx polarizability:      75.405      -0.000       2.106      -0.000       0.000       2.106

 ******    2 imaginary frequencies (negative Signs) ******

                      1                      2                      3
                      A                      A                      A
 Frequencies --  -2222.0470              -474.2129              1120.4803
 Red. masses --      1.0137                 1.1014                 1.0150
 Frc consts  --      2.9491                 0.1459                 0.7508
 IR Inten    --    892.1320                 6.8197                 2.7828

                      4
                      A
 Frequencies --   1120.4803
 Red. masses --      1.0150
 Frc consts  --      0.7508
 IR Inten    --      2.7828

 - Thermochemistry -
 -------------------
 Temperature   298.150 Kelvin.  Pressure   1.00000 Atm.
 Atom     1 has atomic number  1 and mass   1.00783

 Molecular mass:    21.01405 amu.
 Principal axes and moments of inertia in atomic units:
                           1         2         3
     Eigenvalues --     0.00000  48.62482  48.62482
           X            1.00000  -0.00000   0.00000
           Y            0.00000   1.00000   0.00000
           Z            0.00000   0.00000   1.00000
 This molecule is a prolate symmetric top.
 Rotational symmetry number  1.
 Rotational temperature (Kelvin)      1.78127
 Rotational constant (GHZ):          37.115641
    2 imaginary frequencies ignored.
 Zero-point vibrational energy      13403.9 (Joules/Mol)
                                    3.20361 (Kcal/Mol)
 Vibrational temperatures:   1612.12  1612.12
          (Kelvin)

 Zero-point correction=                           0.005105 (Hartree/Particle)
 Thermal correction to Energy=                    0.007512
 Thermal correction to Enthalpy=                  0.008456
 Thermal correction to Gibbs Free Energy=        -0.014694
 Sum of electronic and zero-point Energies=           -100.840714
 Sum of electronic and thermal Energies=              -100.838307
 Sum of electronic and thermal Enthalpies=            -100.837363
 Sum of electronic and thermal Free Energies=         -100.860513

                     E (Thermal)             CV                S
                      KCal/Mol        Cal/Mol-Kelvin    Cal/Mol-Kelvin
 Total                    4.714              5.494             48.722
 Electronic               0.000              0.000              1.377
 Translational            0.889              2.981             35.068
 Rotational               0.592              1.987             12.162
 Vibrational              3.232              0.526              0.115

 Normal termination of Gaussian 16 at Fri Aug 22 16:49:31 2025.
