 Gaussian 16, Revision C.01,
 Gaussian 16:  ES64L-G16RevC.01  3-Jul-2019

 -----------------------------------------
 # sp b3lyp/6-311g** Force nosymm scf=(qc)
 -----------------------------------------

 -------------------
 Title Card Required
 -------------------
 Symbolic Z-matrix:
 Charge =  0 Multiplicity = 2

                          Input orientation:
 ---------------------------------------------------------------------
 Center     Atomic      Atomic             Coordinates (Angstroms)
 Number     Number       Type             X           Y           Z
 ---------------------------------------------------------------------
      1          1           0        0.000000    0.000000    0.000000
      2          1           0       -1.450000    0.000000    0.000000
      3          9           0        3.150000    0.000000    0.000000
 ---------------------------------------------------------------------

 SCF Done:  E(UB3LYP) =  -100.828606070     a.u. after   81 cycles

 Alpha  occ. eigenvalues --  -24.76599  -1.22442  -0.55634  -0.46862  -0.46786
 Alpha  occ. eigenvalues --   -0.33857
 Alpha virt. eigenvalues --   -0.08909   0.24702   0.30965   0.85800   0.90674
 Alpha virt. eigenvalues --    0.92841   1.02435   1.08981   1.19246   1.19251
 Alpha virt. eigenvalues --    1.43259   1.43264   1.86422   2.24260   2.48877

  Beta  occ. eigenvalues --  -24.73439  -1.13360  -0.43698  -0.43619  -0.33851
  Beta virt. eigenvalues --   -0.26266  -0.08900   0.24718   0.31019   0.92173
  Beta virt. eigenvalues --    0.94419   0.95260   1.06432   1.08989   1.19245
  Beta virt. eigenvalues --    1.19250   1.43258   1.43263   1.86430   2.24260

 Mulliken charges and spin densities:
               1          2
     1  H   -0.000208   0.002635
     2  H   -0.005458  -0.003375
     3  F    0.005666   1.000740
 Sum of Mulliken charges =   0.00000   1.00000

 Dipole moment (field-independent basis, Debye):
    X=              0.0899    Y=             -0.0000    Z=              0.0000  Tot=              0.0899
 Quadrupole moment (field-independent basis, Debye-Ang):
   XX=             -6.1786   YY=             -7.0553   ZZ=             -7.5397
   XY=             -0.0000   XZ=              0.0000   YZ=             -0.3577

  Exact polarizability:      22.028      -0.000       2.413      -0.000      -0.192       2.152
 Approx polarizability:      40.136      -0.000       2.506       0.000      -0.241       2.180

 ******    1 imaginary frequencies (negative Signs) ******

                      1                      2                      3
                      A                      A                      A
 Frequencies --  -1221.5459                37.6739              1264.5285
 Red. masses --      1.0078                 1.1085                 1.0112
 Frc consts  --      0.8860                 0.0009                 0.9527
 IR Inten    --      0.7395                 0.4865                 0.0057

                      4
                      A
 Frequencies --   1266.2995
 Red. masses --      1.0112
 Frc consts  --      0.9554
 IR Inten    --      0.0044

 - Thermochemistry -
 -------------------
 Temperature   298.150 Kelvin.  Pressure   1.00000 Atm.
 Atom     1 has atomic number  1 and mass   1.00783

 Molecular mass:    21.01405 amu.
 Principal axes and moments of inertia in atomic units:
                           1         2         3
     Eigenvalues --     0.00000 101.49898 101.49898
           X            1.00000  -0.00000   0.00000
           Y            0.00000   1.00000   0.00000
           Z            0.00000   0.00000   1.00000
 This molecule is a prolate symmetric top.
 Rotational symmetry number  1.
 Rotational temperature (Kelvin)      0.85335
 Rotational constant (GHZ):          17.780880
    1 imaginary frequencies ignored.
 Zero-point vibrational energy      15363.1 (Joules/Mol)
                                    3.67186 (Kcal/Mol)
 Warning -- explicit consideration of   1 degrees of freedom as
           vibrations may cause significant error
 Vibrational temperatures:     54.20  1819.37  1821.92
          (Kelvin)

 Zero-point correction=                           0.005851 (Hartree/Particle)
 Thermal correction to Energy=                    0.009099
 Thermal correction to Enthalpy=                  0.010043
 Thermal correction to Gibbs Free Energy=        -0.016332
 Sum of electronic and zero-point Energies=           -100.822755
 Sum of electronic and thermal Energies=              -100.819507
 Sum of electronic and thermal Enthalpies=            -100.818563
 Sum of electronic and thermal Free Energies=         -100.844938

                     E (Thermal)             CV                S
                      KCal/Mol        Cal/Mol-Kelvin    Cal/Mol-Kelvin
 Total                    5.709              7.281             55.511
 Electronic               0.000              0.000              1.377
 Translational            0.889              2.981             35.068
 Rotational               0.592              1.987             13.625
 Vibrational              4.228              2.313              5.441
 Vibration     1          0.594              1.982              5.378

 Normal termination of Gaussian 16 at Fri Aug 22 20:08:08 2025.
