 Gaussian 16, Revision C.01,
 Gaussian 16:  ES64L-G16RevC.01  3-Jul-2019

 -----------------------------------------
 # sp b3lyp/6-311g** Force nosymm scf=(qc)
 -----------------------------------------

 -------------------
 Title Card Required
 -------------------
 Symbolic Z-matrix:
 Charge =  0 Multiplicity = 2

                          Input orientation:
 ---------------------------------------------------------------------
 Center     Atomic      Atomic             Coordinates (Angstroms)
 Number     Number       Type             X           Y           Z
 ---------------------------------------------------------------------
      1          1           0        0.000000    0.000000    0.000000
      2          1           0       -1.150000    0.000000    0.000000
      3          9           0        0.850000    0.000000    0.000000
 ---------------------------------------------------------------------

 SCF Done:  E(UB3LYP) =  -100.952268770     a.u. after    6 cycles

 Alpha  occ. eigenvalues --  -24.64135  -1.21801  -0.58565  -0.40517  -0.40517
 Alpha  occ. eigenvalues --   -0.36145
 Alpha virt. eigenvalues --    0.14155   0.19413   0.49438   0.91968   0.91968
 Alpha virt. eigenvalues --    0.96357   1.09626   1.09626   1.41510   1.55473
 Alpha virt. eigenvalues --    1.55473   1.63807   2.09248   2.29243   3.09002

  Beta  occ. eigenvalues --  -24.63679  -1.20610  -0.55571  -0.40126  -0.40126
  Beta virt. eigenvalues --   -0.15762   0.15539   0.24383   0.54822   0.92999
  Beta virt. eigenvalues --    0.92999   0.97272   1.17446   1.17446   1.44245
  Beta virt. eigenvalues --    1.61199   1.61199   1.72989   2.10692   2.45272

 Mulliken charges and spin densities:
               1          2
     1  H    0.265181  -0.000003
     2  H    0.012699   0.898861
     3  F   -0.277880   0.101142
 Sum of Mulliken charges =   0.00000   1.00000

 Dipole moment (field-independent basis, Debye):
    X=             -1.8083    Y=              0.0000    Z=             -0.0000  Tot=              1.8083
 Quadrupole moment (field-independent basis, Debye-Ang):
   XX=             -7.4858   YY=             -6.6334   ZZ=             -6.6334
   XY=              0.0000   XZ=             -0.0000   YZ=             -0.0000

  Exact polarizability:      10.660      -0.000       2.581      -0.000       0.000       2.581
 Approx polarizability:      11.145      -0.000       2.609      -0.000       0.000       2.609

 ******    2 imaginary frequencies (negative Signs) ******

                      1                      2                      3
                      A                      A                      A
 Frequencies --  -1534.9053             -1534.9053              1271.9136
 Red. masses --      1.0220                 1.0220                 1.0527
 Frc consts  --      1.4186                 1.4186                 1.0034
 IR Inten    --     98.7203                98.7203                29.0702

                      4
                      A
 Frequencies --   5085.0579
 Red. masses --      1.0588
 Frc consts  --     16.1313
 IR Inten    --    111.0060

 - Thermochemistry -
 -------------------
 Temperature   298.150 Kelvin.  Pressure   1.00000 Atm.
 Atom     1 has atomic number  1 and mass   1.00783

 Molecular mass:    21.01405 amu.
 Principal axes and moments of inertia in atomic units:
                           1         2         3
     Eigenvalues --     0.00000  15.59432  15.59432
           X            1.00000  -0.00000   0.00000
           Y            0.00000   1.00000   0.00000
           Z            0.00000   0.00000   1.00000
 This molecule is a prolate symmetric top.
 Rotational symmetry number  1.
 Rotational temperature (Kelvin)      5.55420
 Rotational constant (GHZ):         115.730690
    2 imaginary frequencies ignored.
 Zero-point vibrational energy      38023.1 (Joules/Mol)
                                    9.08775 (Kcal/Mol)
 Vibrational temperatures:   1830.00  7316.26
          (Kelvin)

 Zero-point correction=                           0.014482 (Hartree/Particle)
 Thermal correction to Energy=                    0.016855
 Thermal correction to Enthalpy=                  0.017799
 Thermal correction to Gibbs Free Energy=        -0.004236
 Sum of electronic and zero-point Energies=           -100.937787
 Sum of electronic and thermal Energies=              -100.935414
 Sum of electronic and thermal Enthalpies=            -100.934469
 Sum of electronic and thermal Free Energies=         -100.956505

                     E (Thermal)             CV                S
                      KCal/Mol        Cal/Mol-Kelvin    Cal/Mol-Kelvin
 Total                   10.577              5.130             46.378
 Electronic               0.000              0.000              1.377
 Translational            0.889              2.981             35.068
 Rotational               0.592              1.987              9.902
 Vibrational              9.096              0.162              0.031

 Normal termination of Gaussian 16 at Fri Aug 22 15:52:52 2025.
