 Gaussian 16, Revision C.01,
 Gaussian 16:  ES64L-G16RevC.01  3-Jul-2019

 -----------------------------------------
 # sp b3lyp/6-311g** Force nosymm scf=(qc)
 -----------------------------------------

 -------------------
 Title Card Required
 -------------------
 Symbolic Z-matrix:
 Charge =  0 Multiplicity = 2

                          Input orientation:
 ---------------------------------------------------------------------
 Center     Atomic      Atomic             Coordinates (Angstroms)
 Number     Number       Type             X           Y           Z
 ---------------------------------------------------------------------
      1          1           0        0.000000    0.000000    0.000000
      2          1           0       -4.000000    0.000000    0.000000
      3          9           0        2.750000    0.000000    0.000000
 ---------------------------------------------------------------------

 SCF Done:  E(UB3LYP) =  -100.763136260     a.u. after   24 cycles

 Alpha  occ. eigenvalues --  -24.73043  -1.19177  -0.52158  -0.43802  -0.43802
 Alpha  occ. eigenvalues --   -0.32574
 Alpha virt. eigenvalues --   -0.08734   0.23723   0.35896   0.89876   0.92890
 Alpha virt. eigenvalues --    0.92890   1.05275   1.24924   1.24924   1.24937
 Alpha virt. eigenvalues --    1.42553   1.42553   1.44716   2.14213   2.39843

  Beta  occ. eigenvalues --  -24.70091  -1.10742  -0.40853  -0.40853  -0.34436
  Beta virt. eigenvalues --   -0.24160  -0.05948   0.23787   0.38122   0.94323
  Beta virt. eigenvalues --    0.94323   0.97887   1.08484   1.22875   1.22875
  Beta virt. eigenvalues --    1.24985   1.46633   1.46752   1.46752   2.13509

 Mulliken charges and spin densities:
               1          2
     1  H    0.059385  -0.933625
     2  H    0.000175   0.999400
     3  F   -0.059560   0.934224
 Sum of Mulliken charges =  -0.00000   1.00000

 Dipole moment (field-independent basis, Debye):
    X=             -0.8419    Y=             -0.0000    Z=             -0.0000  Tot=              0.8419
 Quadrupole moment (field-independent basis, Debye-Ang):
   XX=             -8.8674   YY=             -7.5899   ZZ=             -7.5899
   XY=             -0.0000   XZ=             -0.0000   YZ=             -0.0000

  Exact polarizability:      31.093      -0.000       2.025      -0.000      -0.000       2.025
 Approx polarizability:      36.169      -0.000       1.923      -0.000       0.000       1.923

 ******    2 imaginary frequencies (negative Signs) ******

                      1                      2                      3
                      A                      A                      A
 Frequencies --   -471.2502               -69.2334               173.8550
 Red. masses --      1.0560                 1.0555                 1.0231
 Frc consts  --      0.1382                 0.0030                 0.0182
 IR Inten    --     59.0427                 0.0435                 3.4468

                      4
                      A
 Frequencies --    173.8550
 Red. masses --      1.0231
 Frc consts  --      0.0182
 IR Inten    --      3.4468

 - Thermochemistry -
 -------------------
 Temperature   298.150 Kelvin.  Pressure   1.00000 Atm.
 Atom     1 has atomic number  1 and mass   1.00783

 Molecular mass:    21.01405 amu.
 Principal axes and moments of inertia in atomic units:
                           1         2         3
     Eigenvalues --     0.00000 175.61955 175.61955
           X            1.00000  -0.00000   0.00000
           Y            0.00000   1.00000   0.00000
           Z            0.00000   0.00000   1.00000
 This molecule is a prolate symmetric top.
 Rotational symmetry number  1.
 Rotational temperature (Kelvin)      0.49319
 Rotational constant (GHZ):          10.276425
    2 imaginary frequencies ignored.
 Zero-point vibrational energy       2079.8 (Joules/Mol)
                                    0.49708 (Kcal/Mol)
 Warning -- explicit consideration of   2 degrees of freedom as
           vibrations may cause significant error
 Vibrational temperatures:    250.14   250.14
          (Kelvin)

 Zero-point correction=                           0.000792 (Hartree/Particle)
 Thermal correction to Energy=                    0.004358
 Thermal correction to Enthalpy=                  0.005303
 Thermal correction to Gibbs Free Energy=        -0.021279
 Sum of electronic and zero-point Energies=           -100.762344
 Sum of electronic and thermal Energies=              -100.758778
 Sum of electronic and thermal Enthalpies=            -100.757834
 Sum of electronic and thermal Free Energies=         -100.784416

                     E (Thermal)             CV                S
                      KCal/Mol        Cal/Mol-Kelvin    Cal/Mol-Kelvin
 Total                    2.735              8.717             55.946
 Electronic               0.000              0.000              1.377
 Translational            0.889              2.981             35.068
 Rotational               0.592              1.987             14.714
 Vibrational              1.254              3.749              4.787
 Vibration     1          0.627              1.875              2.393
 Vibration     2          0.627              1.875              2.393

 Normal termination of Gaussian 16 at Fri Aug 22 18:35:40 2025.
