 Gaussian 16, Revision C.01,
 Gaussian 16:  ES64L-G16RevC.01  3-Jul-2019

 -----------------------------------------
 # sp b3lyp/6-311g** Force nosymm scf=(qc)
 -----------------------------------------

 -------------------
 Title Card Required
 -------------------
 Symbolic Z-matrix:
 Charge =  0 Multiplicity = 2

                          Input orientation:
 ---------------------------------------------------------------------
 Center     Atomic      Atomic             Coordinates (Angstroms)
 Number     Number       Type             X           Y           Z
 ---------------------------------------------------------------------
      1          1           0        0.000000    0.000000    0.000000
      2          1           0       -1.250000    0.000000    0.000000
      3          9           0        0.650000    0.000000    0.000000
 ---------------------------------------------------------------------

 SCF Done:  E(UB3LYP) =  -100.783432339     a.u. after    7 cycles

 Alpha  occ. eigenvalues --  -24.63555  -1.32479  -0.61919  -0.43007  -0.43007
 Alpha  occ. eigenvalues --   -0.35478
 Alpha virt. eigenvalues --    0.15182   0.20659   0.63014   0.91200   0.91200
 Alpha virt. eigenvalues --    0.92728   1.12870   1.12870   1.45919   1.58460
 Alpha virt. eigenvalues --    1.58460   1.70750   1.95739   2.29702   3.61176

  Beta  occ. eigenvalues --  -24.63338  -1.31819  -0.60672  -0.42839  -0.42839
  Beta virt. eigenvalues --   -0.12703   0.16146   0.27957   0.68391   0.91785
  Beta virt. eigenvalues --    0.91785   0.93204   1.23519   1.23519   1.47252
  Beta virt. eigenvalues --    1.63865   1.63865   1.82130   1.97163   2.50128

 Mulliken charges and spin densities:
               1          2
     1  H    0.246471   0.010418
     2  H    0.002217   0.961298
     3  F   -0.248689   0.028284
 Sum of Mulliken charges =   0.00000   1.00000

 Dipole moment (field-independent basis, Debye):
    X=             -1.4122    Y=             -0.0000    Z=              0.0000  Tot=              1.4122
 Quadrupole moment (field-independent basis, Debye-Ang):
   XX=             -7.1195   YY=             -6.4888   ZZ=             -6.4888
   XY=              0.0000   XZ=              0.0000   YZ=             -0.0000

  Exact polarizability:       7.090      -0.000       2.546       0.000       0.000       2.546
 Approx polarizability:       6.848       0.000       2.577      -0.000       0.000       2.577

 ******    2 imaginary frequencies (negative Signs) ******

                      1                      2                      3
                      A                      A                      A
 Frequencies --  -4477.1265             -4477.1265              1339.2006
 Red. masses --      1.0274                 1.0274                 1.0539
 Frc consts  --     12.1338                12.1338                 1.1136
 IR Inten    --    147.6023               147.6023                24.3886

                      4
                      A
 Frequencies --  10852.9584
 Red. masses --      1.0577
 Frc consts  --     73.4008
 IR Inten    --    104.8377

 - Thermochemistry -
 -------------------
 Temperature   298.150 Kelvin.  Pressure   1.00000 Atm.
 Atom     1 has atomic number  1 and mass   1.00783

 Molecular mass:    21.01405 amu.
 Principal axes and moments of inertia in atomic units:
                           1         2         3
     Eigenvalues --     0.00000  13.39063  13.39063
           X            1.00000  -0.00000   0.00000
           Y            0.00000   1.00000   0.00000
           Z            0.00000   0.00000   1.00000
 This molecule is a prolate symmetric top.
 Rotational symmetry number  1.
 Rotational temperature (Kelvin)      6.46825
 Rotational constant (GHZ):         134.776468
    2 imaginary frequencies ignored.
 Zero-point vibrational energy      72925.3 (Joules/Mol)
                                   17.42957 (Kcal/Mol)
 Vibrational temperatures:   1926.81 15614.99
          (Kelvin)

 Zero-point correction=                           0.027776 (Hartree/Particle)
 Thermal correction to Energy=                    0.030146
 Thermal correction to Enthalpy=                  0.031090
 Thermal correction to Gibbs Free Energy=         0.009201
 Sum of electronic and zero-point Energies=           -100.755657
 Sum of electronic and thermal Energies=              -100.753287
 Sum of electronic and thermal Enthalpies=            -100.752342
 Sum of electronic and thermal Free Energies=         -100.774231

                     E (Thermal)             CV                S
                      KCal/Mol        Cal/Mol-Kelvin    Cal/Mol-Kelvin
 Total                   18.917              5.098             46.068
 Electronic               0.000              0.000              1.377
 Translational            0.889              2.981             35.068
 Rotational               0.592              1.987              9.600
 Vibrational             17.436              0.130              0.023

 Normal termination of Gaussian 16 at Fri Aug 22 15:43:33 2025.
