 Gaussian 16, Revision C.01,
 Gaussian 16:  ES64L-G16RevC.01  3-Jul-2019

 -----------------------------------------
 # sp b3lyp/6-311g** Force nosymm scf=(qc)
 -----------------------------------------

 -------------------
 Title Card Required
 -------------------
 Symbolic Z-matrix:
 Charge =  0 Multiplicity = 2

                          Input orientation:
 ---------------------------------------------------------------------
 Center     Atomic      Atomic             Coordinates (Angstroms)
 Number     Number       Type             X           Y           Z
 ---------------------------------------------------------------------
      1          1           0        0.000000    0.000000    0.000000
      2          1           0       -2.350000    0.000000    0.000000
      3          9           0        3.400000    0.000000    0.000000
 ---------------------------------------------------------------------

 SCF Done:  E(UB3LYP) =  -100.765154818     a.u. after   33 cycles

 Alpha  occ. eigenvalues --  -24.75299  -1.21268  -0.54421  -0.45694  -0.45694
 Alpha  occ. eigenvalues --   -0.32849
 Alpha virt. eigenvalues --   -0.10166   0.25757   0.33664   0.87953   0.91531
 Alpha virt. eigenvalues --    0.91531   1.02058   1.24882   1.24882   1.25804
 Alpha virt. eigenvalues --    1.40101   1.40101   1.43248   2.15018   2.35902

  Beta  occ. eigenvalues --  -24.72193  -1.12345  -0.42581  -0.42581  -0.33136
  Beta virt. eigenvalues --   -0.25459  -0.09639   0.25619   0.34417   0.93018
  Beta virt. eigenvalues --    0.93018   0.97064   1.06077   1.24528   1.24528
  Beta virt. eigenvalues --    1.25394   1.40914   1.40914   1.44028   2.15735

 Mulliken charges and spin densities:
               1          2
     1  H    0.009627  -0.937877
     2  H    0.003910   0.953118
     3  F   -0.013537   0.984759
 Sum of Mulliken charges =   0.00000   1.00000

 Dipole moment (field-independent basis, Debye):
    X=             -0.2799    Y=              0.0000    Z=             -0.0000  Tot=              0.2799
 Quadrupole moment (field-independent basis, Debye-Ang):
   XX=             -7.1317   YY=             -7.6786   ZZ=             -7.6786
   XY=              0.0000   XZ=             -0.0000   YZ=             -0.0000

  Exact polarizability:      39.642       0.000       2.018      -0.000       0.000       2.018
 Approx polarizability:      30.565       0.000       1.928      -0.000      -0.000       1.928

 ******    2 imaginary frequencies (negative Signs) ******

                      1                      2                      3
                      A                      A                      A
 Frequencies --   -830.4318              -155.6683               311.6167
 Red. masses --      1.0080                 1.1083                 1.0141
 Frc consts  --      0.4096                 0.0158                 0.0580
 IR Inten    --      8.6829                 9.1401                 0.0553

                      4
                      A
 Frequencies --    311.6167
 Red. masses --      1.0141
 Frc consts  --      0.0580
 IR Inten    --      0.0553

 - Thermochemistry -
 -------------------
 Temperature   298.150 Kelvin.  Pressure   1.00000 Atm.
 Atom     1 has atomic number  1 and mass   1.00783

 Molecular mass:    21.01405 amu.
 Principal axes and moments of inertia in atomic units:
                           1         2         3
     Eigenvalues --     0.00000 146.14568 146.14568
           X            1.00000  -0.00000   0.00000
           Y            0.00000   1.00000   0.00000
           Z            0.00000   0.00000   1.00000
 This molecule is a prolate symmetric top.
 Rotational symmetry number  1.
 Rotational temperature (Kelvin)      0.59265
 Rotational constant (GHZ):          12.348920
    2 imaginary frequencies ignored.
 Zero-point vibrational energy       3727.8 (Joules/Mol)
                                    0.89096 (Kcal/Mol)
 Warning -- explicit consideration of   2 degrees of freedom as
           vibrations may cause significant error
 Vibrational temperatures:    448.35   448.35
          (Kelvin)

 Zero-point correction=                           0.001420 (Hartree/Particle)
 Thermal correction to Energy=                    0.004592
 Thermal correction to Enthalpy=                  0.005536
 Thermal correction to Gibbs Free Energy=        -0.019884
 Sum of electronic and zero-point Energies=           -100.763735
 Sum of electronic and thermal Energies=              -100.760563
 Sum of electronic and thermal Enthalpies=            -100.759619
 Sum of electronic and thermal Free Energies=         -100.785039

                     E (Thermal)             CV                S
                      KCal/Mol        Cal/Mol-Kelvin    Cal/Mol-Kelvin
 Total                    2.881              8.271             53.502
 Electronic               0.000              0.000              1.377
 Translational            0.889              2.981             35.068
 Rotational               0.592              1.987             14.349
 Vibrational              1.400              3.303              2.707
 Vibration     1          0.700              1.652              1.354
 Vibration     2          0.700              1.652              1.354

 Normal termination of Gaussian 16 at Fri Aug 22 21:17:11 2025.
