 Gaussian 16, Revision C.01,
 Gaussian 16:  ES64L-G16RevC.01  3-Jul-2019

 -----------------------------------------
 # sp b3lyp/6-311g** Force nosymm scf=(qc)
 -----------------------------------------

 -------------------
 Title Card Required
 -------------------
 Symbolic Z-matrix:
 Charge =  0 Multiplicity = 2

                          Input orientation:
 ---------------------------------------------------------------------
 Center     Atomic      Atomic             Coordinates (Angstroms)
 Number     Number       Type             X           Y           Z
 ---------------------------------------------------------------------
      1          1           0        0.000000    0.000000    0.000000
      2          1           0       -3.850000    0.000000    0.000000
      3          9           0        2.750000    0.000000    0.000000
 ---------------------------------------------------------------------

 SCF Done:  E(UB3LYP) =  -100.763185218     a.u. after   24 cycles

 Alpha  occ. eigenvalues --  -24.73044  -1.19179  -0.52160  -0.43804  -0.43804
 Alpha  occ. eigenvalues --   -0.32606
 Alpha virt. eigenvalues --   -0.08816   0.23694   0.35903   0.89889   0.92889
 Alpha virt. eigenvalues --    0.92889   1.05290   1.24894   1.24894   1.24929
 Alpha virt. eigenvalues --    1.42604   1.42604   1.44297   2.14303   2.39567

  Beta  occ. eigenvalues --  -24.70093  -1.10744  -0.40854  -0.40854  -0.34438
  Beta virt. eigenvalues --   -0.24161  -0.06129   0.23802   0.38107   0.94322
  Beta virt. eigenvalues --    0.94322   0.97907   1.08507   1.22875   1.22875
  Beta virt. eigenvalues --    1.24989   1.46403   1.46582   1.46582   2.13645

 Mulliken charges and spin densities:
               1          2
     1  H    0.059256  -0.933387
     2  H    0.000260   0.999134
     3  F   -0.059516   0.934254
 Sum of Mulliken charges =  -0.00000   1.00000

 Dipole moment (field-independent basis, Debye):
    X=             -0.8428    Y=             -0.0000    Z=              0.0000  Tot=              0.8428
 Quadrupole moment (field-independent basis, Debye-Ang):
   XX=             -8.8563   YY=             -7.5910   ZZ=             -7.5910
   XY=             -0.0000   XZ=              0.0000   YZ=             -0.0000

  Exact polarizability:      31.319      -0.000       2.025       0.000       0.000       2.025
 Approx polarizability:      36.313      -0.000       1.923       0.000      -0.000       1.923

 ******    2 imaginary frequencies (negative Signs) ******

                      1                      2                      3
                      A                      A                      A
 Frequencies --   -473.2920               -81.2579               174.3852
 Red. masses --      1.0552                 1.0564                 1.0225
 Frc consts  --      0.1393                 0.0041                 0.0183
 IR Inten    --     59.0135                 0.0836                 3.4051

                      4
                      A
 Frequencies --    174.3852
 Red. masses --      1.0225
 Frc consts  --      0.0183
 IR Inten    --      3.4051

 - Thermochemistry -
 -------------------
 Temperature   298.150 Kelvin.  Pressure   1.00000 Atm.
 Atom     1 has atomic number  1 and mass   1.00783

 Molecular mass:    21.01405 amu.
 Principal axes and moments of inertia in atomic units:
                           1         2         3
     Eigenvalues --     0.00000 168.90059 168.90059
           X            1.00000  -0.00000   0.00000
           Y            0.00000   1.00000   0.00000
           Z            0.00000   0.00000   1.00000
 This molecule is a prolate symmetric top.
 Rotational symmetry number  1.
 Rotational temperature (Kelvin)      0.51281
 Rotational constant (GHZ):          10.685228
    2 imaginary frequencies ignored.
 Zero-point vibrational energy       2086.1 (Joules/Mol)
                                    0.49859 (Kcal/Mol)
 Warning -- explicit consideration of   2 degrees of freedom as
           vibrations may cause significant error
 Vibrational temperatures:    250.90   250.90
          (Kelvin)

 Zero-point correction=                           0.000795 (Hartree/Particle)
 Thermal correction to Energy=                    0.004359
 Thermal correction to Enthalpy=                  0.005303
 Thermal correction to Gibbs Free Energy=        -0.021237
 Sum of electronic and zero-point Energies=           -100.762391
 Sum of electronic and thermal Energies=              -100.758826
 Sum of electronic and thermal Enthalpies=            -100.757882
 Sum of electronic and thermal Free Energies=         -100.784422

                     E (Thermal)             CV                S
                      KCal/Mol        Cal/Mol-Kelvin    Cal/Mol-Kelvin
 Total                    2.735              8.716             55.857
 Electronic               0.000              0.000              1.377
 Translational            0.889              2.981             35.068
 Rotational               0.592              1.987             14.637
 Vibrational              1.254              3.748              4.775
 Vibration     1          0.627              1.874              2.388
 Vibration     2          0.627              1.874              2.388

 Normal termination of Gaussian 16 at Fri Aug 22 18:35:31 2025.
