 Gaussian 16, Revision C.01,
 Gaussian 16:  ES64L-G16RevC.01  3-Jul-2019

 -----------------------------------------
 # sp b3lyp/6-311g** Force nosymm scf=(qc)
 -----------------------------------------

 -------------------
 Title Card Required
 -------------------
 Symbolic Z-matrix:
 Charge =  0 Multiplicity = 2

                          Input orientation:
 ---------------------------------------------------------------------
 Center     Atomic      Atomic             Coordinates (Angstroms)
 Number     Number       Type             X           Y           Z
 ---------------------------------------------------------------------
      1          1           0        0.000000    0.000000    0.000000
      2          1           0       -2.650000    0.000000    0.000000
      3          9           0        1.900000    0.000000    0.000000
 ---------------------------------------------------------------------

 SCF Done:  E(UB3LYP) =  -100.797038505     a.u. after   14 cycles

 Alpha  occ. eigenvalues --  -24.67316  -1.13599  -0.46241  -0.38967  -0.38967
 Alpha  occ. eigenvalues --   -0.34756
 Alpha virt. eigenvalues --   -0.14269   0.23451   0.30232   0.91023   0.94968
 Alpha virt. eigenvalues --    0.94968   1.06170   1.22843   1.22843   1.24842
 Alpha virt. eigenvalues --    1.34371   1.34371   1.65403   2.13888   2.27911

  Beta  occ. eigenvalues --  -24.65139  -1.07553  -0.38436  -0.36831  -0.36831
  Beta virt. eigenvalues --   -0.20115  -0.09344   0.24082   0.35346   0.92438
  Beta virt. eigenvalues --    0.95317   0.95317   1.08519   1.22938   1.22938
  Beta virt. eigenvalues --    1.42265   1.42265   1.42782   1.60078   2.13261

 Mulliken charges and spin densities:
               1          2
     1  H    0.209069  -0.663915
     2  H    0.013939   0.979302
     3  F   -0.223008   0.684612
 Sum of Mulliken charges =   0.00000   1.00000

 Dipole moment (field-independent basis, Debye):
    X=             -2.2578    Y=              0.0000    Z=              0.0000  Tot=              2.2578
 Quadrupole moment (field-independent basis, Debye-Ang):
   XX=             -9.6217   YY=             -7.4887   ZZ=             -7.4887
   XY=              0.0000   XZ=              0.0000   YZ=              0.0000

  Exact polarizability:      33.068      -0.000       2.077      -0.000       0.000       2.077
 Approx polarizability:      42.675      -0.000       1.968      -0.000      -0.000       1.968

 ******    2 imaginary frequencies (negative Signs) ******

                      1                      2                      3
                      A                      A                      A
 Frequencies --  -1346.4731              -328.9217               568.0710
 Red. masses --      1.0504                 1.0612                 1.0224
 Frc consts  --      1.1221                 0.0676                 0.1944
 IR Inten    --    106.7238                 8.5007                37.2009

                      4
                      A
 Frequencies --    568.0710
 Red. masses --      1.0224
 Frc consts  --      0.1944
 IR Inten    --     37.2009

 - Thermochemistry -
 -------------------
 Temperature   298.150 Kelvin.  Pressure   1.00000 Atm.
 Atom     1 has atomic number  1 and mass   1.00783

 Molecular mass:    21.01405 amu.
 Principal axes and moments of inertia in atomic units:
                           1         2         3
     Eigenvalues --     0.00000  80.32002  80.32002
           X            1.00000  -0.00000   0.00000
           Y            0.00000   1.00000   0.00000
           Z            0.00000   0.00000   1.00000
 This molecule is a prolate symmetric top.
 Rotational symmetry number  1.
 Rotational temperature (Kelvin)      1.07836
 Rotational constant (GHZ):          22.469383
    2 imaginary frequencies ignored.
 Zero-point vibrational energy       6795.6 (Joules/Mol)
                                    1.62420 (Kcal/Mol)
 Warning -- explicit consideration of   2 degrees of freedom as
           vibrations may cause significant error
 Vibrational temperatures:    817.33   817.33
          (Kelvin)

 Zero-point correction=                           0.002588 (Hartree/Particle)
 Thermal correction to Energy=                    0.005306
 Thermal correction to Enthalpy=                  0.006250
 Thermal correction to Gibbs Free Energy=        -0.017802
 Sum of electronic and zero-point Energies=           -100.794450
 Sum of electronic and thermal Energies=              -100.791733
 Sum of electronic and thermal Enthalpies=            -100.790789
 Sum of electronic and thermal Free Energies=         -100.814840

                     E (Thermal)             CV                S
                      KCal/Mol        Cal/Mol-Kelvin    Cal/Mol-Kelvin
 Total                    3.329              7.169             50.621
 Electronic               0.000              0.000              1.377
 Translational            0.889              2.981             35.068
 Rotational               0.592              1.987             13.160
 Vibrational              1.848              2.201              1.016
 Vibration     1          0.924              1.100              0.508
 Vibration     2          0.924              1.100              0.508

 Normal termination of Gaussian 16 at Fri Aug 22 16:50:35 2025.
