 Gaussian 16, Revision C.01,
 Gaussian 16:  ES64L-G16RevC.01  3-Jul-2019

 -----------------------------------------
 # sp b3lyp/6-311g** Force nosymm scf=(qc)
 -----------------------------------------

 -------------------
 Title Card Required
 -------------------
 Symbolic Z-matrix:
 Charge =  0 Multiplicity = 2

                          Input orientation:
 ---------------------------------------------------------------------
 Center     Atomic      Atomic             Coordinates (Angstroms)
 Number     Number       Type             X           Y           Z
 ---------------------------------------------------------------------
      1          1           0        0.000000    0.000000    0.000000
      2          1           0       -2.950000    0.000000    0.000000
      3          9           0        0.550000    0.000000    0.000000
 ---------------------------------------------------------------------

 SCF Done:  E(UB3LYP) =  -100.519298771     a.u. after    6 cycles

 Alpha  occ. eigenvalues --  -24.62686  -1.38420  -0.62254  -0.43623  -0.43623
 Alpha  occ. eigenvalues --   -0.33719
 Alpha virt. eigenvalues --    0.08172   0.25616   0.60575   0.91207   0.91228
 Alpha virt. eigenvalues --    0.91228   1.22197   1.23807   1.23807   1.39900
 Alpha virt. eigenvalues --    1.54145   1.54145   1.96949   2.15059   3.65583

  Beta  occ. eigenvalues --  -24.62684  -1.38414  -0.62251  -0.43622  -0.43622
  Beta virt. eigenvalues --   -0.06120   0.09149   0.39208   0.60580   0.91223
  Beta virt. eigenvalues --    0.91223   0.91227   1.34770   1.50010   1.50010
  Beta virt. eigenvalues --    1.52892   1.54148   1.54148   1.96654   2.44954

 Mulliken charges and spin densities:
               1          2
     1  H    0.197981   0.001284
     2  H    0.002063   0.997416
     3  F   -0.200044   0.001300
 Sum of Mulliken charges =   0.00000   1.00000

 Dipole moment (field-independent basis, Debye):
    X=             -1.3871    Y=             -0.0000    Z=             -0.0000  Tot=              1.3871
 Quadrupole moment (field-independent basis, Debye-Ang):
   XX=             -6.7345   YY=             -6.4947   ZZ=             -6.4947
   XY=             -0.0000   XZ=             -0.0000   YZ=             -0.0000

  Exact polarizability:       3.824      -0.000       2.437      -0.000      -0.000       2.437
 Approx polarizability:       3.932      -0.000       2.417      -0.000      -0.000       2.417

 ******    2 imaginary frequencies (negative Signs) ******

                      1                      2                      3
                      A                      A                      A
 Frequencies --  -7487.0745             -7487.0745                29.2193
 Red. masses --      1.0429                 1.0429                 1.0532
 Frc consts  --     34.4428                34.4428                 0.0005
 IR Inten    --    252.6266               252.6266                 0.0842

                      4
                      A
 Frequencies --  15777.8848
 Red. masses --      1.0583
 Frc consts  --    155.2249
 IR Inten    --     92.6266

 - Thermochemistry -
 -------------------
 Temperature   298.150 Kelvin.  Pressure   1.00000 Atm.
 Atom     1 has atomic number  1 and mass   1.00783

 Molecular mass:    21.01405 amu.
 Principal axes and moments of inertia in atomic units:
                           1         2         3
     Eigenvalues --     0.00000  42.34537  42.34537
           X            1.00000  -0.00000   0.00000
           Y            0.00000   1.00000   0.00000
           Z            0.00000   0.00000   1.00000
 This molecule is a prolate symmetric top.
 Rotational symmetry number  1.
 Rotational temperature (Kelvin)      2.04542
 Rotational constant (GHZ):          42.619564
    2 imaginary frequencies ignored.
 Zero-point vibrational energy      94547.5 (Joules/Mol)
                                   22.59739 (Kcal/Mol)
 Warning -- explicit consideration of   1 degrees of freedom as
           vibrations may cause significant error
 Vibrational temperatures:     42.04 22700.86
          (Kelvin)

 Zero-point correction=                           0.036011 (Hartree/Particle)
 Thermal correction to Energy=                    0.039251
 Thermal correction to Enthalpy=                  0.040195
 Thermal correction to Gibbs Free Energy=         0.014436
 Sum of electronic and zero-point Energies=           -100.483288
 Sum of electronic and thermal Energies=              -100.480048
 Sum of electronic and thermal Enthalpies=            -100.479104
 Sum of electronic and thermal Free Energies=         -100.504863

                     E (Thermal)             CV                S
                      KCal/Mol        Cal/Mol-Kelvin    Cal/Mol-Kelvin
 Total                   24.630              6.952             54.215
 Electronic               0.000              0.000              1.377
 Translational            0.889              2.981             35.068
 Rotational               0.592              1.987             11.887
 Vibrational             23.149              1.984              5.882
 Vibration     1          0.593              1.984              5.882

 Normal termination of Gaussian 16 at Fri Aug 22 15:39:57 2025.
