 Gaussian 16, Revision C.01,
 Gaussian 16:  ES64L-G16RevC.01  3-Jul-2019

 -----------------------------------------
 # sp b3lyp/6-311g** Force nosymm scf=(qc)
 -----------------------------------------

 -------------------
 Title Card Required
 -------------------
 Symbolic Z-matrix:
 Charge =  0 Multiplicity = 2

                          Input orientation:
 ---------------------------------------------------------------------
 Center     Atomic      Atomic             Coordinates (Angstroms)
 Number     Number       Type             X           Y           Z
 ---------------------------------------------------------------------
      1          1           0        0.000000    0.000000    0.000000
      2          1           0       -0.550000    0.000000    0.000000
      3          9           0        1.100000    0.000000    0.000000
 ---------------------------------------------------------------------

 SCF Done:  E(UB3LYP) =  -100.867239380     a.u. after    7 cycles

 Alpha  occ. eigenvalues --  -24.68506  -1.19865  -0.65579  -0.42164  -0.42164
 Alpha  occ. eigenvalues --   -0.37026
 Alpha virt. eigenvalues --    0.13316   0.18620   0.62732   0.86878   0.86878
 Alpha virt. eigenvalues --    0.94394   1.13262   1.13262   1.51080   1.66635
 Alpha virt. eigenvalues --    1.85485   1.89271   1.89271   2.55758   3.78730

  Beta  occ. eigenvalues --  -24.66307  -1.14271  -0.57153  -0.40136  -0.40136
  Beta virt. eigenvalues --   -0.18061   0.14980   0.19268   0.66879   0.88542
  Beta virt. eigenvalues --    0.88542   0.98935   1.16640   1.16640   1.53696
  Beta virt. eigenvalues --    1.72610   1.86876   1.92374   1.92374   2.61313

 Mulliken charges and spin densities:
               1          2
     1  H    0.258730  -0.012782
     2  H   -0.054098   0.429041
     3  F   -0.204632   0.583742
 Sum of Mulliken charges =   0.00000   1.00000

 Dipole moment (field-independent basis, Debye):
    X=             -1.2488    Y=             -0.0000    Z=             -0.0000  Tot=              1.2488
 Quadrupole moment (field-independent basis, Debye-Ang):
   XX=             -7.1671   YY=             -6.4112   ZZ=             -6.4112
   XY=             -0.0000   XZ=             -0.0000   YZ=              0.0000

  Exact polarizability:      12.461       0.000       2.430      -0.000      -0.000       2.430
 Approx polarizability:      14.920       0.000       2.497       0.000      -0.000       2.497

 ******    2 imaginary frequencies (negative Signs) ******

                      1                      2                      3
                      A                      A                      A
 Frequencies --  -4099.3328             -4099.3328              1698.2968
 Red. masses --      1.0117                 1.0117                 1.1085
 Frc consts  --     10.0170                10.0170                 1.8836
 IR Inten    --      8.6093                 8.6093                 1.7775

                      4
                      A
 Frequencies --   7978.2484
 Red. masses --      1.0079
 Frc consts  --     37.7981
 IR Inten    --    242.4385

 - Thermochemistry -
 -------------------
 Temperature   298.150 Kelvin.  Pressure   1.00000 Atm.
 Atom     1 has atomic number  1 and mass   1.00783

 Molecular mass:    21.01405 amu.
 Principal axes and moments of inertia in atomic units:
                           1         2         3
     Eigenvalues --     0.00000  12.84776  12.84776
           X            1.00000  -0.00000   0.00000
           Y            0.00000   1.00000   0.00000
           Z            0.00000   0.00000   1.00000
 This molecule is a prolate symmetric top.
 Rotational symmetry number  1.
 Rotational temperature (Kelvin)      6.74156
 Rotational constant (GHZ):         140.471259
    2 imaginary frequencies ignored.
 Zero-point vibrational energy      57878.6 (Joules/Mol)
                                   13.83332 (Kcal/Mol)
 Vibrational temperatures:   2443.47 11478.92
          (Kelvin)

 Zero-point correction=                           0.022045 (Hartree/Particle)
 Thermal correction to Energy=                    0.024407
 Thermal correction to Enthalpy=                  0.025352
 Thermal correction to Gibbs Free Energy=         0.003511
 Sum of electronic and zero-point Energies=           -100.845195
 Sum of electronic and thermal Energies=              -100.842832
 Sum of electronic and thermal Enthalpies=            -100.841888
 Sum of electronic and thermal Free Energies=         -100.863729

                     E (Thermal)             CV                S
                      KCal/Mol        Cal/Mol-Kelvin    Cal/Mol-Kelvin
 Total                   15.316              5.005             45.968
 Electronic               0.000              0.000              1.377
 Translational            0.889              2.981             35.068
 Rotational               0.592              1.987              9.517
 Vibrational             13.835              0.037              0.005

 Normal termination of Gaussian 16 at Fri Aug 22 16:04:18 2025.
