 Gaussian 16, Revision C.01,
 Gaussian 16:  ES64L-G16RevC.01  3-Jul-2019

 -----------------------------------------
 # sp b3lyp/6-311g** Force nosymm scf=(qc)
 -----------------------------------------

 -------------------
 Title Card Required
 -------------------
 Symbolic Z-matrix:
 Charge =  0 Multiplicity = 2

                          Input orientation:
 ---------------------------------------------------------------------
 Center     Atomic      Atomic             Coordinates (Angstroms)
 Number     Number       Type             X           Y           Z
 ---------------------------------------------------------------------
      1          1           0        0.000000    0.000000    0.000000
      2          1           0       -2.850000    0.000000    0.000000
      3          9           0        0.900000    0.000000    0.000000
 ---------------------------------------------------------------------

 SCF Done:  E(UB3LYP) =  -100.971624898     a.u. after    5 cycles

 Alpha  occ. eigenvalues --  -24.63957  -1.19011  -0.53839  -0.39619  -0.39619
 Alpha  occ. eigenvalues --   -0.34284
 Alpha virt. eigenvalues --    0.03657   0.25259   0.39346   0.94368   0.94368
 Alpha virt. eigenvalues --    0.97759   1.21844   1.23252   1.23252   1.33823
 Alpha virt. eigenvalues --    1.37304   1.37304   2.01182   2.14570   2.37408

  Beta  occ. eigenvalues --  -24.63950  -1.18994  -0.53816  -0.39614  -0.39614
  Beta virt. eigenvalues --   -0.07632   0.04955   0.38052   0.39839   0.94369
  Beta virt. eigenvalues --    0.94369   0.97757   1.30201   1.37299   1.37299
  Beta virt. eigenvalues --    1.48086   1.48086   1.50451   2.01376   2.37186

 Mulliken charges and spin densities:
               1          2
     1  H    0.293559   0.001892
     2  H    0.003131   0.995726
     3  F   -0.296691   0.002382
 Sum of Mulliken charges =   0.00000   1.00000

 Dipole moment (field-independent basis, Debye):
    X=             -1.9269    Y=             -0.0000    Z=              0.0000  Tot=              1.9269
 Quadrupole moment (field-independent basis, Debye-Ang):
   XX=             -7.7882   YY=             -6.8669   ZZ=             -6.8669
   XY=              0.0000   XZ=              0.0000   YZ=              0.0000

  Exact polarizability:       6.603       0.000       2.440      -0.000      -0.000       2.440
 Approx polarizability:       7.385       0.000       2.420      -0.000      -0.000       2.420

 ******    3 imaginary frequencies (negative Signs) ******

                      1                      2                      3
                      A                      A                      A
 Frequencies --   -623.9848              -623.9848               -60.4917
 Red. masses --      1.0354                 1.0354                 1.0532
 Frc consts  --      0.2375                 0.2375                 0.0023
 IR Inten    --    174.4247               174.4247                 0.2660

                      4
                      A
 Frequencies --   4429.4278
 Red. masses --      1.0584
 Frc consts  --     12.2344
 IR Inten    --    112.7137

 - Thermochemistry -
 -------------------
 Temperature   298.150 Kelvin.  Pressure   1.00000 Atm.
 Atom     1 has atomic number  1 and mass   1.00783

 Molecular mass:    21.01405 amu.
 Principal axes and moments of inertia in atomic units:
                           1         2         3
     Eigenvalues --     0.00000  49.79406  49.79406
           X            1.00000  -0.00000   0.00000
           Y            0.00000   1.00000   0.00000
           Z            0.00000   0.00000   1.00000
 This molecule is a prolate symmetric top.
 Rotational symmetry number  1.
 Rotational temperature (Kelvin)      1.73944
 Rotational constant (GHZ):          36.244105
    3 imaginary frequencies ignored.
 Zero-point vibrational energy      26493.9 (Joules/Mol)
                                    6.33218 (Kcal/Mol)
 Vibrational temperatures:   6372.96
          (Kelvin)

 Zero-point correction=                           0.010091 (Hartree/Particle)
 Thermal correction to Energy=                    0.012451
 Thermal correction to Enthalpy=                  0.013396
 Thermal correction to Gibbs Free Energy=        -0.009722
 Sum of electronic and zero-point Energies=           -100.961534
 Sum of electronic and thermal Energies=              -100.959173
 Sum of electronic and thermal Enthalpies=            -100.958229
 Sum of electronic and thermal Free Energies=         -100.981347

                     E (Thermal)             CV                S
                      KCal/Mol        Cal/Mol-Kelvin    Cal/Mol-Kelvin
 Total                    7.813              4.968             48.655
 Electronic               0.000              0.000              1.377
 Translational            0.889              2.981             35.068
 Rotational               0.592              1.987             12.209
 Vibrational              6.332              0.000              0.000

 Normal termination of Gaussian 16 at Fri Aug 22 15:56:22 2025.
