 Gaussian 16, Revision C.01,
 Gaussian 16:  ES64L-G16RevC.01  3-Jul-2019

 -----------------------------------------
 # sp b3lyp/6-311g** Force nosymm scf=(qc)
 -----------------------------------------

 -------------------
 Title Card Required
 -------------------
 Symbolic Z-matrix:
 Charge =  0 Multiplicity = 2

                          Input orientation:
 ---------------------------------------------------------------------
 Center     Atomic      Atomic             Coordinates (Angstroms)
 Number     Number       Type             X           Y           Z
 ---------------------------------------------------------------------
      1          1           0        0.000000    0.000000    0.000000
      2          1           0       -1.650000    0.000000    0.000000
      3          9           0        1.100000    0.000000    0.000000
 ---------------------------------------------------------------------

 SCF Done:  E(UB3LYP) =  -100.951290877     a.u. after    6 cycles

 Alpha  occ. eigenvalues --  -24.63493  -1.13417  -0.50364  -0.37487  -0.37487
 Alpha  occ. eigenvalues --   -0.37209
 Alpha virt. eigenvalues --    0.03043   0.21856   0.30850   0.94029   0.94029
 Alpha virt. eigenvalues --    1.00043   1.10660   1.17846   1.17846   1.38362
 Alpha virt. eigenvalues --    1.38362   1.52385   1.86408   2.26977   2.35311

  Beta  occ. eigenvalues --  -24.63223  -1.12742  -0.48690  -0.37246  -0.37246
  Beta virt. eigenvalues --   -0.16082   0.06020   0.27488   0.34005   0.94107
  Beta virt. eigenvalues --    0.94107   1.00709   1.19490   1.29721   1.29721
  Beta virt. eigenvalues --    1.42966   1.42966   1.55700   1.94700   2.33260

 Mulliken charges and spin densities:
               1          2
     1  H    0.310440  -0.009027
     2  H    0.037005   0.932854
     3  F   -0.347444   0.076172
 Sum of Mulliken charges =   0.00000   1.00000

 Dipole moment (field-independent basis, Debye):
    X=             -2.5004    Y=             -0.0000    Z=             -0.0000  Tot=              2.5004
 Quadrupole moment (field-independent basis, Debye-Ang):
   XX=             -7.8566   YY=             -6.9485   ZZ=             -6.9485
   XY=             -0.0000   XZ=             -0.0000   YZ=              0.0000

  Exact polarizability:      14.983       0.000       2.461      -0.000       0.000       2.461
 Approx polarizability:      17.278       0.000       2.442      -0.000       0.000       2.442

 ******    1 imaginary frequencies (negative Signs) ******

                      1                      2                      3
                      A                      A                      A
 Frequencies --   -411.1453              1101.4567              1101.4567
 Red. masses --      1.0353                 1.0235                 1.0235
 Frc consts  --      0.1031                 0.7316                 0.7316
 IR Inten    --     15.4338                97.2749                97.2749

                      4
                      A
 Frequencies --   1637.7034
 Red. masses --      1.0771
 Frc consts  --      1.7020
 IR Inten    --    204.2103

 - Thermochemistry -
 -------------------
 Temperature   298.150 Kelvin.  Pressure   1.00000 Atm.
 Atom     1 has atomic number  1 and mass   1.00783

 Molecular mass:    21.01405 amu.
 Principal axes and moments of inertia in atomic units:
                           1         2         3
     Eigenvalues --     0.00000  29.01384  29.01384
           X            1.00000  -0.00000   0.00000
           Y            0.00000   1.00000   0.00000
           Z            0.00000   0.00000   1.00000
 This molecule is a prolate symmetric top.
 Rotational symmetry number  1.
 Rotational temperature (Kelvin)      2.98526
 Rotational constant (GHZ):          62.202777
    1 imaginary frequencies ignored.
 Zero-point vibrational energy      22972.0 (Joules/Mol)
                                    5.49044 (Kcal/Mol)
 Vibrational temperatures:   1584.75  1584.75  2356.29
          (Kelvin)

 Zero-point correction=                           0.008750 (Hartree/Particle)
 Thermal correction to Energy=                    0.011162
 Thermal correction to Enthalpy=                  0.012107
 Thermal correction to Gibbs Free Energy=        -0.010563
 Sum of electronic and zero-point Energies=           -100.942541
 Sum of electronic and thermal Energies=              -100.940129
 Sum of electronic and thermal Enthalpies=            -100.939184
 Sum of electronic and thermal Free Energies=         -100.961854

                     E (Thermal)             CV                S
                      KCal/Mol        Cal/Mol-Kelvin    Cal/Mol-Kelvin
 Total                    7.004              5.571             47.712
 Electronic               0.000              0.000              1.377
 Translational            0.889              2.981             35.068
 Rotational               0.592              1.987             11.136
 Vibrational              5.523              0.603              0.130

 Normal termination of Gaussian 16 at Fri Aug 22 16:05:05 2025.
