 Gaussian 16, Revision C.01,
 Gaussian 16:  ES64L-G16RevC.01  3-Jul-2019

 -----------------------------------------
 # sp b3lyp/6-311g** Force nosymm scf=(qc)
 -----------------------------------------

 -------------------
 Title Card Required
 -------------------
 Symbolic Z-matrix:
 Charge =  0 Multiplicity = 2

                          Input orientation:
 ---------------------------------------------------------------------
 Center     Atomic      Atomic             Coordinates (Angstroms)
 Number     Number       Type             X           Y           Z
 ---------------------------------------------------------------------
      1          1           0        0.000000    0.000000    0.000000
      2          1           0       -2.650000    0.000000    0.000000
      3          9           0        3.550000    0.000000    0.000000
 ---------------------------------------------------------------------

 SCF Done:  E(UB3LYP) =  -100.761561304     a.u. after   27 cycles

 Alpha  occ. eigenvalues --  -24.75508  -1.21462  -0.54631  -0.45870  -0.45870
 Alpha  occ. eigenvalues --   -0.32567
 Alpha virt. eigenvalues --   -0.08995   0.25518   0.34859   0.87453   0.91402
 Alpha virt. eigenvalues --    0.91402   1.01669   1.25033   1.25033   1.26498
 Alpha virt. eigenvalues --    1.42289   1.42289   1.43101   2.15983   2.37827

  Beta  occ. eigenvalues --  -24.72388  -1.12494  -0.42742  -0.42742  -0.32885
  Beta virt. eigenvalues --   -0.25555  -0.08527   0.25310   0.35555   0.92894
  Beta virt. eigenvalues --    0.92894   0.96650   1.05719   1.24660   1.24660
  Beta virt. eigenvalues --    1.26063   1.43016   1.43016   1.43829   2.16374

 Mulliken charges and spin densities:
               1          2
     1  H    0.007989  -0.969886
     2  H    0.001449   0.980432
     3  F   -0.009437   0.989455
 Sum of Mulliken charges =   0.00000   1.00000

 Dipole moment (field-independent basis, Debye):
    X=             -0.1905    Y=              0.0000    Z=              0.0000  Tot=              0.1905
 Quadrupole moment (field-independent basis, Debye-Ang):
   XX=             -7.1238   YY=             -7.6536   ZZ=             -7.6536
   XY=              0.0000   XZ=              0.0000   YZ=             -0.0000

  Exact polarizability:      28.930       0.000       2.032       0.000       0.000       2.032
 Approx polarizability:      21.694       0.000       1.930       0.000       0.000       1.930

 ******    2 imaginary frequencies (negative Signs) ******

                      1                      2                      3
                      A                      A                      A
 Frequencies --   -545.4863              -132.2006               195.2831
 Red. masses --      1.0082                 1.1080                 1.0148
 Frc consts  --      0.1768                 0.0114                 0.0228
 IR Inten    --      5.1622                 4.7891                 0.0427

                      4
                      A
 Frequencies --    195.2832
 Red. masses --      1.0148
 Frc consts  --      0.0228
 IR Inten    --      0.0427

 - Thermochemistry -
 -------------------
 Temperature   298.150 Kelvin.  Pressure   1.00000 Atm.
 Atom     1 has atomic number  1 and mass   1.00783

 Molecular mass:    21.01405 amu.
 Principal axes and moments of inertia in atomic units:
                           1         2         3
     Eigenvalues --     0.00000 167.29395 167.29395
           X            1.00000  -0.00000   0.00000
           Y            0.00000   1.00000   0.00000
           Z            0.00000   0.00000   1.00000
 This molecule is a prolate symmetric top.
 Rotational symmetry number  1.
 Rotational temperature (Kelvin)      0.51773
 Rotational constant (GHZ):          10.787845
    2 imaginary frequencies ignored.
 Zero-point vibrational energy       2336.1 (Joules/Mol)
                                    0.55834 (Kcal/Mol)
 Warning -- explicit consideration of   2 degrees of freedom as
           vibrations may cause significant error
 Vibrational temperatures:    280.97   280.97
          (Kelvin)

 Zero-point correction=                           0.000890 (Hartree/Particle)
 Thermal correction to Energy=                    0.004387
 Thermal correction to Enthalpy=                  0.005331
 Thermal correction to Gibbs Free Energy=        -0.021000
 Sum of electronic and zero-point Energies=           -100.760672
 Sum of electronic and thermal Energies=              -100.757175
 Sum of electronic and thermal Enthalpies=            -100.756231
 Sum of electronic and thermal Free Energies=         -100.782561

                     E (Thermal)             CV                S
                      KCal/Mol        Cal/Mol-Kelvin    Cal/Mol-Kelvin
 Total                    2.753              8.661             55.417
 Electronic               0.000              0.000              1.377
 Translational            0.889              2.981             35.068
 Rotational               0.592              1.987             14.618
 Vibrational              1.271              3.693              4.354
 Vibration     1          0.636              1.846              2.177
 Vibration     2          0.636              1.846              2.177

 Normal termination of Gaussian 16 at Fri Aug 22 22:40:01 2025.
