 Gaussian 16, Revision C.01,
 Gaussian 16:  ES64L-G16RevC.01  3-Jul-2019

 -----------------------------------------
 # sp b3lyp/6-311g** Force nosymm scf=(qc)
 -----------------------------------------

 -------------------
 Title Card Required
 -------------------
 Symbolic Z-matrix:
 Charge =  0 Multiplicity = 2

                          Input orientation:
 ---------------------------------------------------------------------
 Center     Atomic      Atomic             Coordinates (Angstroms)
 Number     Number       Type             X           Y           Z
 ---------------------------------------------------------------------
      1          1           0        0.000000    0.000000    0.000000
      2          1           0       -1.600000    0.000000    0.000000
      3          9           0        1.350000    0.000000    0.000000
 ---------------------------------------------------------------------

 SCF Done:  E(UB3LYP) =  -100.899505560     a.u. after   11 cycles

 Alpha  occ. eigenvalues --  -24.63633  -1.10732  -0.47288  -0.37866  -0.36400
 Alpha  occ. eigenvalues --   -0.36400
 Alpha virt. eigenvalues --   -0.04720   0.21214   0.28428   0.93641   0.93641
 Alpha virt. eigenvalues --    1.00989   1.03153   1.16513   1.16513   1.38436
 Alpha virt. eigenvalues --    1.38436   1.50694   1.78792   2.17353   2.37860

  Beta  occ. eigenvalues --  -24.62889  -1.08798  -0.43683  -0.35703  -0.35703
  Beta virt. eigenvalues --   -0.19680  -0.01004   0.25218   0.30926   0.93664
  Beta virt. eigenvalues --    0.93664   1.04326   1.07923   1.26221   1.26221
  Beta virt. eigenvalues --    1.41433   1.41433   1.55336   1.83864   2.24214

 Mulliken charges and spin densities:
               1          2
     1  H    0.297278  -0.097548
     2  H    0.061499   0.870309
     3  F   -0.358777   0.227239
 Sum of Mulliken charges =   0.00000   1.00000

 Dipole moment (field-independent basis, Debye):
    X=             -2.9274    Y=              0.0000    Z=             -0.0000  Tot=              2.9274
 Quadrupole moment (field-independent basis, Debye-Ang):
   XX=             -8.2376   YY=             -7.1318   ZZ=             -7.1318
   XY=              0.0000   XZ=             -0.0000   YZ=              0.0000

  Exact polarizability:      25.699       0.000       2.353      -0.000       0.000       2.353
 Approx polarizability:      34.664       0.000       2.308      -0.000       0.000       2.308

 ******    2 imaginary frequencies (negative Signs) ******

                      1                      2                      3
                      A                      A                      A
 Frequencies --  -2086.4295              -173.0880              1090.1643
 Red. masses --      1.0243                 1.0892                 1.0201
 Frc consts  --      2.6272                 0.0192                 0.7143
 IR Inten    --     11.4080                12.6747                56.7671

                      4
                      A
 Frequencies --   1090.1643
 Red. masses --      1.0201
 Frc consts  --      0.7143
 IR Inten    --     56.7671

 - Thermochemistry -
 -------------------
 Temperature   298.150 Kelvin.  Pressure   1.00000 Atm.
 Atom     1 has atomic number  1 and mass   1.00783

 Molecular mass:    21.01405 amu.
 Principal axes and moments of inertia in atomic units:
                           1         2         3
     Eigenvalues --     0.00000  34.68806  34.68806
           X            1.00000  -0.00000   0.00000
           Y            0.00000   1.00000   0.00000
           Z            0.00000   0.00000   1.00000
 This molecule is a prolate symmetric top.
 Rotational symmetry number  1.
 Rotational temperature (Kelvin)      2.49694
 Rotational constant (GHZ):          52.027731
    2 imaginary frequencies ignored.
 Zero-point vibrational energy      13041.3 (Joules/Mol)
                                    3.11694 (Kcal/Mol)
 Vibrational temperatures:   1568.50  1568.50
          (Kelvin)

 Zero-point correction=                           0.004967 (Hartree/Particle)
 Thermal correction to Energy=                    0.007379
 Thermal correction to Enthalpy=                  0.008324
 Thermal correction to Gibbs Free Energy=        -0.014514
 Sum of electronic and zero-point Energies=           -100.894538
 Sum of electronic and thermal Energies=              -100.892126
 Sum of electronic and thermal Enthalpies=            -100.891182
 Sum of electronic and thermal Free Energies=         -100.914020

                     E (Thermal)             CV                S
                      KCal/Mol        Cal/Mol-Kelvin    Cal/Mol-Kelvin
 Total                    4.631              5.545             48.066
 Electronic               0.000              0.000              1.377
 Translational            0.889              2.981             35.068
 Rotational               0.592              1.987             11.491
 Vibrational              3.149              0.577              0.130

 Normal termination of Gaussian 16 at Fri Aug 22 16:17:18 2025.
