 Gaussian 16, Revision C.01,
 Gaussian 16:  ES64L-G16RevC.01  3-Jul-2019

 -----------------------------------------
 # sp b3lyp/6-311g** Force nosymm scf=(qc)
 -----------------------------------------

 -------------------
 Title Card Required
 -------------------
 Symbolic Z-matrix:
 Charge =  0 Multiplicity = 2

                          Input orientation:
 ---------------------------------------------------------------------
 Center     Atomic      Atomic             Coordinates (Angstroms)
 Number     Number       Type             X           Y           Z
 ---------------------------------------------------------------------
      1          1           0        0.000000    0.000000    0.000000
      2          1           0       -2.150000    0.000000    0.000000
      3          9           0        1.800000    0.000000    0.000000
 ---------------------------------------------------------------------

 SCF Done:  E(UB3LYP) =  -100.812485310     a.u. after   17 cycles

 Alpha  occ. eigenvalues --  -24.66303  -1.12555  -0.45325  -0.38089  -0.38089
 Alpha  occ. eigenvalues --   -0.36504
 Alpha virt. eigenvalues --   -0.13873   0.23737   0.29414   0.92725   0.95027
 Alpha virt. eigenvalues --    0.95027   1.05732   1.21266   1.21266   1.27783
 Alpha virt. eigenvalues --    1.33796   1.33796   1.68901   2.11069   2.27529

  Beta  occ. eigenvalues --  -24.64357  -1.07194  -0.38810  -0.36190  -0.36190
  Beta virt. eigenvalues --   -0.19935  -0.10712   0.25266   0.32748   0.94496
  Beta virt. eigenvalues --    0.95137   0.95137   1.08527   1.24657   1.24657
  Beta virt. eigenvalues --    1.37790   1.37790   1.42034   1.65116   2.12542

 Mulliken charges and spin densities:
               1          2
     1  H    0.214495  -0.541634
     2  H    0.038866   0.930377
     3  F   -0.253361   0.611257
 Sum of Mulliken charges =   0.00000   1.00000

 Dipole moment (field-independent basis, Debye):
    X=             -2.6336    Y=             -0.0000    Z=              0.0000  Tot=              2.6336
 Quadrupole moment (field-independent basis, Debye-Ang):
   XX=             -9.0658   YY=             -7.4735   ZZ=             -7.4735
   XY=             -0.0000   XZ=              0.0000   YZ=             -0.0000

  Exact polarizability:      40.460      -0.000       2.106       0.000      -0.000       2.106
 Approx polarizability:      50.652      -0.000       2.008       0.000      -0.000       2.008

 ******    2 imaginary frequencies (negative Signs) ******

                      1                      2                      3
                      A                      A                      A
 Frequencies --  -1683.2336              -532.3718               702.7772
 Red. masses --      1.0370                 1.0752                 1.0202
 Frc consts  --      1.7311                 0.1795                 0.2969
 IR Inten    --     92.2099                19.0090                33.2135

                      4
                      A
 Frequencies --    702.7772
 Red. masses --      1.0202
 Frc consts  --      0.2969
 IR Inten    --     33.2135

 - Thermochemistry -
 -------------------
 Temperature   298.150 Kelvin.  Pressure   1.00000 Atm.
 Atom     1 has atomic number  1 and mass   1.00783

 Molecular mass:    21.01405 amu.
 Principal axes and moments of inertia in atomic units:
                           1         2         3
     Eigenvalues --     0.00000  62.10750  62.10750
           X            1.00000  -0.00000   0.00000
           Y            0.00000   1.00000   0.00000
           Z            0.00000   0.00000   1.00000
 This molecule is a prolate symmetric top.
 Rotational symmetry number  1.
 Rotational temperature (Kelvin)      1.39458
 Rotational constant (GHZ):          29.058345
    2 imaginary frequencies ignored.
 Zero-point vibrational energy       8407.1 (Joules/Mol)
                                    2.00934 (Kcal/Mol)
 Vibrational temperatures:   1011.14  1011.14
          (Kelvin)

 Zero-point correction=                           0.003202 (Hartree/Particle)
 Thermal correction to Energy=                    0.005786
 Thermal correction to Enthalpy=                  0.006730
 Thermal correction to Gibbs Free Energy=        -0.016884
 Sum of electronic and zero-point Energies=           -100.809283
 Sum of electronic and thermal Energies=              -100.806700
 Sum of electronic and thermal Enthalpies=            -100.805755
 Sum of electronic and thermal Free Energies=         -100.829369

                     E (Thermal)             CV                S
                      KCal/Mol        Cal/Mol-Kelvin    Cal/Mol-Kelvin
 Total                    3.631              6.616             49.700
 Electronic               0.000              0.000              1.377
 Translational            0.889              2.981             35.068
 Rotational               0.592              1.987             12.649
 Vibrational              2.149              1.648              0.606

 Normal termination of Gaussian 16 at Fri Aug 22 16:43:39 2025.
