 Gaussian 16, Revision C.01,
 Gaussian 16:  ES64L-G16RevC.01  3-Jul-2019

 -----------------------------------------
 # sp b3lyp/6-311g** Force nosymm scf=(qc)
 -----------------------------------------

 -------------------
 Title Card Required
 -------------------
 Symbolic Z-matrix:
 Charge =  0 Multiplicity = 2

                          Input orientation:
 ---------------------------------------------------------------------
 Center     Atomic      Atomic             Coordinates (Angstroms)
 Number     Number       Type             X           Y           Z
 ---------------------------------------------------------------------
      1          1           0        0.000000    0.000000    0.000000
      2          1           0       -0.650000    0.000000    0.000000
      3          9           0        2.400000    0.000000    0.000000
 ---------------------------------------------------------------------

 SCF Done:  E(UB3LYP) =  -100.926956892     a.u. after   47 cycles

 Alpha  occ. eigenvalues --  -24.76949  -1.22730  -0.55898  -0.47815  -0.47044
 Alpha  occ. eigenvalues --   -0.44291
 Alpha virt. eigenvalues --    0.09082   0.20196   0.51310   0.85539   0.90391
 Alpha virt. eigenvalues --    0.93498   1.09957   1.09992   1.13516   1.60270
 Alpha virt. eigenvalues --    1.85526   1.89753   1.89783   2.40450   3.64303

  Beta  occ. eigenvalues --  -24.73784  -1.13636  -0.45950  -0.43871  -0.42979
  Beta virt. eigenvalues --   -0.26507   0.09195   0.20275   0.51407   0.91881
  Beta virt. eigenvalues --    0.94950   0.95356   1.09990   1.09995   1.17088
  Beta virt. eigenvalues --    1.60291   1.85532   1.89755   1.89781   2.40468

 Mulliken charges and spin densities:
               1          2
     1  H   -0.009523  -0.002304
     2  H   -0.007383  -0.000298
     3  F    0.016907   1.002603
 Sum of Mulliken charges =   0.00000   1.00000

 Dipole moment (field-independent basis, Debye):
    X=              0.1657    Y=              0.0000    Z=             -0.0000  Tot=              0.1657
 Quadrupole moment (field-independent basis, Debye-Ang):
   XX=             -6.0045   YY=             -5.9596   ZZ=             -6.8226
   XY=              0.0000   XZ=             -0.0000   YZ=              0.0038

  Exact polarizability:       7.636       0.000       2.378       0.000       0.002       1.948
 Approx polarizability:       8.295       0.000       2.585      -0.000       0.002       2.032

 ******    2 imaginary frequencies (negative Signs) ******

                      1                      2                      3
                      A                      A                      A
 Frequencies --  -1998.8336             -1934.5262               260.7598
 Red. masses --      1.0092                 1.0092                 1.1085
 Frc consts  --      2.3757                 2.2253                 0.0444
 IR Inten    --      0.0505                 0.0627                 0.7228

                      4
                      A
 Frequencies --   5977.5720
 Red. masses --      1.0078
 Frc consts  --     21.2171
 IR Inten    --      4.5412

 - Thermochemistry -
 -------------------
 Temperature   298.150 Kelvin.  Pressure   1.00000 Atm.
 Atom     1 has atomic number  1 and mass   1.00783

 Molecular mass:    21.01405 amu.
 Principal axes and moments of inertia in atomic units:
                           1         2         3
     Eigenvalues --     0.00000  49.08321  49.08321
           X            1.00000  -0.00000   0.00000
           Y            0.00000   1.00000   0.00000
           Z            0.00000   0.00000   1.00000
 This molecule is a prolate symmetric top.
 Rotational symmetry number  1.
 Rotational temperature (Kelvin)      1.76463
 Rotational constant (GHZ):          36.769014
    2 imaginary frequencies ignored.
 Zero-point vibrational energy      37313.5 (Joules/Mol)
                                    8.91814 (Kcal/Mol)
 Warning -- explicit consideration of   1 degrees of freedom as
           vibrations may cause significant error
 Vibrational temperatures:    375.18  8600.39
          (Kelvin)

 Zero-point correction=                           0.014212 (Hartree/Particle)
 Thermal correction to Energy=                    0.017044
 Thermal correction to Enthalpy=                  0.017988
 Thermal correction to Gibbs Free Energy=        -0.005903
 Sum of electronic and zero-point Energies=           -100.912745
 Sum of electronic and thermal Energies=              -100.909913
 Sum of electronic and thermal Enthalpies=            -100.908969
 Sum of electronic and thermal Free Energies=         -100.932860

                     E (Thermal)             CV                S
                      KCal/Mol        Cal/Mol-Kelvin    Cal/Mol-Kelvin
 Total                   10.695              6.713             50.283
 Electronic               0.000              0.000              1.377
 Translational            0.889              2.981             35.068
 Rotational               0.592              1.987             12.181
 Vibrational              9.214              1.745              1.657
 Vibration     1          0.669              1.745              1.657

 Normal termination of Gaussian 16 at Fri Aug 22 17:29:34 2025.
