 Gaussian 16, Revision C.01,
 Gaussian 16:  ES64L-G16RevC.01  3-Jul-2019

 -----------------------------------------
 # sp b3lyp/6-311g** Force nosymm scf=(qc)
 -----------------------------------------

 -------------------
 Title Card Required
 -------------------
 Symbolic Z-matrix:
 Charge =  0 Multiplicity = 2

                          Input orientation:
 ---------------------------------------------------------------------
 Center     Atomic      Atomic             Coordinates (Angstroms)
 Number     Number       Type             X           Y           Z
 ---------------------------------------------------------------------
      1          1           0        0.000000    0.000000    0.000000
      2          1           0       -1.700000    0.000000    0.000000
      3          9           0        2.200000    0.000000    0.000000
 ---------------------------------------------------------------------

 SCF Done:  E(UB3LYP) =  -100.807924015     a.u. after   18 cycles

 Alpha  occ. eigenvalues --  -24.70417  -1.16702  -0.49603  -0.41600  -0.41600
 Alpha  occ. eigenvalues --   -0.36565
 Alpha virt. eigenvalues --   -0.12405   0.23577   0.31192   0.86212   0.94117
 Alpha virt. eigenvalues --    0.94117   1.02962   1.20282   1.20282   1.22428
 Alpha virt. eigenvalues --    1.35159   1.35159   1.66657   2.14315   2.39059

  Beta  occ. eigenvalues --  -24.67728  -1.09098  -0.38930  -0.38930  -0.36311
  Beta virt. eigenvalues --   -0.23227  -0.11341   0.25912   0.30605   0.90409
  Beta virt. eigenvalues --    0.95301   0.95301   1.06857   1.21501   1.21501
  Beta virt. eigenvalues --    1.27099   1.35988   1.35988   1.67268   2.15157

 Mulliken charges and spin densities:
               1          2
     1  H    0.072983  -0.545424
     2  H    0.051351   0.698530
     3  F   -0.124334   0.846894
 Sum of Mulliken charges =  -0.00000   1.00000

 Dipole moment (field-independent basis, Debye):
    X=             -1.7940    Y=             -0.0000    Z=              0.0000  Tot=              1.7940
 Quadrupole moment (field-independent basis, Debye-Ang):
   XX=             -7.9322   YY=             -7.6165   ZZ=             -7.6165
   XY=              0.0000   XZ=             -0.0000   YZ=              0.0000

  Exact polarizability:      58.223       0.000       2.048      -0.000      -0.000       2.048
 Approx polarizability:      77.963      -0.000       1.987       0.000       0.000       1.987

 ******    2 imaginary frequencies (negative Signs) ******

                      1                      2                      3
                      A                      A                      A
 Frequencies --  -1942.8431              -478.4813               865.1512
 Red. masses --      1.0099                 1.1060                 1.0151
 Frc consts  --      2.2460                 0.1492                 0.4477
 IR Inten    --    321.3599                43.4444                 1.8842

                      4
                      A
 Frequencies --    865.1512
 Red. masses --      1.0151
 Frc consts  --      0.4477
 IR Inten    --      1.8842

 - Thermochemistry -
 -------------------
 Temperature   298.150 Kelvin.  Pressure   1.00000 Atm.
 Atom     1 has atomic number  1 and mass   1.00783

 Molecular mass:    21.01405 amu.
 Principal axes and moments of inertia in atomic units:
                           1         2         3
     Eigenvalues --     0.00000  65.73742  65.73742
           X            1.00000  -0.00000   0.00000
           Y            0.00000   1.00000   0.00000
           Z            0.00000   0.00000   1.00000
 This molecule is a prolate symmetric top.
 Rotational symmetry number  1.
 Rotational temperature (Kelvin)      1.31757
 Rotational constant (GHZ):          27.453789
    2 imaginary frequencies ignored.
 Zero-point vibrational energy      10349.5 (Joules/Mol)
                                    2.47359 (Kcal/Mol)
 Vibrational temperatures:   1244.76  1244.76
          (Kelvin)

 Zero-point correction=                           0.003942 (Hartree/Particle)
 Thermal correction to Energy=                    0.006425
 Thermal correction to Enthalpy=                  0.007370
 Thermal correction to Gibbs Free Energy=        -0.016162
 Sum of electronic and zero-point Energies=           -100.803982
 Sum of electronic and thermal Energies=              -100.801499
 Sum of electronic and thermal Enthalpies=            -100.800554
 Sum of electronic and thermal Free Energies=         -100.824086

                     E (Thermal)             CV                S
                      KCal/Mol        Cal/Mol-Kelvin    Cal/Mol-Kelvin
 Total                    4.032              6.067             49.528
 Electronic               0.000              0.000              1.377
 Translational            0.889              2.981             35.068
 Rotational               0.592              1.987             12.761
 Vibrational              2.551              1.099              0.321

 Normal termination of Gaussian 16 at Fri Aug 22 17:11:23 2025.
