 Gaussian 16, Revision C.01,
 Gaussian 16:  ES64L-G16RevC.01  3-Jul-2019

 -----------------------------------------
 # sp b3lyp/6-311g** Force nosymm scf=(qc)
 -----------------------------------------

 -------------------
 Title Card Required
 -------------------
 Symbolic Z-matrix:
 Charge =  0 Multiplicity = 2

                          Input orientation:
 ---------------------------------------------------------------------
 Center     Atomic      Atomic             Coordinates (Angstroms)
 Number     Number       Type             X           Y           Z
 ---------------------------------------------------------------------
      1          1           0        0.000000    0.000000    0.000000
      2          1           0       -2.600000    0.000000    0.000000
      3          9           0        2.900000    0.000000    0.000000
 ---------------------------------------------------------------------

 SCF Done:  E(UB3LYP) =  -100.764672921     a.u. after   22 cycles

 Alpha  occ. eigenvalues --  -24.73756  -1.19837  -0.52872  -0.44396  -0.44396
 Alpha  occ. eigenvalues --   -0.33087
 Alpha virt. eigenvalues --   -0.10401   0.25167   0.33772   0.89847   0.92476
 Alpha virt. eigenvalues --    0.92476   1.04568   1.24529   1.24529   1.26430
 Alpha virt. eigenvalues --    1.40178   1.40178   1.41638   2.15493   2.36791

  Beta  occ. eigenvalues --  -24.70754  -1.11239  -0.41392  -0.41392  -0.34037
  Beta virt. eigenvalues --   -0.24599  -0.08937   0.25425   0.35207   0.93928
  Beta virt. eigenvalues --    0.93928   0.98461   1.08393   1.23413   1.23413
  Beta virt. eigenvalues --    1.25382   1.42535   1.42535   1.43642   2.16240

 Mulliken charges and spin densities:
               1          2
     1  H    0.038766  -0.929135
     2  H    0.005128   0.977991
     3  F   -0.043894   0.951145
 Sum of Mulliken charges =   0.00000   1.00000

 Dipole moment (field-independent basis, Debye):
    X=             -0.7165    Y=              0.0000    Z=             -0.0000  Tot=              0.7165
 Quadrupole moment (field-independent basis, Debye-Ang):
   XX=             -8.1951   YY=             -7.6388   ZZ=             -7.6388
   XY=              0.0000   XZ=             -0.0000   YZ=             -0.0000

  Exact polarizability:      42.046       0.000       2.015      -0.000       0.000       2.015
 Approx polarizability:      40.174       0.000       1.921      -0.000      -0.000       1.921

 ******    2 imaginary frequencies (negative Signs) ******

                      1                      2                      3
                      A                      A                      A
 Frequencies --   -642.0230              -248.2582               241.9711
 Red. masses --      1.0130                 1.1023                 1.0167
 Frc consts  --      0.2460                 0.0400                 0.0351
 IR Inten    --     30.3913                18.0837                 1.2297

                      4
                      A
 Frequencies --    241.9711
 Red. masses --      1.0167
 Frc consts  --      0.0351
 IR Inten    --      1.2297

 - Thermochemistry -
 -------------------
 Temperature   298.150 Kelvin.  Pressure   1.00000 Atm.
 Atom     1 has atomic number  1 and mass   1.00783

 Molecular mass:    21.01405 amu.
 Principal axes and moments of inertia in atomic units:
                           1         2         3
     Eigenvalues --     0.00000 126.95853 126.95853
           X            1.00000  -0.00000   0.00000
           Y            0.00000   1.00000   0.00000
           Z            0.00000   0.00000   1.00000
 This molecule is a prolate symmetric top.
 Rotational symmetry number  1.
 Rotational temperature (Kelvin)      0.68222
 Rotational constant (GHZ):          14.215203
    2 imaginary frequencies ignored.
 Zero-point vibrational energy       2894.6 (Joules/Mol)
                                    0.69183 (Kcal/Mol)
 Warning -- explicit consideration of   2 degrees of freedom as
           vibrations may cause significant error
 Vibrational temperatures:    348.14   348.14
          (Kelvin)

 Zero-point correction=                           0.001103 (Hartree/Particle)
 Thermal correction to Energy=                    0.004459
 Thermal correction to Enthalpy=                  0.005403
 Thermal correction to Gibbs Free Energy=        -0.020298
 Sum of electronic and zero-point Energies=           -100.763570
 Sum of electronic and thermal Energies=              -100.760214
 Sum of electronic and thermal Enthalpies=            -100.759270
 Sum of electronic and thermal Free Energies=         -100.784971

                     E (Thermal)             CV                S
                      KCal/Mol        Cal/Mol-Kelvin    Cal/Mol-Kelvin
 Total                    2.798              8.520             54.092
 Electronic               0.000              0.000              1.377
 Translational            0.889              2.981             35.068
 Rotational               0.592              1.987             14.069
 Vibrational              1.317              3.552              3.577
 Vibration     1          0.658              1.776              1.788
 Vibration     2          0.658              1.776              1.788

 Normal termination of Gaussian 16 at Fri Aug 22 19:03:50 2025.
