 Gaussian 16, Revision C.01,
 Gaussian 16:  ES64L-G16RevC.01  3-Jul-2019

 -----------------------------------------
 # sp b3lyp/6-311g** Force nosymm scf=(qc)
 -----------------------------------------

 -------------------
 Title Card Required
 -------------------
 Symbolic Z-matrix:
 Charge =  0 Multiplicity = 2

                          Input orientation:
 ---------------------------------------------------------------------
 Center     Atomic      Atomic             Coordinates (Angstroms)
 Number     Number       Type             X           Y           Z
 ---------------------------------------------------------------------
      1          1           0        0.000000    0.000000    0.000000
      2          1           0       -1.350000    0.000000    0.000000
      3          9           0        0.650000    0.000000    0.000000
 ---------------------------------------------------------------------

 SCF Done:  E(UB3LYP) =  -100.788946576     a.u. after    7 cycles

 Alpha  occ. eigenvalues --  -24.63285  -1.32053  -0.61283  -0.42744  -0.42744
 Alpha  occ. eigenvalues --   -0.35711
 Alpha virt. eigenvalues --    0.14623   0.21089   0.59900   0.91853   0.91853
 Alpha virt. eigenvalues --    0.93219   1.14888   1.14888   1.43478   1.54857
 Alpha virt. eigenvalues --    1.54857   1.65586   1.96092   2.25020   3.48757

  Beta  occ. eigenvalues --  -24.63118  -1.31547  -0.60333  -0.42617  -0.42617
  Beta virt. eigenvalues --   -0.12463   0.15676   0.28790   0.64968   0.92217
  Beta virt. eigenvalues --    0.92217   0.93590   1.26845   1.26845   1.45701
  Beta virt. eigenvalues --    1.59837   1.59837   1.77036   1.96324   2.46771

 Mulliken charges and spin densities:
               1          2
     1  H    0.243074   0.013188
     2  H    0.007602   0.965474
     3  F   -0.250677   0.021339
 Sum of Mulliken charges =   0.00000   1.00000

 Dipole moment (field-independent basis, Debye):
    X=             -1.4759    Y=              0.0000    Z=              0.0000  Tot=              1.4759
 Quadrupole moment (field-independent basis, Debye-Ang):
   XX=             -7.0517   YY=             -6.5030   ZZ=             -6.5030
   XY=              0.0000   XZ=              0.0000   YZ=              0.0000

  Exact polarizability:       6.956      -0.000       2.540       0.000      -0.000       2.540
 Approx polarizability:       6.706      -0.000       2.563       0.000      -0.000       2.563

 ******    2 imaginary frequencies (negative Signs) ******

                      1                      2                      3
                      A                      A                      A
 Frequencies --  -4475.0787             -4475.0787              1125.9126
 Red. masses --      1.0287                 1.0287                 1.0537
 Frc consts  --     12.1374                12.1374                 0.7870
 IR Inten    --    153.3549               153.3549                13.4004

                      4
                      A
 Frequencies --  10858.3357
 Red. masses --      1.0579
 Frc consts  --     73.4872
 IR Inten    --    116.6839

 - Thermochemistry -
 -------------------
 Temperature   298.150 Kelvin.  Pressure   1.00000 Atm.
 Atom     1 has atomic number  1 and mass   1.00783

 Molecular mass:    21.01405 amu.
 Principal axes and moments of inertia in atomic units:
                           1         2         3
     Eigenvalues --     0.00000  14.70448  14.70448
           X            1.00000  -0.00000   0.00000
           Y            0.00000   1.00000   0.00000
           Z            0.00000   0.00000   1.00000
 This molecule is a prolate symmetric top.
 Rotational symmetry number  1.
 Rotational temperature (Kelvin)      5.89031
 Rotational constant (GHZ):         122.734079
    2 imaginary frequencies ignored.
 Zero-point vibrational energy      71681.7 (Joules/Mol)
                                   17.13234 (Kcal/Mol)
 Vibrational temperatures:   1619.94 15622.72
          (Kelvin)

 Zero-point correction=                           0.027302 (Hartree/Particle)
 Thermal correction to Energy=                    0.029685
 Thermal correction to Enthalpy=                  0.030629
 Thermal correction to Gibbs Free Energy=         0.008637
 Sum of electronic and zero-point Energies=           -100.761644
 Sum of electronic and thermal Energies=              -100.759261
 Sum of electronic and thermal Enthalpies=            -100.758317
 Sum of electronic and thermal Free Energies=         -100.780310

                     E (Thermal)             CV                S
                      KCal/Mol        Cal/Mol-Kelvin    Cal/Mol-Kelvin
 Total                   18.628              5.227             46.287
 Electronic               0.000              0.000              1.377
 Translational            0.889              2.981             35.068
 Rotational               0.592              1.987              9.786
 Vibrational             17.146              0.259              0.056

 Normal termination of Gaussian 16 at Fri Aug 22 15:43:37 2025.
