 Gaussian 16, Revision C.01,
 Gaussian 16:  ES64L-G16RevC.01  3-Jul-2019

 -----------------------------------------
 # sp b3lyp/6-311g** Force nosymm scf=(qc)
 -----------------------------------------

 -------------------
 Title Card Required
 -------------------
 Symbolic Z-matrix:
 Charge =  0 Multiplicity = 2

                          Input orientation:
 ---------------------------------------------------------------------
 Center     Atomic      Atomic             Coordinates (Angstroms)
 Number     Number       Type             X           Y           Z
 ---------------------------------------------------------------------
      1          1           0        0.000000    0.000000    0.000000
      2          1           0       -1.750000    0.000000    0.000000
      3          9           0        1.800000    0.000000    0.000000
 ---------------------------------------------------------------------

 SCF Done:  E(UB3LYP) =  -100.826787264     a.u. after   13 cycles

 Alpha  occ. eigenvalues --  -24.66766  -1.13131  -0.46266  -0.38532  -0.38532
 Alpha  occ. eigenvalues --   -0.37903
 Alpha virt. eigenvalues --   -0.12116   0.22715   0.29800   0.88003   0.94716
 Alpha virt. eigenvalues --    0.94716   1.03685   1.19278   1.19278   1.32434
 Alpha virt. eigenvalues --    1.34906   1.34906   1.73466   2.14276   2.34908

  Beta  occ. eigenvalues --  -24.64684  -1.07378  -0.38593  -0.36495  -0.36495
  Beta virt. eigenvalues --   -0.21569  -0.09983   0.25468   0.30190   0.90914
  Beta virt. eigenvalues --    0.95036   0.95036   1.07620   1.23699   1.23699
  Beta virt. eigenvalues --    1.35545   1.35545   1.39650   1.74147   2.15244

 Mulliken charges and spin densities:
               1          2
     1  H    0.173389  -0.456206
     2  H    0.062900   0.803464
     3  F   -0.236289   0.652742
 Sum of Mulliken charges =   0.00000   1.00000

 Dipole moment (field-independent basis, Debye):
    X=             -2.6181    Y=              0.0000    Z=              0.0000  Tot=              2.6181
 Quadrupole moment (field-independent basis, Debye-Ang):
   XX=             -8.4398   YY=             -7.4649   ZZ=             -7.4649
   XY=              0.0000   XZ=              0.0000   YZ=             -0.0000

  Exact polarizability:      47.042       0.000       2.133       0.000      -0.000       2.133
 Approx polarizability:      64.025      -0.000       2.052      -0.000      -0.000       2.052

 ******    2 imaginary frequencies (negative Signs) ******

                      1                      2                      3
                      A                      A                      A
 Frequencies --  -2082.9587              -618.6300               857.9142
 Red. masses --      1.0201                 1.0941                 1.0176
 Frc consts  --      2.6076                 0.2467                 0.4413
 IR Inten    --    281.0710                11.5244                15.4992

                      4
                      A
 Frequencies --    857.9142
 Red. masses --      1.0176
 Frc consts  --      0.4413
 IR Inten    --     15.4992

 - Thermochemistry -
 -------------------
 Temperature   298.150 Kelvin.  Pressure   1.00000 Atm.
 Atom     1 has atomic number  1 and mass   1.00783

 Molecular mass:    21.01405 amu.
 Principal axes and moments of inertia in atomic units:
                           1         2         3
     Eigenvalues --     0.00000  52.07685  52.07685
           X            1.00000  -0.00000   0.00000
           Y            0.00000   1.00000   0.00000
           Z            0.00000   0.00000   1.00000
 This molecule is a prolate symmetric top.
 Rotational symmetry number  1.
 Rotational temperature (Kelvin)      1.66319
 Rotational constant (GHZ):          34.655344
    2 imaginary frequencies ignored.
 Zero-point vibrational energy      10262.9 (Joules/Mol)
                                    2.45290 (Kcal/Mol)
 Vibrational temperatures:   1234.35  1234.35
          (Kelvin)

 Zero-point correction=                           0.003909 (Hartree/Particle)
 Thermal correction to Energy=                    0.006396
 Thermal correction to Enthalpy=                  0.007340
 Thermal correction to Gibbs Free Energy=        -0.015977
 Sum of electronic and zero-point Energies=           -100.822878
 Sum of electronic and thermal Energies=              -100.820391
 Sum of electronic and thermal Enthalpies=            -100.819447
 Sum of electronic and thermal Free Energies=         -100.842764

                     E (Thermal)             CV                S
                      KCal/Mol        Cal/Mol-Kelvin    Cal/Mol-Kelvin
 Total                    4.013              6.088             49.074
 Electronic               0.000              0.000              1.377
 Translational            0.889              2.981             35.068
 Rotational               0.592              1.987             12.299
 Vibrational              2.532              1.120              0.330

 Normal termination of Gaussian 16 at Fri Aug 22 16:43:17 2025.
