 Gaussian 16, Revision C.01,
 Gaussian 16:  ES64L-G16RevC.01  3-Jul-2019

 -----------------------------------------
 # sp b3lyp/6-311g** Force nosymm scf=(qc)
 -----------------------------------------

 -------------------
 Title Card Required
 -------------------
 Symbolic Z-matrix:
 Charge =  0 Multiplicity = 2

                          Input orientation:
 ---------------------------------------------------------------------
 Center     Atomic      Atomic             Coordinates (Angstroms)
 Number     Number       Type             X           Y           Z
 ---------------------------------------------------------------------
      1          1           0        0.000000    0.000000    0.000000
      2          1           0       -2.250000    0.000000    0.000000
      3          9           0        2.700000    0.000000    0.000000
 ---------------------------------------------------------------------

 SCF Done:  E(UB3LYP) =  -100.771446831     a.u. after   21 cycles

 Alpha  occ. eigenvalues --  -24.72896  -1.19031  -0.52006  -0.43669  -0.43669
 Alpha  occ. eigenvalues --   -0.33856
 Alpha virt. eigenvalues --   -0.11921   0.25198   0.32737   0.90342   0.92990
 Alpha virt. eigenvalues --    0.92990   1.05805   1.23939   1.23939   1.25021
 Alpha virt. eigenvalues --    1.37250   1.37250   1.42750   2.13351   2.34381

  Beta  occ. eigenvalues --  -24.69958  -1.10638  -0.40734  -0.40734  -0.34580
  Beta virt. eigenvalues --   -0.24120  -0.10490   0.26121   0.33604   0.94414
  Beta virt. eigenvalues --    0.94414   0.98458   1.09420   1.23104   1.23104
  Beta virt. eigenvalues --    1.25170   1.39607   1.39607   1.44360   2.14178

 Mulliken charges and spin densities:
               1          2
     1  H    0.047184  -0.867997
     2  H    0.014921   0.938326
     3  F   -0.062105   0.929670
 Sum of Mulliken charges =  -0.00000   1.00000

 Dipole moment (field-independent basis, Debye):
    X=             -1.0181    Y=             -0.0000    Z=              0.0000  Tot=              1.0181
 Quadrupole moment (field-independent basis, Debye-Ang):
   XX=             -8.2192   YY=             -7.6561   ZZ=             -7.6561
   XY=             -0.0000   XZ=              0.0000   YZ=              0.0000

  Exact polarizability:      52.630      -0.000       2.008       0.000       0.000       2.008
 Approx polarizability:      51.313      -0.000       1.920       0.000       0.000       1.920

 ******    2 imaginary frequencies (negative Signs) ******

                      1                      2                      3
                      A                      A                      A
 Frequencies --  -1002.4114              -321.9371               388.9637
 Red. masses --      1.0098                 1.1061                 1.0159
 Frc consts  --      0.5978                 0.0675                 0.0906
 IR Inten    --     36.1757                36.5063                 1.5225

                      4
                      A
 Frequencies --    388.9637
 Red. masses --      1.0159
 Frc consts  --      0.0906
 IR Inten    --      1.5225

 - Thermochemistry -
 -------------------
 Temperature   298.150 Kelvin.  Pressure   1.00000 Atm.
 Atom     1 has atomic number  1 and mass   1.00783

 Molecular mass:    21.01405 amu.
 Principal axes and moments of inertia in atomic units:
                           1         2         3
     Eigenvalues --     0.00000 104.32009 104.32009
           X            1.00000  -0.00000   0.00000
           Y            0.00000   1.00000   0.00000
           Z            0.00000   0.00000   1.00000
 This molecule is a prolate symmetric top.
 Rotational symmetry number  1.
 Rotational temperature (Kelvin)      0.83027
 Rotational constant (GHZ):          17.300035
    2 imaginary frequencies ignored.
 Zero-point vibrational energy       4653.0 (Joules/Mol)
                                    1.11210 (Kcal/Mol)
 Warning -- explicit consideration of   2 degrees of freedom as
           vibrations may cause significant error
 Vibrational temperatures:    559.63   559.63
          (Kelvin)

 Zero-point correction=                           0.001772 (Hartree/Particle)
 Thermal correction to Energy=                    0.004773
 Thermal correction to Enthalpy=                  0.005717
 Thermal correction to Gibbs Free Energy=        -0.019053
 Sum of electronic and zero-point Energies=           -100.769675
 Sum of electronic and thermal Energies=              -100.766674
 Sum of electronic and thermal Enthalpies=            -100.765729
 Sum of electronic and thermal Free Energies=         -100.790499

                     E (Thermal)             CV                S
                      KCal/Mol        Cal/Mol-Kelvin    Cal/Mol-Kelvin
 Total                    2.995              7.956             52.133
 Electronic               0.000              0.000              1.377
 Translational            0.889              2.981             35.068
 Rotational               0.592              1.987             13.679
 Vibrational              1.514              2.988              2.008
 Vibration     1          0.757              1.494              1.004
 Vibration     2          0.757              1.494              1.004

 Normal termination of Gaussian 16 at Fri Aug 22 18:25:39 2025.
