 Gaussian 16, Revision C.01,
 Gaussian 16:  ES64L-G16RevC.01  3-Jul-2019

 -----------------------------------------
 # sp b3lyp/6-311g** Force nosymm scf=(qc)
 -----------------------------------------

 -------------------
 Title Card Required
 -------------------
 Symbolic Z-matrix:
 Charge =  0 Multiplicity = 2

                          Input orientation:
 ---------------------------------------------------------------------
 Center     Atomic      Atomic             Coordinates (Angstroms)
 Number     Number       Type             X           Y           Z
 ---------------------------------------------------------------------
      1          1           0        0.000000    0.000000    0.000000
      2          1           0       -2.800000    0.000000    0.000000
      3          9           0        0.500000    0.000000    0.000000
 ---------------------------------------------------------------------

 SCF Done:  E(UB3LYP) =  -100.269048728     a.u. after    6 cycles

 Alpha  occ. eigenvalues --  -24.63018  -1.42332  -0.63500  -0.44317  -0.44317
 Alpha  occ. eigenvalues --   -0.33819
 Alpha virt. eigenvalues --    0.08749   0.25733   0.62573   0.89031   0.90174
 Alpha virt. eigenvalues --    0.90174   1.21233   1.23715   1.23715   1.43377
 Alpha virt. eigenvalues --    1.58530   1.58530   2.00365   2.14899   3.76649

  Beta  occ. eigenvalues --  -24.63015  -1.42324  -0.63497  -0.44316  -0.44316
  Beta virt. eigenvalues --   -0.06566   0.09836   0.38996   0.62308   0.89071
  Beta virt. eigenvalues --    0.90164   0.90164   1.34868   1.48632   1.48632
  Beta virt. eigenvalues --    1.54515   1.58533   1.58533   1.99968   2.45142

 Mulliken charges and spin densities:
               1          2
     1  H    0.121824   0.001704
     2  H    0.002783   0.996703
     3  F   -0.124607   0.001593
 Sum of Mulliken charges =   0.00000   1.00000

 Dipole moment (field-independent basis, Debye):
    X=             -1.3258    Y=             -0.0000    Z=             -0.0000  Tot=              1.3258
 Quadrupole moment (field-independent basis, Debye-Ang):
   XX=             -6.5532   YY=             -6.4369   ZZ=             -6.4369
   XY=             -0.0000   XZ=             -0.0000   YZ=              0.0000

  Exact polarizability:       3.843       0.000       2.425       0.000      -0.000       2.425
 Approx polarizability:       3.890      -0.000       2.405       0.000      -0.000       2.405

 ******    2 imaginary frequencies (negative Signs) ******

                      1                      2                      3
                      A                      A                      A
 Frequencies --  -9563.9268             -9563.9268                62.0772
 Red. masses --      1.0434                 1.0434                 1.0532
 Frc consts  --     56.2299                56.2299                 0.0024
 IR Inten    --    274.0542               274.0542                 0.0967

                      4
                      A
 Frequencies --  19159.0901
 Red. masses --      1.0583
 Frc consts  --    228.8827
 IR Inten    --     81.3170

 - Thermochemistry -
 -------------------
 Temperature   298.150 Kelvin.  Pressure   1.00000 Atm.
 Atom     1 has atomic number  1 and mass   1.00783

 Molecular mass:    21.01405 amu.
 Principal axes and moments of inertia in atomic units:
                           1         2         3
     Eigenvalues --     0.00000  37.60051  37.60051
           X            1.00000  -0.00000   0.00000
           Y            0.00000   1.00000   0.00000
           Z            0.00000   0.00000   1.00000
 This molecule is a prolate symmetric top.
 Rotational symmetry number  1.
 Rotational temperature (Kelvin)      2.30353
 Rotational constant (GHZ):          47.997784
    2 imaginary frequencies ignored.
 Zero-point vibrational energy     114968.1 (Joules/Mol)
                                   27.47804 (Kcal/Mol)
 Warning -- explicit consideration of   1 degrees of freedom as
           vibrations may cause significant error
 Vibrational temperatures:     89.32 27565.66
          (Kelvin)

 Zero-point correction=                           0.043789 (Hartree/Particle)
 Thermal correction to Energy=                    0.046959
 Thermal correction to Enthalpy=                  0.047904
 Thermal correction to Gibbs Free Energy=         0.022965
 Sum of electronic and zero-point Energies=           -100.225260
 Sum of electronic and thermal Energies=              -100.222089
 Sum of electronic and thermal Enthalpies=            -100.221145
 Sum of electronic and thermal Free Energies=         -100.246083

                     E (Thermal)             CV                S
                      KCal/Mol        Cal/Mol-Kelvin    Cal/Mol-Kelvin
 Total                   29.467              6.940             52.487
 Electronic               0.000              0.000              1.377
 Translational            0.889              2.981             35.068
 Rotational               0.592              1.987             11.651
 Vibrational             27.986              1.972              4.390
 Vibration     1          0.597              1.972              4.390

 Normal termination of Gaussian 16 at Fri Aug 22 15:37:28 2025.
