 Gaussian 16, Revision C.01,
 Gaussian 16:  ES64L-G16RevC.01  3-Jul-2019

 -----------------------------------------
 # sp b3lyp/6-311g** Force nosymm scf=(qc)
 -----------------------------------------

 -------------------
 Title Card Required
 -------------------
 Symbolic Z-matrix:
 Charge =  0 Multiplicity = 2

                          Input orientation:
 ---------------------------------------------------------------------
 Center     Atomic      Atomic             Coordinates (Angstroms)
 Number     Number       Type             X           Y           Z
 ---------------------------------------------------------------------
      1          1           0        0.000000    0.000000    0.000000
      2          1           0       -0.950000    0.000000    0.000000
      3          9           0        2.700000    0.000000    0.000000
 ---------------------------------------------------------------------

 SCF Done:  E(UB3LYP) =  -100.914851772     a.u. after    7 cycles

 Alpha  occ. eigenvalues --  -24.76019  -1.21927  -0.55181  -0.46307  -0.46307
 Alpha  occ. eigenvalues --   -0.40238
 Alpha virt. eigenvalues --    0.01334   0.20971   0.40432   0.89913   0.91021
 Alpha virt. eigenvalues --    0.91021   1.08067   1.08067   1.08266   1.40883
 Alpha virt. eigenvalues --    1.68386   1.68386   2.22248   2.37332   2.64088

  Beta  occ. eigenvalues --  -24.72894  -1.12946  -0.43175  -0.43175  -0.40180
  Beta virt. eigenvalues --   -0.26164   0.01661   0.21186   0.40843   0.92503
  Beta virt. eigenvalues --    0.92503   0.98406   1.08178   1.08178   1.12673
  Beta virt. eigenvalues --    1.41012   1.68469   1.68469   2.22420   2.37448

 Mulliken charges and spin densities:
               1          2
     1  H   -0.011387  -0.009018
     2  H    0.014929   0.019787
     3  F   -0.003542   0.989231
 Sum of Mulliken charges =   0.00000   1.00000

 Dipole moment (field-independent basis, Debye):
    X=             -0.1246    Y=             -0.0000    Z=              0.0000  Tot=              0.1246
 Quadrupole moment (field-independent basis, Debye-Ang):
   XX=             -5.6240   YY=             -7.2071   ZZ=             -7.2071
   XY=             -0.0000   XZ=              0.0000   YZ=              0.0000

  Exact polarizability:      17.185      -0.000       2.055       0.000      -0.000       2.055
 Approx polarizability:      19.779       0.000       2.113       0.000      -0.000       2.113

 ******    1 imaginary frequencies (negative Signs) ******

                      1                      2                      3
                      A                      A                      A
 Frequencies --   -131.3512              1500.6767              1500.6767
 Red. masses --      1.1085                 1.0100                 1.0100
 Frc consts  --      0.0113                 1.3402                 1.3402
 IR Inten    --      3.1411                 0.1825                 0.1825

                      4
                      A
 Frequencies --   2172.1749
 Red. masses --      1.0078
 Frc consts  --      2.8017
 IR Inten    --     33.1571

 - Thermochemistry -
 -------------------
 Temperature   298.150 Kelvin.  Pressure   1.00000 Atm.
 Atom     1 has atomic number  1 and mass   1.00783

 Molecular mass:    21.01405 amu.
 Principal axes and moments of inertia in atomic units:
                           1         2         3
     Eigenvalues --     0.00000  67.22462  67.22462
           X            1.00000  -0.00000   0.00000
           Y            0.00000   1.00000   0.00000
           Z            0.00000   0.00000   1.00000
 This molecule is a prolate symmetric top.
 Rotational symmetry number  1.
 Rotational temperature (Kelvin)      1.28843
 Rotational constant (GHZ):          26.846432
    1 imaginary frequencies ignored.
 Zero-point vibrational energy      30944.6 (Joules/Mol)
                                    7.39593 (Kcal/Mol)
 Vibrational temperatures:   2159.14  2159.14  3125.28
          (Kelvin)

 Zero-point correction=                           0.011786 (Hartree/Particle)
 Thermal correction to Energy=                    0.014157
 Thermal correction to Enthalpy=                  0.015101
 Thermal correction to Gibbs Free Energy=        -0.008311
 Sum of electronic and zero-point Energies=           -100.903066
 Sum of electronic and thermal Energies=              -100.900695
 Sum of electronic and thermal Enthalpies=            -100.899751
 Sum of electronic and thermal Free Energies=         -100.923163

                     E (Thermal)             CV                S
                      KCal/Mol        Cal/Mol-Kelvin    Cal/Mol-Kelvin
 Total                    8.883              5.124             49.275
 Electronic               0.000              0.000              1.377
 Translational            0.889              2.981             35.068
 Rotational               0.592              1.987             12.806
 Vibrational              7.402              0.156              0.024

 Normal termination of Gaussian 16 at Fri Aug 22 18:19:32 2025.
