 Gaussian 16, Revision C.01,
 Gaussian 16:  ES64L-G16RevC.01  3-Jul-2019

 -----------------------------------------
 # sp b3lyp/6-311g** Force nosymm scf=(qc)
 -----------------------------------------

 -------------------
 Title Card Required
 -------------------
 Symbolic Z-matrix:
 Charge =  0 Multiplicity = 2

                          Input orientation:
 ---------------------------------------------------------------------
 Center     Atomic      Atomic             Coordinates (Angstroms)
 Number     Number       Type             X           Y           Z
 ---------------------------------------------------------------------
      1          1           0        0.000000    0.000000    0.000000
      2          1           0       -1.550000    0.000000    0.000000
      3          9           0        3.350000    0.000000    0.000000
 ---------------------------------------------------------------------

 SCF Done:  E(UB3LYP) =  -100.812942353     a.u. after  105 cycles

 Alpha  occ. eigenvalues --  -24.76447  -1.22312  -0.55511  -0.46712  -0.46664
 Alpha  occ. eigenvalues --   -0.33367
 Alpha virt. eigenvalues --   -0.09993   0.25226   0.30458   0.85895   0.90771
 Alpha virt. eigenvalues --    0.92336   1.01614   1.06941   1.21491   1.21494
 Alpha virt. eigenvalues --    1.40430   1.40434   1.78421   2.20977   2.45664

  Beta  occ. eigenvalues --  -24.73292  -1.13237  -0.43557  -0.43500  -0.33358
  Beta virt. eigenvalues --   -0.26151  -0.10018   0.25241   0.30534   0.92272
  Beta virt. eigenvalues --    0.93820   0.95360   1.05644   1.06949   1.21480
  Beta virt. eigenvalues --    1.21484   1.40424   1.40427   1.78483   2.21187

 Mulliken charges and spin densities:
               1          2
     1  H    0.000299  -0.332831
     2  H   -0.003917   0.332627
     3  F    0.003618   1.000204
 Sum of Mulliken charges =  -0.00000   1.00000

 Dipole moment (field-independent basis, Debye):
    X=              0.0641    Y=             -0.0000    Z=              0.0000  Tot=              0.0641
 Quadrupole moment (field-independent basis, Debye-Ang):
   XX=             -6.3022   YY=             -7.3373   ZZ=             -7.3379
   XY=             -0.0000   XZ=              0.0000   YZ=             -0.4321

  Exact polarizability:      23.472      -0.000       2.266       0.000      -0.233       2.266
 Approx polarizability:      42.623      -0.000       2.312       0.000      -0.291       2.311

 ******    2 imaginary frequencies (negative Signs) ******

                      1                      2                      3
                      A                      A                      A
 Frequencies --  -2128.4058               -30.2931              1135.5826
 Red. masses --      1.0078                 1.1085                 1.0113
 Frc consts  --      2.6900                 0.0006                 0.7683
 IR Inten    --      0.1085                 0.2759                 0.0033

                      4
                      A
 Frequencies --   1135.6019
 Red. masses --      1.0113
 Frc consts  --      0.7684
 IR Inten    --      0.0032

 - Thermochemistry -
 -------------------
 Temperature   298.150 Kelvin.  Pressure   1.00000 Atm.
 Atom     1 has atomic number  1 and mass   1.00783

 Molecular mass:    21.01405 amu.
 Principal axes and moments of inertia in atomic units:
                           1         2         3
     Eigenvalues --     0.00000 115.05401 115.05401
           X            1.00000  -0.00000   0.00000
           Y            0.00000   1.00000   0.00000
           Z            0.00000   0.00000   1.00000
 This molecule is a prolate symmetric top.
 Rotational symmetry number  1.
 Rotational temperature (Kelvin)      0.75281
 Rotational constant (GHZ):          15.686035
    2 imaginary frequencies ignored.
 Zero-point vibrational energy      13584.7 (Joules/Mol)
                                    3.24682 (Kcal/Mol)
 Vibrational temperatures:   1633.85  1633.88
          (Kelvin)

 Zero-point correction=                           0.005174 (Hartree/Particle)
 Thermal correction to Energy=                    0.007578
 Thermal correction to Enthalpy=                  0.008522
 Thermal correction to Gibbs Free Energy=        -0.015437
 Sum of electronic and zero-point Energies=           -100.807768
 Sum of electronic and thermal Energies=              -100.805364
 Sum of electronic and thermal Enthalpies=            -100.804420
 Sum of electronic and thermal Free Energies=         -100.828380

                     E (Thermal)             CV                S
                      KCal/Mol        Cal/Mol-Kelvin    Cal/Mol-Kelvin
 Total                    4.755              5.470             50.427
 Electronic               0.000              0.000              1.377
 Translational            0.889              2.981             35.068
 Rotational               0.592              1.987             13.874
 Vibrational              3.274              0.502              0.108

 Normal termination of Gaussian 16 at Fri Aug 22 20:59:46 2025.
