 Gaussian 16, Revision C.01,
 Gaussian 16:  ES64L-G16RevC.01  3-Jul-2019

 -----------------------------------------
 # sp b3lyp/6-311g** Force nosymm scf=(qc)
 -----------------------------------------

 -------------------
 Title Card Required
 -------------------
 Symbolic Z-matrix:
 Charge =  0 Multiplicity = 2

                          Input orientation:
 ---------------------------------------------------------------------
 Center     Atomic      Atomic             Coordinates (Angstroms)
 Number     Number       Type             X           Y           Z
 ---------------------------------------------------------------------
      1          1           0        0.000000    0.000000    0.000000
      2          1           0       -2.350000    0.000000    0.000000
      3          9           0        2.000000    0.000000    0.000000
 ---------------------------------------------------------------------

 SCF Done:  E(UB3LYP) =  -100.792378274     a.u. after   14 cycles

 Alpha  occ. eigenvalues --  -24.68082  -1.14402  -0.47086  -0.39616  -0.39616
 Alpha  occ. eigenvalues --   -0.35277
 Alpha virt. eigenvalues --   -0.13865   0.24102   0.30823   0.89630   0.94989
 Alpha virt. eigenvalues --    0.94989   1.06138   1.22438   1.22438   1.26585
 Alpha virt. eigenvalues --    1.34671   1.34671   1.59847   2.12796   2.28658

  Beta  occ. eigenvalues --  -24.65711  -1.07774  -0.37635  -0.37279  -0.37279
  Beta virt. eigenvalues --   -0.20898  -0.10490   0.25281   0.33891   0.91966
  Beta virt. eigenvalues --    0.95661   0.95661   1.08788   1.22539   1.22539
  Beta virt. eigenvalues --    1.39850   1.39850   1.42509   1.53690   2.12838

 Mulliken charges and spin densities:
               1          2
     1  H    0.167579  -0.700867
     2  H    0.024483   0.955415
     3  F   -0.192061   0.745452
 Sum of Mulliken charges =  -0.00000   1.00000

 Dipole moment (field-independent basis, Debye):
    X=             -2.1769    Y=             -0.0000    Z=              0.0000  Tot=              2.1769
 Quadrupole moment (field-independent basis, Debye-Ang):
   XX=             -9.2333   YY=             -7.5307   ZZ=             -7.5307
   XY=              0.0000   XZ=              0.0000   YZ=              0.0000

  Exact polarizability:      41.012       0.000       2.058       0.000      -0.000       2.058
 Approx polarizability:      48.628       0.000       1.953      -0.000      -0.000       1.953

 ******    2 imaginary frequencies (negative Signs) ******

                      1                      2                      3
                      A                      A                      A
 Frequencies --  -1273.0502              -457.5851               532.7268
 Red. masses --      1.0366                 1.0757                 1.0200
 Frc consts  --      0.9898                 0.1327                 0.1706
 IR Inten    --     87.2444                22.9255                21.9276

                      4
                      A
 Frequencies --    532.7268
 Red. masses --      1.0200
 Frc consts  --      0.1706
 IR Inten    --     21.9276

 - Thermochemistry -
 -------------------
 Temperature   298.150 Kelvin.  Pressure   1.00000 Atm.
 Atom     1 has atomic number  1 and mass   1.00783

 Molecular mass:    21.01405 amu.
 Principal axes and moments of inertia in atomic units:
                           1         2         3
     Eigenvalues --     0.00000  75.53833  75.53833
           X            1.00000  -0.00000   0.00000
           Y            0.00000   1.00000   0.00000
           Z            0.00000   0.00000   1.00000
 This molecule is a prolate symmetric top.
 Rotational symmetry number  1.
 Rotational temperature (Kelvin)      1.14662
 Rotational constant (GHZ):          23.891727
    2 imaginary frequencies ignored.
 Zero-point vibrational energy       6372.8 (Joules/Mol)
                                    1.52314 (Kcal/Mol)
 Warning -- explicit consideration of   2 degrees of freedom as
           vibrations may cause significant error
 Vibrational temperatures:    766.48   766.48
          (Kelvin)

 Zero-point correction=                           0.002427 (Hartree/Particle)
 Thermal correction to Energy=                    0.005190
 Thermal correction to Enthalpy=                  0.006134
 Thermal correction to Gibbs Free Energy=        -0.017929
 Sum of electronic and zero-point Energies=           -100.789951
 Sum of electronic and thermal Energies=              -100.787189
 Sum of electronic and thermal Enthalpies=            -100.786244
 Sum of electronic and thermal Free Energies=         -100.810308

                     E (Thermal)             CV                S
                      KCal/Mol        Cal/Mol-Kelvin    Cal/Mol-Kelvin
 Total                    3.257              7.323             50.645
 Electronic               0.000              0.000              1.377
 Translational            0.889              2.981             35.068
 Rotational               0.592              1.987             13.038
 Vibrational              1.775              2.355              1.162
 Vibration     1          0.888              1.178              0.581
 Vibration     2          0.888              1.178              0.581

 Normal termination of Gaussian 16 at Fri Aug 22 16:56:48 2025.
