 Gaussian 16, Revision C.01,
 Gaussian 16:  ES64L-G16RevC.01  3-Jul-2019

 -----------------------------------------
 # sp b3lyp/6-311g** Force nosymm scf=(qc)
 -----------------------------------------

 -------------------
 Title Card Required
 -------------------
 Symbolic Z-matrix:
 Charge =  0 Multiplicity = 2

                          Input orientation:
 ---------------------------------------------------------------------
 Center     Atomic      Atomic             Coordinates (Angstroms)
 Number     Number       Type             X           Y           Z
 ---------------------------------------------------------------------
      1          1           0        0.000000    0.000000    0.000000
      2          1           0       -3.350000    0.000000    0.000000
      3          9           0        3.500000    0.000000    0.000000
 ---------------------------------------------------------------------

 SCF Done:  E(UB3LYP) =  -100.759297900     a.u. after   34 cycles

 Alpha  occ. eigenvalues --  -24.75388  -1.21351  -0.54511  -0.45768  -0.45768
 Alpha  occ. eigenvalues --   -0.32365
 Alpha virt. eigenvalues --   -0.07282   0.24442   0.36779   0.87605   0.91480
 Alpha virt. eigenvalues --    0.91480   1.01816   1.25146   1.25146   1.25401
 Alpha virt. eigenvalues --    1.44794   1.44928   1.44928   2.15231   2.40730

  Beta  occ. eigenvalues --  -24.72274  -1.12403  -0.42647  -0.42647  -0.32838
  Beta virt. eigenvalues --   -0.25485  -0.06740   0.24215   0.37685   0.92969
  Beta virt. eigenvalues --    0.92969   0.96742   1.05827   1.24602   1.24602
  Beta virt. eigenvalues --    1.24834   1.45564   1.45801   1.45801   2.15460

 Mulliken charges and spin densities:
               1          2
     1  H    0.011235  -0.984261
     2  H    0.000269   0.996927
     3  F   -0.011504   0.987334
 Sum of Mulliken charges =   0.00000   1.00000

 Dipole moment (field-independent basis, Debye):
    X=             -0.2114    Y=             -0.0000    Z=             -0.0000  Tot=              0.2114
 Quadrupole moment (field-independent basis, Debye-Ang):
   XX=             -7.3790   YY=             -7.6244   ZZ=             -7.6244
   XY=             -0.0000   XZ=             -0.0000   YZ=              0.0000

  Exact polarizability:      24.177      -0.000       2.034      -0.000       0.000       2.034
 Approx polarizability:      19.068      -0.000       1.933      -0.000      -0.000       1.933

 ******    2 imaginary frequencies (negative Signs) ******

                      1                      2                      3
                      A                      A                      A
 Frequencies --   -267.4641              -113.7155                85.9628
 Red. masses --      1.0207                 1.0934                 1.0174
 Frc consts  --      0.0430                 0.0083                 0.0044
 IR Inten    --      9.5771                 2.0416                 0.1095

                      4
                      A
 Frequencies --     85.9629
 Red. masses --      1.0174
 Frc consts  --      0.0044
 IR Inten    --      0.1095

 - Thermochemistry -
 -------------------
 Temperature   298.150 Kelvin.  Pressure   1.00000 Atm.
 Atom     1 has atomic number  1 and mass   1.00783

 Molecular mass:    21.01405 amu.
 Principal axes and moments of inertia in atomic units:
                           1         2         3
     Eigenvalues --     0.00000 194.47225 194.47225
           X            1.00000  -0.00000   0.00000
           Y            0.00000   1.00000   0.00000
           Z            0.00000   0.00000   1.00000
 This molecule is a prolate symmetric top.
 Rotational symmetry number  1.
 Rotational temperature (Kelvin)      0.44538
 Rotational constant (GHZ):           9.280199
    2 imaginary frequencies ignored.
 Zero-point vibrational energy       1028.3 (Joules/Mol)
                                    0.24578 (Kcal/Mol)
 Warning -- explicit consideration of   2 degrees of freedom as
           vibrations may cause significant error
 Vibrational temperatures:    123.68   123.68
          (Kelvin)

 Zero-point correction=                           0.000392 (Hartree/Particle)
 Thermal correction to Energy=                    0.004276
 Thermal correction to Enthalpy=                  0.005220
 Thermal correction to Gibbs Free Energy=        -0.022747
 Sum of electronic and zero-point Energies=           -100.758906
 Sum of electronic and thermal Energies=              -100.755022
 Sum of electronic and thermal Enthalpies=            -100.754078
 Sum of electronic and thermal Free Energies=         -100.782045

                     E (Thermal)             CV                S
                      KCal/Mol        Cal/Mol-Kelvin    Cal/Mol-Kelvin
 Total                    2.683              8.886             58.862
 Electronic               0.000              0.000              1.377
 Translational            0.889              2.981             35.068
 Rotational               0.592              1.987             14.917
 Vibrational              1.202              3.918              7.500
 Vibration     1          0.601              1.959              3.750
 Vibration     2          0.601              1.959              3.750

 Normal termination of Gaussian 16 at Fri Aug 22 22:11:06 2025.
