 Gaussian 16, Revision C.01,
 Gaussian 16:  ES64L-G16RevC.01  3-Jul-2019

 -----------------------------------------
 # sp b3lyp/6-311g** Force nosymm scf=(qc)
 -----------------------------------------

 -------------------
 Title Card Required
 -------------------
 Symbolic Z-matrix:
 Charge =  0 Multiplicity = 2

                          Input orientation:
 ---------------------------------------------------------------------
 Center     Atomic      Atomic             Coordinates (Angstroms)
 Number     Number       Type             X           Y           Z
 ---------------------------------------------------------------------
      1          1           0        0.000000    0.000000    0.000000
      2          1           0       -3.450000    0.000000    0.000000
      3          9           0        2.300000    0.000000    0.000000
 ---------------------------------------------------------------------

 SCF Done:  E(UB3LYP) =  -100.772933448     a.u. after   13 cycles

 Alpha  occ. eigenvalues --  -24.70471  -1.16752  -0.49549  -0.41650  -0.41650
 Alpha  occ. eigenvalues --   -0.33124
 Alpha virt. eigenvalues --   -0.11555   0.23157   0.34268   0.88808   0.94224
 Alpha virt. eigenvalues --    0.94224   1.06223   1.24390   1.24390   1.24572
 Alpha virt. eigenvalues --    1.38572   1.38572   1.48528   2.14356   2.33981

  Beta  occ. eigenvalues --  -24.67759  -1.09074  -0.38955  -0.38955  -0.36258
  Beta virt. eigenvalues --   -0.22474  -0.06938   0.23635   0.37829   0.92951
  Beta virt. eigenvalues --    0.95441   0.95441   1.08317   1.21612   1.21612
  Beta virt. eigenvalues --    1.37086   1.45595   1.45818   1.45818   2.12121

 Mulliken charges and spin densities:
               1          2
     1  H    0.122590  -0.852769
     2  H    0.001300   0.997561
     3  F   -0.123890   0.855209
 Sum of Mulliken charges =  -0.00000   1.00000

 Dipole moment (field-independent basis, Debye):
    X=             -1.4575    Y=             -0.0000    Z=              0.0000  Tot=              1.4575
 Quadrupole moment (field-independent basis, Debye-Ang):
   XX=             -9.6297   YY=             -7.5453   ZZ=             -7.5453
   XY=             -0.0000   XZ=              0.0000   YZ=              0.0000

  Exact polarizability:      29.418      -0.000       2.033       0.000      -0.000       2.033
 Approx polarizability:      39.124      -0.000       1.924       0.000      -0.000       1.924

 ******    2 imaginary frequencies (negative Signs) ******

                      1                      2                      3
                      A                      A                      A
 Frequencies --   -770.7292              -128.2336               315.2610
 Red. masses --      1.0553                 1.0562                 1.0235
 Frc consts  --      0.3694                 0.0102                 0.0599
 IR Inten    --     97.0141                 0.3189                14.2471

                      4
                      A
 Frequencies --    315.2611
 Red. masses --      1.0235
 Frc consts  --      0.0599
 IR Inten    --     14.2471

 - Thermochemistry -
 -------------------
 Temperature   298.150 Kelvin.  Pressure   1.00000 Atm.
 Atom     1 has atomic number  1 and mass   1.00783

 Molecular mass:    21.01405 amu.
 Principal axes and moments of inertia in atomic units:
                           1         2         3
     Eigenvalues --     0.00000 126.84562 126.84562
           X            1.00000  -0.00000   0.00000
           Y            0.00000   1.00000   0.00000
           Z            0.00000   0.00000   1.00000
 This molecule is a prolate symmetric top.
 Rotational symmetry number  1.
 Rotational temperature (Kelvin)      0.68283
 Rotational constant (GHZ):          14.227856
    2 imaginary frequencies ignored.
 Zero-point vibrational energy       3771.4 (Joules/Mol)
                                    0.90138 (Kcal/Mol)
 Warning -- explicit consideration of   2 degrees of freedom as
           vibrations may cause significant error
 Vibrational temperatures:    453.59   453.59
          (Kelvin)

 Zero-point correction=                           0.001436 (Hartree/Particle)
 Thermal correction to Energy=                    0.004600
 Thermal correction to Enthalpy=                  0.005544
 Thermal correction to Gibbs Free Energy=        -0.019725
 Sum of electronic and zero-point Energies=           -100.771497
 Sum of electronic and thermal Energies=              -100.768334
 Sum of electronic and thermal Enthalpies=            -100.767390
 Sum of electronic and thermal Free Energies=         -100.792658

                     E (Thermal)             CV                S
                      KCal/Mol        Cal/Mol-Kelvin    Cal/Mol-Kelvin
 Total                    2.886              8.257             53.182
 Electronic               0.000              0.000              1.377
 Translational            0.889              2.981             35.068
 Rotational               0.592              1.987             14.068
 Vibrational              1.405              3.289              2.669
 Vibration     1          0.703              1.645              1.335
 Vibration     2          0.703              1.645              1.335

 Normal termination of Gaussian 16 at Fri Aug 22 17:23:11 2025.
