 Gaussian 16, Revision C.01,
 Gaussian 16:  ES64L-G16RevC.01  3-Jul-2019

 -----------------------------------------
 # sp b3lyp/6-311g** Force nosymm scf=(qc)
 -----------------------------------------

 -------------------
 Title Card Required
 -------------------
 Symbolic Z-matrix:
 Charge =  0 Multiplicity = 2

                          Input orientation:
 ---------------------------------------------------------------------
 Center     Atomic      Atomic             Coordinates (Angstroms)
 Number     Number       Type             X           Y           Z
 ---------------------------------------------------------------------
      1          1           0        0.000000    0.000000    0.000000
      2          1           0       -3.750000    0.000000    0.000000
      3          9           0        3.700000    0.000000    0.000000
 ---------------------------------------------------------------------

 SCF Done:  E(UB3LYP) =  -100.758676403     a.u. after   33 cycles

 Alpha  occ. eigenvalues --  -24.75654  -1.21598  -0.54778  -0.45992  -0.45992
 Alpha  occ. eigenvalues --   -0.32271
 Alpha virt. eigenvalues --   -0.06403   0.24193   0.37517   0.87058   0.91314
 Alpha virt. eigenvalues --    0.91314   1.01404   1.25226   1.25226   1.25285
 Alpha virt. eigenvalues --    1.46002   1.46002   1.46044   2.14761   2.41927

  Beta  occ. eigenvalues --  -24.72523  -1.12597  -0.42853  -0.42853  -0.32613
  Beta virt. eigenvalues --   -0.25619  -0.06089   0.23974   0.38156   0.92808
  Beta virt. eigenvalues --    0.92808   0.96312   1.05475   1.24844   1.24844
  Beta virt. eigenvalues --    1.24885   1.46364   1.46534   1.46534   2.14831

 Mulliken charges and spin densities:
               1          2
     1  H    0.006454  -0.991663
     2  H    0.000062   0.998847
     3  F   -0.006516   0.992815
 Sum of Mulliken charges =  -0.00000   1.00000

 Dipole moment (field-independent basis, Debye):
    X=             -0.1254    Y=              0.0000    Z=              0.0000  Tot=              0.1254
 Quadrupole moment (field-independent basis, Debye-Ang):
   XX=             -7.1607   YY=             -7.6201   ZZ=             -7.6201
   XY=              0.0000   XZ=              0.0000   YZ=             -0.0000

  Exact polarizability:      17.632      -0.000       2.029       0.000      -0.000       2.029
 Approx polarizability:      13.174       0.000       1.936       0.000      -0.000       1.936

 ******    2 imaginary frequencies (negative Signs) ******

                      1                      2                      3
                      A                      A                      A
 Frequencies --   -188.2273               -78.7028                61.1035
 Red. masses --      1.0289                 1.0841                 1.0181
 Frc consts  --      0.0215                 0.0040                 0.0022
 IR Inten    --      4.7747                 0.5130                 0.0426

                      4
                      A
 Frequencies --     61.1036
 Red. masses --      1.0181
 Frc consts  --      0.0022
 IR Inten    --      0.0426

 - Thermochemistry -
 -------------------
 Temperature   298.150 Kelvin.  Pressure   1.00000 Atm.
 Atom     1 has atomic number  1 and mass   1.00783

 Molecular mass:    21.01405 amu.
 Principal axes and moments of inertia in atomic units:
                           1         2         3
     Eigenvalues --     0.00000 227.56548 227.56548
           X            1.00000  -0.00000   0.00000
           Y            0.00000   1.00000   0.00000
           Z            0.00000   0.00000   1.00000
 This molecule is a prolate symmetric top.
 Rotational symmetry number  1.
 Rotational temperature (Kelvin)      0.38061
 Rotational constant (GHZ):           7.930646
    2 imaginary frequencies ignored.
 Zero-point vibrational energy        731.0 (Joules/Mol)
                                    0.17470 (Kcal/Mol)
 Warning -- explicit consideration of   2 degrees of freedom as
           vibrations may cause significant error
 Vibrational temperatures:     87.91    87.91
          (Kelvin)

 Zero-point correction=                           0.000278 (Hartree/Particle)
 Thermal correction to Energy=                    0.004262
 Thermal correction to Enthalpy=                  0.005207
 Thermal correction to Gibbs Free Energy=        -0.023547
 Sum of electronic and zero-point Energies=           -100.758398
 Sum of electronic and thermal Energies=              -100.754414
 Sum of electronic and thermal Enthalpies=            -100.753470
 Sum of electronic and thermal Free Energies=         -100.782223

                     E (Thermal)             CV                S
                      KCal/Mol        Cal/Mol-Kelvin    Cal/Mol-Kelvin
 Total                    2.675              8.914             60.517
 Electronic               0.000              0.000              1.377
 Translational            0.889              2.981             35.068
 Rotational               0.592              1.987             15.229
 Vibrational              1.194              3.946              8.842
 Vibration     1          0.597              1.973              4.421
 Vibration     2          0.597              1.973              4.421

 Normal termination of Gaussian 16 at Sat Aug 23 00:05:16 2025.
