 Gaussian 16, Revision C.01,
 Gaussian 16:  ES64L-G16RevC.01  3-Jul-2019

 -----------------------------------------
 # sp b3lyp/6-311g** Force nosymm scf=(qc)
 -----------------------------------------

 -------------------
 Title Card Required
 -------------------
 Symbolic Z-matrix:
 Charge =  0 Multiplicity = 2

                          Input orientation:
 ---------------------------------------------------------------------
 Center     Atomic      Atomic             Coordinates (Angstroms)
 Number     Number       Type             X           Y           Z
 ---------------------------------------------------------------------
      1          1           0        0.000000    0.000000    0.000000
      2          1           0       -3.950000    0.000000    0.000000
      3          9           0        1.550000    0.000000    0.000000
 ---------------------------------------------------------------------

 SCF Done:  E(UB3LYP) =  -100.843901774     a.u. after    8 cycles

 Alpha  occ. eigenvalues --  -24.64383  -1.09535  -0.42697  -0.36355  -0.36355
 Alpha  occ. eigenvalues --   -0.33628
 Alpha virt. eigenvalues --   -0.15649   0.20408   0.26903   0.93782   0.93782
 Alpha virt. eigenvalues --    1.02621   1.07574   1.23840   1.23879   1.23879
 Alpha virt. eigenvalues --    1.30444   1.30444   1.73137   2.12605   2.18342

  Beta  occ. eigenvalues --  -24.64307  -1.09331  -0.42533  -0.36282  -0.36282
  Beta virt. eigenvalues --   -0.15879  -0.06147   0.22773   0.38230   0.93746
  Beta virt. eigenvalues --    0.93746   1.02753   1.07544   1.30028   1.30028
  Beta virt. eigenvalues --    1.46479   1.46775   1.46775   1.72956   2.16498

 Mulliken charges and spin densities:
               1          2
     1  H    0.344740  -0.023623
     2  H    0.000646   0.999319
     3  F   -0.345386   0.024304
 Sum of Mulliken charges =  -0.00000   1.00000

 Dipole moment (field-independent basis, Debye):
    X=             -2.6371    Y=             -0.0000    Z=              0.0000  Tot=              2.6371
 Quadrupole moment (field-independent basis, Debye-Ang):
   XX=            -10.1501   YY=             -7.3472   ZZ=             -7.3472
   XY=             -0.0000   XZ=              0.0000   YZ=              0.0000

  Exact polarizability:      15.817      -0.000       2.164       0.000       0.000       2.164
 Approx polarizability:      31.963      -0.000       2.085      -0.000       0.000       2.085

 ******    2 imaginary frequencies (negative Signs) ******

                      1                      2                      3
                      A                      A                      A
 Frequencies --  -1243.4634               -46.7418               983.8449
 Red. masses --      1.0579                 1.0537                 1.0320
 Frc consts  --      0.9637                 0.0014                 0.5885
 IR Inten    --     25.8867                 0.0328               115.7153

                      4
                      A
 Frequencies --    983.8449
 Red. masses --      1.0320
 Frc consts  --      0.5885
 IR Inten    --    115.7153

 - Thermochemistry -
 -------------------
 Temperature   298.150 Kelvin.  Pressure   1.00000 Atm.
 Atom     1 has atomic number  1 and mass   1.00783

 Molecular mass:    21.01405 amu.
 Principal axes and moments of inertia in atomic units:
                           1         2         3
     Eigenvalues --     0.00000 108.93763 108.93763
           X            1.00000  -0.00000   0.00000
           Y            0.00000   1.00000   0.00000
           Z            0.00000   0.00000   1.00000
 This molecule is a prolate symmetric top.
 Rotational symmetry number  1.
 Rotational temperature (Kelvin)      0.79508
 Rotational constant (GHZ):          16.566738
    2 imaginary frequencies ignored.
 Zero-point vibrational energy      11769.4 (Joules/Mol)
                                    2.81295 (Kcal/Mol)
 Vibrational temperatures:   1415.53  1415.53
          (Kelvin)

 Zero-point correction=                           0.004483 (Hartree/Particle)
 Thermal correction to Energy=                    0.006922
 Thermal correction to Enthalpy=                  0.007866
 Thermal correction to Gibbs Free Energy=        -0.016086
 Sum of electronic and zero-point Energies=           -100.839419
 Sum of electronic and thermal Energies=              -100.836980
 Sum of electronic and thermal Enthalpies=            -100.836036
 Sum of electronic and thermal Free Energies=         -100.859988

                     E (Thermal)             CV                S
                      KCal/Mol        Cal/Mol-Kelvin    Cal/Mol-Kelvin
 Total                    4.343              5.759             50.410
 Electronic               0.000              0.000              1.377
 Translational            0.889              2.981             35.068
 Rotational               0.592              1.987             13.765
 Vibrational              2.862              0.790              0.200

 Normal termination of Gaussian 16 at Fri Aug 22 16:29:47 2025.
