 Gaussian 16, Revision C.01,
 Gaussian 16:  ES64L-G16RevC.01  3-Jul-2019

 -----------------------------------------
 # sp b3lyp/6-311g** Force nosymm scf=(qc)
 -----------------------------------------

 -------------------
 Title Card Required
 -------------------
 Symbolic Z-matrix:
 Charge =  0 Multiplicity = 2

                          Input orientation:
 ---------------------------------------------------------------------
 Center     Atomic      Atomic             Coordinates (Angstroms)
 Number     Number       Type             X           Y           Z
 ---------------------------------------------------------------------
      1          1           0        0.000000    0.000000    0.000000
      2          1           0       -1.950000    0.000000    0.000000
      3          9           0        1.700000    0.000000    0.000000
 ---------------------------------------------------------------------

 SCF Done:  E(UB3LYP) =  -100.829073862     a.u. after   13 cycles

 Alpha  occ. eigenvalues --  -24.65464  -1.11694  -0.44843  -0.37453  -0.37391
 Alpha  occ. eigenvalues --   -0.37391
 Alpha virt. eigenvalues --   -0.12878   0.23190   0.28922   0.93486   0.94837
 Alpha virt. eigenvalues --    0.94837   1.04833   1.20161   1.20161   1.31184
 Alpha virt. eigenvalues --    1.34006   1.34006   1.72056   2.11233   2.29297

  Beta  occ. eigenvalues --  -24.63786  -1.07116  -0.39465  -0.35763  -0.35763
  Beta virt. eigenvalues --   -0.20102  -0.09963   0.25493   0.31385   0.94768
  Beta virt. eigenvalues --    0.94768   0.95898   1.07951   1.26168   1.26168
  Beta virt. eigenvalues --    1.36083   1.36083   1.42315   1.70823   2.13275

 Mulliken charges and spin densities:
               1          2
     1  H    0.231228  -0.421831
     2  H    0.052581   0.895333
     3  F   -0.283809   0.526498
 Sum of Mulliken charges =   0.00000   1.00000

 Dipole moment (field-independent basis, Debye):
    X=             -2.8516    Y=             -0.0000    Z=              0.0000  Tot=              2.8516
 Quadrupole moment (field-independent basis, Debye-Ang):
   XX=             -8.8127   YY=             -7.4232   ZZ=             -7.4232
   XY=             -0.0000   XZ=              0.0000   YZ=              0.0000

  Exact polarizability:      40.447      -0.000       2.149       0.000      -0.000       2.149
 Approx polarizability:      52.950      -0.000       2.061       0.000      -0.000       2.061

 ******    2 imaginary frequencies (negative Signs) ******

                      1                      2                      3
                      A                      A                      A
 Frequencies --  -1989.5687              -577.1762               821.4178
 Red. masses --      1.0323                 1.0803                 1.0197
 Frc consts  --      2.4075                 0.2120                 0.4054
 IR Inten    --    108.3538                 9.9946                34.9217

                      4
                      A
 Frequencies --    821.4178
 Red. masses --      1.0197
 Frc consts  --      0.4054
 IR Inten    --     34.9217

 - Thermochemistry -
 -------------------
 Temperature   298.150 Kelvin.  Pressure   1.00000 Atm.
 Atom     1 has atomic number  1 and mass   1.00783

 Molecular mass:    21.01405 amu.
 Principal axes and moments of inertia in atomic units:
                           1         2         3
     Eigenvalues --     0.00000  53.40848  53.40848
           X            1.00000  -0.00000   0.00000
           Y            0.00000   1.00000   0.00000
           Z            0.00000   0.00000   1.00000
 This molecule is a prolate symmetric top.
 Rotational symmetry number  1.
 Rotational temperature (Kelvin)      1.62173
 Rotational constant (GHZ):          33.791283
    2 imaginary frequencies ignored.
 Zero-point vibrational energy       9826.3 (Joules/Mol)
                                    2.34855 (Kcal/Mol)
 Vibrational temperatures:   1181.84  1181.84
          (Kelvin)

 Zero-point correction=                           0.003743 (Hartree/Particle)
 Thermal correction to Energy=                    0.006248
 Thermal correction to Enthalpy=                  0.007192
 Thermal correction to Gibbs Free Energy=        -0.016173
 Sum of electronic and zero-point Energies=           -100.825331
 Sum of electronic and thermal Energies=              -100.822826
 Sum of electronic and thermal Enthalpies=            -100.821882
 Sum of electronic and thermal Free Energies=         -100.845246

                     E (Thermal)             CV                S
                      KCal/Mol        Cal/Mol-Kelvin    Cal/Mol-Kelvin
 Total                    3.921              6.200             49.175
 Electronic               0.000              0.000              1.377
 Translational            0.889              2.981             35.068
 Rotational               0.592              1.987             12.349
 Vibrational              2.439              1.232              0.381

 Normal termination of Gaussian 16 at Fri Aug 22 16:37:23 2025.
