 Gaussian 16, Revision C.01,
 Gaussian 16:  ES64L-G16RevC.01  3-Jul-2019

 -----------------------------------------
 # sp b3lyp/6-311g** Force nosymm scf=(qc)
 -----------------------------------------

 -------------------
 Title Card Required
 -------------------
 Symbolic Z-matrix:
 Charge =  0 Multiplicity = 2

                          Input orientation:
 ---------------------------------------------------------------------
 Center     Atomic      Atomic             Coordinates (Angstroms)
 Number     Number       Type             X           Y           Z
 ---------------------------------------------------------------------
      1          1           0        0.000000    0.000000    0.000000
      2          1           0       -1.100000    0.000000    0.000000
      3          9           0        2.250000    0.000000    0.000000
 ---------------------------------------------------------------------

 SCF Done:  E(UB3LYP) =  -100.891883856     a.u. after   13 cycles

 Alpha  occ. eigenvalues --  -24.74461  -1.20523  -0.53834  -0.45031  -0.45031
 Alpha  occ. eigenvalues --   -0.39234
 Alpha virt. eigenvalues --   -0.02180   0.21807   0.36690   0.88892   0.91633
 Alpha virt. eigenvalues --    0.91633   1.09085   1.09085   1.09470   1.34749
 Alpha virt. eigenvalues --    1.58199   1.58199   2.15194   2.32668   2.55111

  Beta  occ. eigenvalues --  -24.71459  -1.11947  -0.42033  -0.42033  -0.38986
  Beta virt. eigenvalues --   -0.25620  -0.01290   0.22303   0.37143   0.93037
  Beta virt. eigenvalues --    0.93037   0.96759   1.09662   1.09662   1.12662
  Beta virt. eigenvalues --    1.36617   1.58636   1.58636   2.15956   2.33323

 Mulliken charges and spin densities:
               1          2
     1  H    0.005832  -0.048062
     2  H    0.033911   0.101850
     3  F   -0.039742   0.946213
 Sum of Mulliken charges =   0.00000   1.00000

 Dipole moment (field-independent basis, Debye):
    X=             -0.6197    Y=              0.0000    Z=              0.0000  Tot=              0.6197
 Quadrupole moment (field-independent basis, Debye-Ang):
   XX=             -6.2717   YY=             -7.3416   ZZ=             -7.3416
   XY=              0.0000   XZ=              0.0000   YZ=             -0.0000

  Exact polarizability:      33.498       0.000       2.136       0.000      -0.000       2.136
 Approx polarizability:      42.163      -0.000       2.150      -0.000       0.000       2.150

 ******    1 imaginary frequencies (negative Signs) ******

                      1                      2                      3
                      A                      A                      A
 Frequencies --   -439.3403               747.1993              1465.1387
 Red. masses --      1.0940                 1.0201                 1.0116
 Frc consts  --      0.1244                 0.3356                 1.2794
 IR Inten    --    177.7482               273.0766                 0.0363

                      4
                      A
 Frequencies --   1465.1387
 Red. masses --      1.0116
 Frc consts  --      1.2794
 IR Inten    --      0.0363

 - Thermochemistry -
 -------------------
 Temperature   298.150 Kelvin.  Pressure   1.00000 Atm.
 Atom     1 has atomic number  1 and mass   1.00783

 Molecular mass:    21.01405 amu.
 Principal axes and moments of inertia in atomic units:
                           1         2         3
     Eigenvalues --     0.00000  53.19690  53.19690
           X            1.00000  -0.00000   0.00000
           Y            0.00000   1.00000   0.00000
           Z            0.00000   0.00000   1.00000
 This molecule is a prolate symmetric top.
 Rotational symmetry number  1.
 Rotational temperature (Kelvin)      1.62818
 Rotational constant (GHZ):          33.925683
    1 imaginary frequencies ignored.
 Zero-point vibrational energy      21996.2 (Joules/Mol)
                                    5.25722 (Kcal/Mol)
 Vibrational temperatures:   1075.05  2108.01  2108.01
          (Kelvin)

 Zero-point correction=                           0.008378 (Hartree/Particle)
 Thermal correction to Energy=                    0.010845
 Thermal correction to Enthalpy=                  0.011789
 Thermal correction to Gibbs Free Energy=        -0.011525
 Sum of electronic and zero-point Energies=           -100.883506
 Sum of electronic and thermal Energies=              -100.881039
 Sum of electronic and thermal Enthalpies=            -100.880095
 Sum of electronic and thermal Free Energies=         -100.903409

                     E (Thermal)             CV                S
                      KCal/Mol        Cal/Mol-Kelvin    Cal/Mol-Kelvin
 Total                    6.805              5.879             49.068
 Electronic               0.000              0.000              1.377
 Translational            0.889              2.981             35.068
 Rotational               0.592              1.987             12.341
 Vibrational              5.324              0.911              0.282

 Normal termination of Gaussian 16 at Fri Aug 22 17:15:34 2025.
