 Gaussian 16, Revision C.01,
 Gaussian 16:  ES64L-G16RevC.01  3-Jul-2019

 -----------------------------------------
 # sp b3lyp/6-311g** Force nosymm scf=(qc)
 -----------------------------------------

 -------------------
 Title Card Required
 -------------------
 Symbolic Z-matrix:
 Charge =  0 Multiplicity = 2

                          Input orientation:
 ---------------------------------------------------------------------
 Center     Atomic      Atomic             Coordinates (Angstroms)
 Number     Number       Type             X           Y           Z
 ---------------------------------------------------------------------
      1          1           0        0.000000    0.000000    0.000000
      2          1           0       -0.650000    0.000000    0.000000
      3          9           0        0.500000    0.000000    0.000000
 ---------------------------------------------------------------------

 SCF Done:  E(UB3LYP) =  -100.067831509     a.u. after    6 cycles

 Alpha  occ. eigenvalues --  -24.71108  -1.57185  -0.75195  -0.52037  -0.52037
 Alpha  occ. eigenvalues --   -0.25657
 Alpha virt. eigenvalues --    0.16417   0.20865   0.81972   0.81972   0.82311
 Alpha virt. eigenvalues --    0.98642   1.12777   1.12777   1.41708   1.52990
 Alpha virt. eigenvalues --    2.06400   2.06400   2.24868   3.55900   3.69250

  Beta  occ. eigenvalues --  -24.70433  -1.54689  -0.73208  -0.51496  -0.51496
  Beta virt. eigenvalues --   -0.07035   0.17147   0.27805   0.83031   0.83260
  Beta virt. eigenvalues --    0.83260   1.04168   1.19075   1.19075   1.45235
  Beta virt. eigenvalues --    1.56963   2.12037   2.12037   2.33436   3.63491

 Mulliken charges and spin densities:
               1          2
     1  H    0.162763  -0.105073
     2  H   -0.202953   1.084548
     3  F    0.040190   0.020525
 Sum of Mulliken charges =   0.00000   1.00000

 Dipole moment (field-independent basis, Debye):
    X=              0.0809    Y=             -0.0000    Z=             -0.0000  Tot=              0.0809
 Quadrupole moment (field-independent basis, Debye-Ang):
   XX=             -7.6379   YY=             -6.4504   ZZ=             -6.4504
   XY=              0.0000   XZ=             -0.0000   YZ=             -0.0000

  Exact polarizability:       7.073      -0.000       2.381       0.000       0.000       2.381
 Approx polarizability:       6.646      -0.000       2.494       0.000       0.000       2.494

 ******    2 imaginary frequencies (negative Signs) ******

                      1                      2                      3
                      A                      A                      A
 Frequencies --  -9517.9525             -9517.9525              4793.4307
 Red. masses --      1.0214                 1.0214                 1.0581
 Frc consts  --     54.5181                54.5181                14.3240
 IR Inten    --    208.4469               208.4469               567.6256

                      4
                      A
 Frequencies --  19501.4718
 Red. masses --      1.0535
 Frc consts  --    236.0514
 IR Inten    --      0.3214

 - Thermochemistry -
 -------------------
 Temperature   298.150 Kelvin.  Pressure   1.00000 Atm.
 Atom     1 has atomic number  1 and mass   1.00783

 Molecular mass:    21.01405 amu.
 Principal axes and moments of inertia in atomic units:
                           1         2         3
     Eigenvalues --     0.00000   5.18952   5.18952
           X            1.00000  -0.00000   0.00000
           Y            0.00000   1.00000   0.00000
           Z            0.00000   0.00000   1.00000
 This molecule is a prolate symmetric top.
 Rotational symmetry number  1.
 Rotational temperature (Kelvin)     16.69017
 Rotational constant (GHZ):         347.766593
    2 imaginary frequencies ignored.
 Zero-point vibrational energy     145315.8 (Joules/Mol)
                                   34.73131 (Kcal/Mol)
 Vibrational temperatures:   6896.68 28058.27
          (Kelvin)

 Zero-point correction=                           0.055348 (Hartree/Particle)
 Thermal correction to Energy=                    0.057708
 Thermal correction to Enthalpy=                  0.058653
 Thermal correction to Gibbs Free Energy=         0.037670
 Sum of electronic and zero-point Energies=           -100.012484
 Sum of electronic and thermal Energies=              -100.010123
 Sum of electronic and thermal Enthalpies=            -100.009179
 Sum of electronic and thermal Free Energies=         -100.030161

                     E (Thermal)             CV                S
                      KCal/Mol        Cal/Mol-Kelvin    Cal/Mol-Kelvin
 Total                   36.213              4.968             44.161
 Electronic               0.000              0.000              1.377
 Translational            0.889              2.981             35.068
 Rotational               0.592              1.987              7.716
 Vibrational             34.731              0.000              0.000

 Normal termination of Gaussian 16 at Fri Aug 22 15:35:57 2025.
