 Gaussian 16, Revision C.01,
 Gaussian 16:  ES64L-G16RevC.01  3-Jul-2019

 -----------------------------------------
 # sp b3lyp/6-311g** Force nosymm scf=(qc)
 -----------------------------------------

 -------------------
 Title Card Required
 -------------------
 Symbolic Z-matrix:
 Charge =  0 Multiplicity = 2

                          Input orientation:
 ---------------------------------------------------------------------
 Center     Atomic      Atomic             Coordinates (Angstroms)
 Number     Number       Type             X           Y           Z
 ---------------------------------------------------------------------
      1          1           0        0.000000    0.000000    0.000000
      2          1           0       -3.450000    0.000000    0.000000
      3          9           0        2.100000    0.000000    0.000000
 ---------------------------------------------------------------------

 SCF Done:  E(UB3LYP) =  -100.781377255     a.u. after   17 cycles

 Alpha  occ. eigenvalues --  -24.69024  -1.15347  -0.48051  -0.40435  -0.40435
 Alpha  occ. eigenvalues --   -0.33354
 Alpha virt. eigenvalues --   -0.12984   0.22671   0.32813   0.88381   0.94713
 Alpha virt. eigenvalues --    0.94713   1.05844   1.24162   1.24162   1.24314
 Alpha virt. eigenvalues --    1.36461   1.36461   1.55804   2.14140   2.31117

  Beta  occ. eigenvalues --  -24.66509  -1.08280  -0.37948  -0.37948  -0.37328
  Beta virt. eigenvalues --   -0.21387  -0.07043   0.23030   0.37821   0.90494
  Beta virt. eigenvalues --    0.95605   0.95605   1.08188   1.21612   1.21612
  Beta virt. eigenvalues --    1.44980   1.45759   1.45759   1.47939   2.11894

 Mulliken charges and spin densities:
               1          2
     1  H    0.165648  -0.788985
     2  H    0.001646   0.997418
     3  F   -0.167294   0.791566
 Sum of Mulliken charges =  -0.00000   1.00000

 Dipole moment (field-independent basis, Debye):
    X=             -1.7755    Y=              0.0000    Z=             -0.0000  Tot=              1.7755
 Quadrupole moment (field-independent basis, Debye-Ang):
   XX=             -9.9021   YY=             -7.5108   ZZ=             -7.5108
   XY=              0.0000   XZ=             -0.0000   YZ=              0.0000

  Exact polarizability:      27.344       0.000       2.049      -0.000      -0.000       2.049
 Approx polarizability:      38.169       0.000       1.936      -0.000      -0.000       1.936

 ******    2 imaginary frequencies (negative Signs) ******

                      1                      2                      3
                      A                      A                      A
 Frequencies --   -986.7056              -128.0679               414.8655
 Red. masses --      1.0565                 1.0551                 1.0249
 Frc consts  --      0.6060                 0.0102                 0.1039
 IR Inten    --    112.9271                 0.3187                25.7610

                      4
                      A
 Frequencies --    414.8655
 Red. masses --      1.0249
 Frc consts  --      0.1039
 IR Inten    --     25.7610

 - Thermochemistry -
 -------------------
 Temperature   298.150 Kelvin.  Pressure   1.00000 Atm.
 Atom     1 has atomic number  1 and mass   1.00783

 Molecular mass:    21.01405 amu.
 Principal axes and moments of inertia in atomic units:
                           1         2         3
     Eigenvalues --     0.00000 116.62870 116.62870
           X            1.00000  -0.00000   0.00000
           Y            0.00000   1.00000   0.00000
           Z            0.00000   0.00000   1.00000
 This molecule is a prolate symmetric top.
 Rotational symmetry number  1.
 Rotational temperature (Kelvin)      0.74265
 Rotational constant (GHZ):          15.474246
    2 imaginary frequencies ignored.
 Zero-point vibrational energy       4962.9 (Joules/Mol)
                                    1.18616 (Kcal/Mol)
 Warning -- explicit consideration of   2 degrees of freedom as
           vibrations may cause significant error
 Vibrational temperatures:    596.90   596.90
          (Kelvin)

 Zero-point correction=                           0.001890 (Hartree/Particle)
 Thermal correction to Energy=                    0.004841
 Thermal correction to Enthalpy=                  0.005785
 Thermal correction to Gibbs Free Energy=        -0.019000
 Sum of electronic and zero-point Energies=           -100.779487
 Sum of electronic and thermal Energies=              -100.776536
 Sum of electronic and thermal Enthalpies=            -100.775592
 Sum of electronic and thermal Free Energies=         -100.800377

                     E (Thermal)             CV                S
                      KCal/Mol        Cal/Mol-Kelvin    Cal/Mol-Kelvin
 Total                    3.038              7.844             52.165
 Electronic               0.000              0.000              1.377
 Translational            0.889              2.981             35.068
 Rotational               0.592              1.987             13.901
 Vibrational              1.557              2.876              1.819
 Vibration     1          0.778              1.438              0.910
 Vibration     2          0.778              1.438              0.910

 Normal termination of Gaussian 16 at Fri Aug 22 17:05:14 2025.
