 Gaussian 16, Revision C.01,
 Gaussian 16:  ES64L-G16RevC.01  3-Jul-2019

 -----------------------------------------
 # sp b3lyp/6-311g** Force nosymm scf=(qc)
 -----------------------------------------

 -------------------
 Title Card Required
 -------------------
 Symbolic Z-matrix:
 Charge =  0 Multiplicity = 2

                          Input orientation:
 ---------------------------------------------------------------------
 Center     Atomic      Atomic             Coordinates (Angstroms)
 Number     Number       Type             X           Y           Z
 ---------------------------------------------------------------------
      1          1           0        0.000000    0.000000    0.000000
      2          1           0       -2.100000    0.000000    0.000000
      3          9           0        0.600000    0.000000    0.000000
 ---------------------------------------------------------------------

 SCF Done:  E(UB3LYP) =  -100.687613088     a.u. after    6 cycles

 Alpha  occ. eigenvalues --  -24.62675  -1.34681  -0.61068  -0.42920  -0.42920
 Alpha  occ. eigenvalues --   -0.34921
 Alpha virt. eigenvalues --    0.10510   0.24726   0.55230   0.92177   0.92177
 Alpha virt. eigenvalues --    0.93552   1.18202   1.22587   1.22587   1.50335
 Alpha virt. eigenvalues --    1.50335   1.55115   1.96253   2.18262   3.36719

  Beta  occ. eigenvalues --  -24.62654  -1.34617  -0.60990  -0.42908  -0.42908
  Beta virt. eigenvalues --   -0.09452   0.11943   0.36322   0.55781   0.92165
  Beta virt. eigenvalues --    0.92165   0.93680   1.28979   1.43236   1.43236
  Beta virt. eigenvalues --    1.50405   1.50405   1.64242   1.99382   2.44660

 Mulliken charges and spin densities:
               1          2
     1  H    0.223788   0.008307
     2  H    0.008120   0.988363
     3  F   -0.231908   0.003330
 Sum of Mulliken charges =   0.00000   1.00000

 Dipole moment (field-independent basis, Debye):
    X=             -1.5051    Y=             -0.0000    Z=              0.0000  Tot=              1.5051
 Quadrupole moment (field-independent basis, Debye-Ang):
   XX=             -6.7501   YY=             -6.5288   ZZ=             -6.5288
   XY=             -0.0000   XZ=              0.0000   YZ=              0.0000

  Exact polarizability:       5.574       0.000       2.478      -0.000       0.000       2.478
 Approx polarizability:       5.451       0.000       2.468       0.000       0.000       2.468

 ******    2 imaginary frequencies (negative Signs) ******

                      1                      2                      3
                      A                      A                      A
 Frequencies --  -5808.8439             -5808.8439               310.3560
 Red. masses --      1.0370                 1.0370                 1.0533
 Frc consts  --     20.6154                20.6154                 0.0598
 IR Inten    --    208.8293               208.8293                 0.0541

                      4
                      A
 Frequencies --  13070.3194
 Red. masses --      1.0583
 Frc consts  --    106.5189
 IR Inten    --    115.8216

 - Thermochemistry -
 -------------------
 Temperature   298.150 Kelvin.  Pressure   1.00000 Atm.
 Atom     1 has atomic number  1 and mass   1.00783

 Molecular mass:    21.01405 amu.
 Principal axes and moments of inertia in atomic units:
                           1         2         3
     Eigenvalues --     0.00000  25.65273  25.65273
           X            1.00000  -0.00000   0.00000
           Y            0.00000   1.00000   0.00000
           Z            0.00000   0.00000   1.00000
 This molecule is a prolate symmetric top.
 Rotational symmetry number  1.
 Rotational temperature (Kelvin)      3.37640
 Rotational constant (GHZ):          70.352804
    2 imaginary frequencies ignored.
 Zero-point vibrational energy      80034.2 (Joules/Mol)
                                   19.12864 (Kcal/Mol)
 Warning -- explicit consideration of   1 degrees of freedom as
           vibrations may cause significant error
 Vibrational temperatures:    446.53 18805.27
          (Kelvin)

 Zero-point correction=                           0.030483 (Hartree/Particle)
 Thermal correction to Energy=                    0.033251
 Thermal correction to Enthalpy=                  0.034195
 Thermal correction to Gibbs Free Energy=         0.011058
 Sum of electronic and zero-point Energies=           -100.657130
 Sum of electronic and thermal Energies=              -100.654362
 Sum of electronic and thermal Enthalpies=            -100.653418
 Sum of electronic and thermal Free Energies=         -100.676555

                     E (Thermal)             CV                S
                      KCal/Mol        Cal/Mol-Kelvin    Cal/Mol-Kelvin
 Total                   20.865              6.622             48.697
 Electronic               0.000              0.000              1.377
 Translational            0.889              2.981             35.068
 Rotational               0.592              1.987             10.891
 Vibrational             19.384              1.654              1.360
 Vibration     1          0.699              1.654              1.360

 Normal termination of Gaussian 16 at Fri Aug 22 15:41:46 2025.
