 Gaussian 16, Revision C.01,
 Gaussian 16:  ES64L-G16RevC.01  3-Jul-2019

 -----------------------------------------
 # sp b3lyp/6-311g** Force nosymm scf=(qc)
 -----------------------------------------

 -------------------
 Title Card Required
 -------------------
 Symbolic Z-matrix:
 Charge =  0 Multiplicity = 2

                          Input orientation:
 ---------------------------------------------------------------------
 Center     Atomic      Atomic             Coordinates (Angstroms)
 Number     Number       Type             X           Y           Z
 ---------------------------------------------------------------------
      1          1           0        0.000000    0.000000    0.000000
      2          1           0       -3.350000    0.000000    0.000000
      3          9           0        2.700000    0.000000    0.000000
 ---------------------------------------------------------------------

 SCF Done:  E(UB3LYP) =  -100.764195088     a.u. after   20 cycles

 Alpha  occ. eigenvalues --  -24.72816  -1.18965  -0.51929  -0.43611  -0.43611
 Alpha  occ. eigenvalues --   -0.32795
 Alpha virt. eigenvalues --   -0.09471   0.23879   0.35519   0.89997   0.93021
 Alpha virt. eigenvalues --    0.93021   1.05631   1.24720   1.24720   1.25014
 Alpha virt. eigenvalues --    1.42158   1.42158   1.43476   2.14830   2.37715

  Beta  occ. eigenvalues --  -24.69883  -1.10587  -0.40681  -0.40681  -0.34614
  Beta virt. eigenvalues --   -0.24024  -0.06949   0.24171   0.37630   0.94445
  Beta virt. eigenvalues --    0.94445   0.97837   1.08749   1.22726   1.22726
  Beta virt. eigenvalues --    1.25620   1.45429   1.45691   1.45691   2.14188

 Mulliken charges and spin densities:
               1          2
     1  H    0.063650  -0.925199
     2  H    0.001016   0.997002
     3  F   -0.064666   0.928197
 Sum of Mulliken charges =  -0.00000   1.00000

 Dipole moment (field-independent basis, Debye):
    X=             -0.9097    Y=             -0.0000    Z=              0.0000  Tot=              0.9097
 Quadrupole moment (field-independent basis, Debye-Ang):
   XX=             -8.8882   YY=             -7.5934   ZZ=             -7.5934
   XY=             -0.0000   XZ=              0.0000   YZ=              0.0000

  Exact polarizability:      32.743      -0.000       2.023       0.000       0.000       2.023
 Approx polarizability:      37.911      -0.000       1.921       0.000      -0.000       1.921

 ******    2 imaginary frequencies (negative Signs) ******

                      1                      2                      3
                      A                      A                      A
 Frequencies --   -513.9901              -142.4584               192.0229
 Red. masses --      1.0492                 1.0624                 1.0208
 Frc consts  --      0.1633                 0.0127                 0.0222
 IR Inten    --     62.3595                 0.7985                 3.8086

                      4
                      A
 Frequencies --    192.0229
 Red. masses --      1.0208
 Frc consts  --      0.0222
 IR Inten    --      3.8086

 - Thermochemistry -
 -------------------
 Temperature   298.150 Kelvin.  Pressure   1.00000 Atm.
 Atom     1 has atomic number  1 and mass   1.00783

 Molecular mass:    21.01405 amu.
 Principal axes and moments of inertia in atomic units:
                           1         2         3
     Eigenvalues --     0.00000 144.75427 144.75427
           X            1.00000  -0.00000   0.00000
           Y            0.00000   1.00000   0.00000
           Z            0.00000   0.00000   1.00000
 This molecule is a prolate symmetric top.
 Rotational symmetry number  1.
 Rotational temperature (Kelvin)      0.59835
 Rotational constant (GHZ):          12.467620
    2 imaginary frequencies ignored.
 Zero-point vibrational energy       2297.1 (Joules/Mol)
                                    0.54902 (Kcal/Mol)
 Warning -- explicit consideration of   2 degrees of freedom as
           vibrations may cause significant error
 Vibrational temperatures:    276.28   276.28
          (Kelvin)

 Zero-point correction=                           0.000875 (Hartree/Particle)
 Thermal correction to Energy=                    0.004382
 Thermal correction to Enthalpy=                  0.005326
 Thermal correction to Gibbs Free Energy=        -0.020897
 Sum of electronic and zero-point Energies=           -100.763320
 Sum of electronic and thermal Energies=              -100.759813
 Sum of electronic and thermal Enthalpies=            -100.758869
 Sum of electronic and thermal Free Energies=         -100.785092

                     E (Thermal)             CV                S
                      KCal/Mol        Cal/Mol-Kelvin    Cal/Mol-Kelvin
 Total                    2.750              8.670             55.192
 Electronic               0.000              0.000              1.377
 Translational            0.889              2.981             35.068
 Rotational               0.592              1.987             14.330
 Vibrational              1.269              3.702              4.416
 Vibration     1          0.634              1.851              2.208
 Vibration     2          0.634              1.851              2.208

 Normal termination of Gaussian 16 at Fri Aug 22 18:26:45 2025.
