 Gaussian 16, Revision C.01,
 Gaussian 16:  ES64L-G16RevC.01  3-Jul-2019

 -----------------------------------------
 # sp b3lyp/6-311g** Force nosymm scf=(qc)
 -----------------------------------------

 -------------------
 Title Card Required
 -------------------
 Symbolic Z-matrix:
 Charge =  0 Multiplicity = 2

                          Input orientation:
 ---------------------------------------------------------------------
 Center     Atomic      Atomic             Coordinates (Angstroms)
 Number     Number       Type             X           Y           Z
 ---------------------------------------------------------------------
      1          1           0        0.000000    0.000000    0.000000
      2          1           0       -2.750000    0.000000    0.000000
      3          9           0        2.900000    0.000000    0.000000
 ---------------------------------------------------------------------

 SCF Done:  E(UB3LYP) =  -100.763682065     a.u. after   20 cycles

 Alpha  occ. eigenvalues --  -24.73742  -1.19824  -0.52858  -0.44385  -0.44385
 Alpha  occ. eigenvalues --   -0.32957
 Alpha virt. eigenvalues --   -0.09970   0.24969   0.34214   0.89813   0.92483
 Alpha virt. eigenvalues --    0.92483   1.04558   1.24621   1.24621   1.26118
 Alpha virt. eigenvalues --    1.40989   1.40989   1.42007   2.15586   2.37571

  Beta  occ. eigenvalues --  -24.70740  -1.11229  -0.41382  -0.41382  -0.34030
  Beta virt. eigenvalues --   -0.24586  -0.08417   0.25162   0.35781   0.93936
  Beta virt. eigenvalues --    0.93936   0.98407   1.08336   1.23374   1.23374
  Beta virt. eigenvalues --    1.25093   1.43444   1.43444   1.43959   2.16144

 Mulliken charges and spin densities:
               1          2
     1  H    0.040707  -0.936461
     2  H    0.003537   0.985550
     3  F   -0.044244   0.950911
 Sum of Mulliken charges =  -0.00000   1.00000

 Dipole moment (field-independent basis, Debye):
    X=             -0.7047    Y=              0.0000    Z=             -0.0000  Tot=              0.7047
 Quadrupole moment (field-independent basis, Debye-Ang):
   XX=             -8.2864   YY=             -7.6289   ZZ=             -7.6289
   XY=              0.0000   XZ=             -0.0000   YZ=             -0.0000

  Exact polarizability:      38.996       0.000       2.018      -0.000       0.000       2.018
 Approx polarizability:      38.369       0.000       1.922      -0.000      -0.000       1.922

 ******    2 imaginary frequencies (negative Signs) ******

                      1                      2                      3
                      A                      A                      A
 Frequencies --   -557.3090              -231.8221               209.5212
 Red. masses --      1.0179                 1.0966                 1.0173
 Frc consts  --      0.1863                 0.0347                 0.0263
 IR Inten    --     35.1218                12.6388                 1.4179

                      4
                      A
 Frequencies --    209.5212
 Red. masses --      1.0173
 Frc consts  --      0.0263
 IR Inten    --      1.4179

 - Thermochemistry -
 -------------------
 Temperature   298.150 Kelvin.  Pressure   1.00000 Atm.
 Atom     1 has atomic number  1 and mass   1.00783

 Molecular mass:    21.01405 amu.
 Principal axes and moments of inertia in atomic units:
                           1         2         3
     Eigenvalues --     0.00000 132.53901 132.53901
           X            1.00000  -0.00000   0.00000
           Y            0.00000   1.00000   0.00000
           Z            0.00000   0.00000   1.00000
 This molecule is a prolate symmetric top.
 Rotational symmetry number  1.
 Rotational temperature (Kelvin)      0.65350
 Rotational constant (GHZ):          13.616679
    2 imaginary frequencies ignored.
 Zero-point vibrational energy       2506.4 (Joules/Mol)
                                    0.59905 (Kcal/Mol)
 Warning -- explicit consideration of   2 degrees of freedom as
           vibrations may cause significant error
 Vibrational temperatures:    301.45   301.45
          (Kelvin)

 Zero-point correction=                           0.000955 (Hartree/Particle)
 Thermal correction to Energy=                    0.004407
 Thermal correction to Enthalpy=                  0.005351
 Thermal correction to Gibbs Free Energy=        -0.020637
 Sum of electronic and zero-point Energies=           -100.762727
 Sum of electronic and thermal Energies=              -100.759275
 Sum of electronic and thermal Enthalpies=            -100.758331
 Sum of electronic and thermal Free Energies=         -100.784319

                     E (Thermal)             CV                S
                      KCal/Mol        Cal/Mol-Kelvin    Cal/Mol-Kelvin
 Total                    2.765              8.620             54.696
 Electronic               0.000              0.000              1.377
 Translational            0.889              2.981             35.068
 Rotational               0.592              1.987             14.155
 Vibrational              1.284              3.652              4.096
 Vibration     1          0.642              1.826              2.048
 Vibration     2          0.642              1.826              2.048

 Normal termination of Gaussian 16 at Fri Aug 22 19:04:00 2025.
