 Gaussian 16, Revision C.01,
 Gaussian 16:  ES64L-G16RevC.01  3-Jul-2019

 -----------------------------------------
 # sp b3lyp/6-311g** Force nosymm scf=(qc)
 -----------------------------------------

 -------------------
 Title Card Required
 -------------------
 Symbolic Z-matrix:
 Charge =  0 Multiplicity = 2

                          Input orientation:
 ---------------------------------------------------------------------
 Center     Atomic      Atomic             Coordinates (Angstroms)
 Number     Number       Type             X           Y           Z
 ---------------------------------------------------------------------
      1          1           0        0.000000    0.000000    0.000000
      2          1           0       -1.050000    0.000000    0.000000
      3          9           0        0.550000    0.000000    0.000000
 ---------------------------------------------------------------------

 SCF Done:  E(UB3LYP) =  -100.475583378     a.u. after    7 cycles

 Alpha  occ. eigenvalues --  -24.64688  -1.41808  -0.66088  -0.45614  -0.45614
 Alpha  occ. eigenvalues --   -0.33784
 Alpha virt. eigenvalues --    0.16309   0.20550   0.78941   0.87502   0.87502
 Alpha virt. eigenvalues --    0.88652   1.11246   1.11246   1.50349   1.74842
 Alpha virt. eigenvalues --    1.74842   1.74951   2.17054   2.43080   3.75331

  Beta  occ. eigenvalues --  -24.64387  -1.40777  -0.64681  -0.45387  -0.45387
  Beta virt. eigenvalues --   -0.11470   0.17076   0.28003   0.84093   0.88553
  Beta virt. eigenvalues --    0.88553   0.89900   1.20418   1.20418   1.50960
  Beta virt. eigenvalues --    1.80361   1.80361   1.81047   2.28416   2.58905

 Mulliken charges and spin densities:
               1          2
     1  H    0.221111  -0.002766
     2  H   -0.032370   0.980509
     3  F   -0.188740   0.022257
 Sum of Mulliken charges =   0.00000   1.00000

 Dipole moment (field-independent basis, Debye):
    X=             -0.9787    Y=              0.0000    Z=             -0.0000  Tot=              0.9787
 Quadrupole moment (field-independent basis, Debye-Ang):
   XX=             -7.1311   YY=             -6.3772   ZZ=             -6.3772
   XY=              0.0000   XZ=             -0.0000   YZ=              0.0000

  Exact polarizability:       6.301      -0.000       2.499      -0.000       0.000       2.499
 Approx polarizability:       5.992       0.000       2.556      -0.000       0.000       2.556

 ******    2 imaginary frequencies (negative Signs) ******

                      1                      2                      3
                      A                      A                      A
 Frequencies --  -7278.0015             -7278.0015              2071.7348
 Red. masses --      1.0273                 1.0273                 1.0542
 Frc consts  --     32.0607                32.0607                 2.6658
 IR Inten    --    167.7014               167.7014                83.9345

                      4
                      A
 Frequencies --  15791.2748
 Red. masses --      1.0574
 Frc consts  --    155.3531
 IR Inten    --     44.3936

 - Thermochemistry -
 -------------------
 Temperature   298.150 Kelvin.  Pressure   1.00000 Atm.
 Atom     1 has atomic number  1 and mass   1.00783

 Molecular mass:    21.01405 amu.
 Principal axes and moments of inertia in atomic units:
                           1         2         3
     Eigenvalues --     0.00000   9.50429   9.50429
           X            1.00000  -0.00000   0.00000
           Y            0.00000   1.00000   0.00000
           Z            0.00000   0.00000   1.00000
 This molecule is a prolate symmetric top.
 Rotational symmetry number  1.
 Rotational temperature (Kelvin)      9.11314
 Rotational constant (GHZ):         189.887080
    2 imaginary frequencies ignored.
 Zero-point vibrational energy     106844.5 (Joules/Mol)
                                   25.53645 (Kcal/Mol)
 Vibrational temperatures:   2980.76 22720.12
          (Kelvin)

 Zero-point correction=                           0.040695 (Hartree/Particle)
 Thermal correction to Energy=                    0.043056
 Thermal correction to Enthalpy=                  0.044000
 Thermal correction to Gibbs Free Energy=         0.022446
 Sum of electronic and zero-point Energies=           -100.434888
 Sum of electronic and thermal Energies=              -100.432528
 Sum of electronic and thermal Enthalpies=            -100.431583
 Sum of electronic and thermal Free Energies=         -100.453138

                     E (Thermal)             CV                S
                      KCal/Mol        Cal/Mol-Kelvin    Cal/Mol-Kelvin
 Total                   27.018              4.977             45.365
 Electronic               0.000              0.000              1.377
 Translational            0.889              2.981             35.068
 Rotational               0.592              1.987              8.918
 Vibrational             25.537              0.009              0.001

 Normal termination of Gaussian 16 at Fri Aug 22 15:38:41 2025.
