 Gaussian 16, Revision C.01,
 Gaussian 16:  ES64L-G16RevC.01  3-Jul-2019

 -----------------------------------------
 # sp b3lyp/6-311g** Force nosymm scf=(qc)
 -----------------------------------------

 -------------------
 Title Card Required
 -------------------
 Symbolic Z-matrix:
 Charge =  0 Multiplicity = 2

                          Input orientation:
 ---------------------------------------------------------------------
 Center     Atomic      Atomic             Coordinates (Angstroms)
 Number     Number       Type             X           Y           Z
 ---------------------------------------------------------------------
      1          1           0        0.000000    0.000000    0.000000
      2          1           0       -3.300000    0.000000    0.000000
      3          9           0        2.250000    0.000000    0.000000
 ---------------------------------------------------------------------

 SCF Done:  E(UB3LYP) =  -100.774017355     a.u. after   17 cycles

 Alpha  occ. eigenvalues --  -24.67331  -1.08774  -0.38607  -0.38607  -0.36583
 Alpha  occ. eigenvalues --   -0.33105
 Alpha virt. eigenvalues --   -0.22147   0.20943   0.28042   0.92283   0.95601
 Alpha virt. eigenvalues --    0.95601   1.08362   1.21541   1.21541   1.24276
 Alpha virt. eigenvalues --    1.24276   1.24455   1.39620   2.11806   2.15096

  Beta  occ. eigenvalues --  -24.69993  -1.16297  -0.49059  -0.41249  -0.41249
  Beta virt. eigenvalues --   -0.12341  -0.04616   0.31829   0.40072   0.88788
  Beta virt. eigenvalues --    0.94449   0.94449   1.06338   1.38093   1.38093
  Beta virt. eigenvalues --    1.47827   1.47827   1.47830   1.50434   2.33541

 Mulliken charges and spin densities:
               1          2
     1  H    0.134265   0.840666
     2  H    0.001895   0.998144
     3  F   -0.136160  -0.838810
 Sum of Mulliken charges =   0.00000   1.00000

 Dipole moment (field-independent basis, Debye):
    X=             -1.5695    Y=              0.0000    Z=             -0.0000  Tot=              1.5695
 Quadrupole moment (field-independent basis, Debye-Ang):
   XX=             -9.7869   YY=             -7.5236   ZZ=             -7.5236
   XY=             -0.0000   XZ=              0.0000   YZ=              0.0000

  Exact polarizability:      30.717      -0.000       2.037       0.000       0.000       2.037
 Approx polarizability:      41.737      -0.000       1.927       0.000      -0.000       1.927

 ******    1 imaginary frequencies (negative Signs) ******

                      1                      2                      3
                      A                      A                      A
 Frequencies --   -796.6019                98.4973               329.7984
 Red. masses --      1.0605                 1.0511                 1.0232
 Frc consts  --      0.3965                 0.0060                 0.0656
 IR Inten    --     89.0413                 0.4628                16.8641

                      4
                      A
 Frequencies --    329.7984
 Red. masses --      1.0232
 Frc consts  --      0.0656
 IR Inten    --     16.8641

 - Thermochemistry -
 -------------------
 Temperature   298.150 Kelvin.  Pressure   1.00000 Atm.
 Atom     1 has atomic number  1 and mass   1.00783

 Molecular mass:    21.01405 amu.
 Principal axes and moments of inertia in atomic units:
                           1         2         3
     Eigenvalues --     0.00000 118.57704 118.57704
           X            1.00000  -0.00000   0.00000
           Y            0.00000   1.00000   0.00000
           Z            0.00000   0.00000   1.00000
 This molecule is a prolate symmetric top.
 Rotational symmetry number  1.
 Rotational temperature (Kelvin)      0.73044
 Rotational constant (GHZ):          15.219989
    1 imaginary frequencies ignored.
 Zero-point vibrational energy       4534.4 (Joules/Mol)
                                    1.08375 (Kcal/Mol)
 Warning -- explicit consideration of   3 degrees of freedom as
           vibrations may cause significant error
 Vibrational temperatures:    141.72   474.51   474.51
          (Kelvin)

 Zero-point correction=                           0.001727 (Hartree/Particle)
 Thermal correction to Energy=                    0.005593
 Thermal correction to Enthalpy=                  0.006538
 Thermal correction to Gibbs Free Energy=        -0.020253
 Sum of electronic and zero-point Energies=           -100.772290
 Sum of electronic and thermal Energies=              -100.768424
 Sum of electronic and thermal Enthalpies=            -100.767480
 Sum of electronic and thermal Free Energies=         -100.794270

                     E (Thermal)             CV                S
                      KCal/Mol        Cal/Mol-Kelvin    Cal/Mol-Kelvin
 Total                    3.510             10.150             56.385
 Electronic               0.000              0.000              1.377
 Translational            0.889              2.981             35.068
 Rotational               0.592              1.987             13.934
 Vibrational              2.029              5.182              6.006
 Vibration     1          0.604              1.950              3.484
 Vibration     2          0.713              1.616              1.261
 Vibration     3          0.713              1.616              1.261

 Normal termination of Gaussian 16 at Fri Aug 22 17:17:38 2025.
