 Gaussian 16, Revision C.01,
 Gaussian 16:  ES64L-G16RevC.01  3-Jul-2019

 -----------------------------------------
 # sp b3lyp/6-311g** Force nosymm scf=(qc)
 -----------------------------------------

 -------------------
 Title Card Required
 -------------------
 Symbolic Z-matrix:
 Charge =  0 Multiplicity = 2

                          Input orientation:
 ---------------------------------------------------------------------
 Center     Atomic      Atomic             Coordinates (Angstroms)
 Number     Number       Type             X           Y           Z
 ---------------------------------------------------------------------
      1          1           0        0.000000    0.000000    0.000000
      2          1           0       -3.200000    0.000000    0.000000
      3          9           0        0.900000    0.000000    0.000000
 ---------------------------------------------------------------------

 SCF Done:  E(UB3LYP) =  -100.971520880     a.u. after    5 cycles

 Alpha  occ. eigenvalues --  -24.63985  -1.19037  -0.53853  -0.39645  -0.39645
 Alpha  occ. eigenvalues --   -0.33877
 Alpha virt. eigenvalues --    0.03276   0.24863   0.39434   0.94343   0.94343
 Alpha virt. eigenvalues --    0.97761   1.23187   1.23645   1.23645   1.30903
 Alpha virt. eigenvalues --    1.37276   1.37276   2.00938   2.14512   2.37309

  Beta  occ. eigenvalues --  -24.63983  -1.19029  -0.53845  -0.39643  -0.39643
  Beta virt. eigenvalues --   -0.06309   0.04172   0.38787   0.39594   0.94344
  Beta virt. eigenvalues --    0.94344   0.97752   1.29898   1.37275   1.37275
  Beta virt. eigenvalues --    1.50219   1.50219   1.50233   2.01002   2.37262

 Mulliken charges and spin densities:
               1          2
     1  H    0.294822   0.001033
     2  H    0.001606   0.997945
     3  F   -0.296428   0.001022
 Sum of Mulliken charges =   0.00000   1.00000

 Dipole moment (field-independent basis, Debye):
    X=             -1.9055    Y=             -0.0000    Z=             -0.0000  Tot=              1.9055
 Quadrupole moment (field-independent basis, Debye-Ang):
   XX=             -7.8614   YY=             -6.8684   ZZ=             -6.8684
   XY=             -0.0000   XZ=             -0.0000   YZ=              0.0000

  Exact polarizability:       5.969       0.000       2.431      -0.000      -0.000       2.431
 Approx polarizability:       6.840      -0.000       2.410       0.000      -0.000       2.410

 ******    3 imaginary frequencies (negative Signs) ******

                      1                      2                      3
                      A                      A                      A
 Frequencies --   -624.2765              -624.2765               -54.2650
 Red. masses --      1.0372                 1.0372                 1.0532
 Frc consts  --      0.2382                 0.2382                 0.0018
 IR Inten    --    178.9298               178.9298                 0.1011

                      4
                      A
 Frequencies --   4431.2863
 Red. masses --      1.0583
 Frc consts  --     12.2443
 IR Inten    --    104.1478

 - Thermochemistry -
 -------------------
 Temperature   298.150 Kelvin.  Pressure   1.00000 Atm.
 Atom     1 has atomic number  1 and mass   1.00783

 Molecular mass:    21.01405 amu.
 Principal axes and moments of inertia in atomic units:
                           1         2         3
     Eigenvalues --     0.00000  59.09936  59.09936
           X            1.00000  -0.00000   0.00000
           Y            0.00000   1.00000   0.00000
           Z            0.00000   0.00000   1.00000
 This molecule is a prolate symmetric top.
 Rotational symmetry number  1.
 Rotational temperature (Kelvin)      1.46556
 Rotational constant (GHZ):          30.537408
    3 imaginary frequencies ignored.
 Zero-point vibrational energy      26505.0 (Joules/Mol)
                                    6.33484 (Kcal/Mol)
 Vibrational temperatures:   6375.63
          (Kelvin)

 Zero-point correction=                           0.010095 (Hartree/Particle)
 Thermal correction to Energy=                    0.012456
 Thermal correction to Enthalpy=                  0.013400
 Thermal correction to Gibbs Free Energy=        -0.009879
 Sum of electronic and zero-point Energies=           -100.961426
 Sum of electronic and thermal Energies=              -100.959065
 Sum of electronic and thermal Enthalpies=            -100.958121
 Sum of electronic and thermal Free Energies=         -100.981400

                     E (Thermal)             CV                S
                      KCal/Mol        Cal/Mol-Kelvin    Cal/Mol-Kelvin
 Total                    7.816              4.968             48.995
 Electronic               0.000              0.000              1.377
 Translational            0.889              2.981             35.068
 Rotational               0.592              1.987             12.550
 Vibrational              6.335              0.000              0.000

 Normal termination of Gaussian 16 at Fri Aug 22 15:56:35 2025.
