 Gaussian 16, Revision C.01,
 Gaussian 16:  ES64L-G16RevC.01  3-Jul-2019

 -----------------------------------------
 # sp b3lyp/6-311g** Force nosymm scf=(qc)
 -----------------------------------------

 -------------------
 Title Card Required
 -------------------
 Symbolic Z-matrix:
 Charge =  0 Multiplicity = 2

                          Input orientation:
 ---------------------------------------------------------------------
 Center     Atomic      Atomic             Coordinates (Angstroms)
 Number     Number       Type             X           Y           Z
 ---------------------------------------------------------------------
      1          1           0        0.000000    0.000000    0.000000
      2          1           0       -0.550000    0.000000    0.000000
      3          9           0        1.850000    0.000000    0.000000
 ---------------------------------------------------------------------

 SCF Done:  E(UB3LYP) =  -100.893426050     a.u. after    6 cycles

 Alpha  occ. eigenvalues --  -24.74821  -1.21014  -0.56255  -0.47952  -0.45414
 Alpha  occ. eigenvalues --   -0.45414
 Alpha virt. eigenvalues --    0.11302   0.19823   0.50741   0.89969   0.89969
 Alpha virt. eigenvalues --    0.94589   1.10469   1.10469   1.20872   1.67406
 Alpha virt. eigenvalues --    1.81625   1.95469   1.95469   2.47034   3.68459

  Beta  occ. eigenvalues --  -24.71773  -1.12362  -0.49791  -0.42384  -0.42384
  Beta virt. eigenvalues --   -0.25222   0.11864   0.20452   0.51705   0.91310
  Beta virt. eigenvalues --    0.91310   1.02052   1.11183   1.11183   1.24568
  Beta virt. eigenvalues --    1.68729   1.82234   1.95742   1.95742   2.47911

 Mulliken charges and spin densities:
               1          2
     1  H    0.016018  -0.022230
     2  H    0.020493   0.071567
     3  F   -0.036512   0.950662
 Sum of Mulliken charges =   0.00000   1.00000

 Dipole moment (field-independent basis, Debye):
    X=             -0.3626    Y=              0.0000    Z=              0.0000  Tot=              0.3626
 Quadrupole moment (field-independent basis, Debye-Ang):
   XX=             -5.9475   YY=             -6.6209   ZZ=             -6.6209
   XY=              0.0000   XZ=              0.0000   YZ=              0.0000

  Exact polarizability:      12.129      -0.000       2.044      -0.000      -0.000       2.044
 Approx polarizability:      12.889       0.000       2.117       0.000       0.000       2.117

 ******    2 imaginary frequencies (negative Signs) ******

                      1                      2                      3
                      A                      A                      A
 Frequencies --  -3738.4802             -3738.4802               286.2811
 Red. masses --      1.0095                 1.0095                 1.1085
 Frc consts  --      8.3127                 8.3127                 0.0535
 IR Inten    --      0.4741                 0.4741                21.5602

                      4
                      A
 Frequencies --   8297.8152
 Red. masses --      1.0078
 Frc consts  --     40.8849
 IR Inten    --    179.4294

 - Thermochemistry -
 -------------------
 Temperature   298.150 Kelvin.  Pressure   1.00000 Atm.
 Atom     1 has atomic number  1 and mass   1.00783

 Molecular mass:    21.01405 amu.
 Principal axes and moments of inertia in atomic units:
                           1         2         3
     Eigenvalues --     0.00000  29.93018  29.93018
           X            1.00000  -0.00000   0.00000
           Y            0.00000   1.00000   0.00000
           Z            0.00000   0.00000   1.00000
 This molecule is a prolate symmetric top.
 Rotational symmetry number  1.
 Rotational temperature (Kelvin)      2.89387
 Rotational constant (GHZ):          60.298367
    2 imaginary frequencies ignored.
 Zero-point vibrational energy      51344.3 (Joules/Mol)
                                   12.27158 (Kcal/Mol)
 Warning -- explicit consideration of   1 degrees of freedom as
           vibrations may cause significant error
 Vibrational temperatures:    411.89 11938.71
          (Kelvin)

 Zero-point correction=                           0.019556 (Hartree/Particle)
 Thermal correction to Energy=                    0.022354
 Thermal correction to Enthalpy=                  0.023298
 Thermal correction to Gibbs Free Energy=        -0.000049
 Sum of electronic and zero-point Energies=           -100.873870
 Sum of electronic and thermal Energies=              -100.871072
 Sum of electronic and thermal Enthalpies=            -100.870128
 Sum of electronic and thermal Free Energies=         -100.893475

                     E (Thermal)             CV                S
                      KCal/Mol        Cal/Mol-Kelvin    Cal/Mol-Kelvin
 Total                   14.027              6.667             49.139
 Electronic               0.000              0.000              1.377
 Translational            0.889              2.981             35.068
 Rotational               0.592              1.987             11.198
 Vibrational             12.546              1.699              1.496
 Vibration     1          0.684              1.699              1.496

 Normal termination of Gaussian 16 at Fri Aug 22 16:45:26 2025.
