 Gaussian 16, Revision C.01,
 Gaussian 16:  ES64L-G16RevC.01  3-Jul-2019

 -----------------------------------------
 # sp b3lyp/6-311g** Force nosymm scf=(qc)
 -----------------------------------------

 -------------------
 Title Card Required
 -------------------
 Symbolic Z-matrix:
 Charge =  0 Multiplicity = 2

                          Input orientation:
 ---------------------------------------------------------------------
 Center     Atomic      Atomic             Coordinates (Angstroms)
 Number     Number       Type             X           Y           Z
 ---------------------------------------------------------------------
      1          1           0        0.000000    0.000000    0.000000
      2          1           0       -2.950000    0.000000    0.000000
      3          9           0        3.600000    0.000000    0.000000
 ---------------------------------------------------------------------

 SCF Done:  E(UB3LYP) =  -100.759988841     a.u. after   32 cycles

 Alpha  occ. eigenvalues --  -24.75556  -1.21506  -0.54679  -0.45909  -0.45909
 Alpha  occ. eigenvalues --   -0.32429
 Alpha virt. eigenvalues --   -0.08068   0.25070   0.35931   0.87315   0.91374
 Alpha virt. eigenvalues --    0.91374   1.01576   1.25113   1.25113   1.25924
 Alpha virt. eigenvalues --    1.43830   1.43830   1.43872   2.15810   2.39337

  Beta  occ. eigenvalues --  -24.72431  -1.12526  -0.42778  -0.42778  -0.32775
  Beta virt. eigenvalues --   -0.25574  -0.07625   0.24855   0.36613   0.92867
  Beta virt. eigenvalues --    0.92867   0.96530   1.05630   1.24716   1.24716
  Beta virt. eigenvalues --    1.25489   1.44528   1.44528   1.44563   2.16057

 Mulliken charges and spin densities:
               1          2
     1  H    0.007835  -0.981974
     2  H    0.000617   0.991357
     3  F   -0.008452   0.990617
 Sum of Mulliken charges =  -0.00000   1.00000

 Dipole moment (field-independent basis, Debye):
    X=             -0.1653    Y=              0.0000    Z=             -0.0000  Tot=              0.1653
 Quadrupole moment (field-independent basis, Debye-Ang):
   XX=             -7.1672   YY=             -7.6373   ZZ=             -7.6373
   XY=              0.0000   XZ=             -0.0000   YZ=              0.0000

  Exact polarizability:      23.847       0.000       2.046      -0.000       0.000       2.046
 Approx polarizability:      17.967       0.000       1.932      -0.000      -0.000       1.932

 ******    2 imaginary frequencies (negative Signs) ******

                      1                      2                      3
                      A                      A                      A
 Frequencies --   -373.1033              -120.0830               124.1554
 Red. masses --      1.0094                 1.1066                 1.0157
 Frc consts  --      0.0828                 0.0094                 0.0092
 IR Inten    --      4.8168                 3.2785                 0.0380

                      4
                      A
 Frequencies --    124.1556
 Red. masses --      1.0157
 Frc consts  --      0.0092
 IR Inten    --      0.0380

 - Thermochemistry -
 -------------------
 Temperature   298.150 Kelvin.  Pressure   1.00000 Atm.
 Atom     1 has atomic number  1 and mass   1.00783

 Molecular mass:    21.01405 amu.
 Principal axes and moments of inertia in atomic units:
                           1         2         3
     Eigenvalues --     0.00000 183.26722 183.26722
           X            1.00000  -0.00000   0.00000
           Y            0.00000   1.00000   0.00000
           Z            0.00000   0.00000   1.00000
 This molecule is a prolate symmetric top.
 Rotational symmetry number  1.
 Rotational temperature (Kelvin)      0.47261
 Rotational constant (GHZ):           9.847594
    2 imaginary frequencies ignored.
 Zero-point vibrational energy       1485.2 (Joules/Mol)
                                    0.35498 (Kcal/Mol)
 Warning -- explicit consideration of   2 degrees of freedom as
           vibrations may cause significant error
 Vibrational temperatures:    178.63   178.63
          (Kelvin)

 Zero-point correction=                           0.000566 (Hartree/Particle)
 Thermal correction to Energy=                    0.004305
 Thermal correction to Enthalpy=                  0.005249
 Thermal correction to Gibbs Free Energy=        -0.021982
 Sum of electronic and zero-point Energies=           -100.759423
 Sum of electronic and thermal Energies=              -100.755684
 Sum of electronic and thermal Enthalpies=            -100.754740
 Sum of electronic and thermal Free Energies=         -100.781971

                     E (Thermal)             CV                S
                      KCal/Mol        Cal/Mol-Kelvin    Cal/Mol-Kelvin
 Total                    2.701              8.826             57.314
 Electronic               0.000              0.000              1.377
 Translational            0.889              2.981             35.068
 Rotational               0.592              1.987             14.799
 Vibrational              1.220              3.858              6.069
 Vibration     1          0.610              1.929              3.035
 Vibration     2          0.610              1.929              3.035

 Normal termination of Gaussian 16 at Fri Aug 22 23:07:04 2025.
