 Gaussian 16, Revision C.01,
 Gaussian 16:  ES64L-G16RevC.01  3-Jul-2019

 -----------------------------------------
 # sp b3lyp/6-311g** Force nosymm scf=(qc)
 -----------------------------------------

 -------------------
 Title Card Required
 -------------------
 Symbolic Z-matrix:
 Charge =  0 Multiplicity = 2

                          Input orientation:
 ---------------------------------------------------------------------
 Center     Atomic      Atomic             Coordinates (Angstroms)
 Number     Number       Type             X           Y           Z
 ---------------------------------------------------------------------
      1          1           0        0.000000    0.000000    0.000000
      2          1           0       -2.900000    0.000000    0.000000
      3          9           0        0.950000    0.000000    0.000000
 ---------------------------------------------------------------------

 SCF Done:  E(UB3LYP) =  -100.971168859     a.u. after    6 cycles

 Alpha  occ. eigenvalues --  -24.64065  -1.17406  -0.52718  -0.39176  -0.39176
 Alpha  occ. eigenvalues --   -0.34283
 Alpha virt. eigenvalues --    0.02352   0.25093   0.36573   0.94257   0.94257
 Alpha virt. eigenvalues --    0.98158   1.22262   1.23252   1.23252   1.32884
 Alpha virt. eigenvalues --    1.36518   1.36518   1.96365   2.14517   2.35152

  Beta  occ. eigenvalues --  -24.64058  -1.17388  -0.52694  -0.39170  -0.39170
  Beta virt. eigenvalues --   -0.07687   0.03641   0.36542   0.38436   0.94258
  Beta virt. eigenvalues --    0.94258   0.98156   1.30254   1.36511   1.36511
  Beta virt. eigenvalues --    1.47923   1.47923   1.49812   1.96556   2.35060

 Mulliken charges and spin densities:
               1          2
     1  H    0.305993   0.001672
     2  H    0.003067   0.995928
     3  F   -0.309060   0.002400
 Sum of Mulliken charges =   0.00000   1.00000

 Dipole moment (field-independent basis, Debye):
    X=             -1.9983    Y=              0.0000    Z=             -0.0000  Tot=              1.9983
 Quadrupole moment (field-independent basis, Debye-Ang):
   XX=             -7.9500   YY=             -6.9147   ZZ=             -6.9147
   XY=              0.0000   XZ=             -0.0000   YZ=             -0.0000

  Exact polarizability:       7.086       0.000       2.426      -0.000       0.000       2.426
 Approx polarizability:       8.137      -0.000       2.403       0.000       0.000       2.403

 ******    1 imaginary frequencies (negative Signs) ******

                      1                      2                      3
                      A                      A                      A
 Frequencies --    -69.8305               668.9185               668.9185
 Red. masses --      1.0532                 1.0349                 1.0349
 Frc consts  --      0.0030                 0.2728                 0.2728
 IR Inten    --      0.2825               168.6747               168.6747

                      4
                      A
 Frequencies --   3676.5459
 Red. masses --      1.0584
 Frc consts  --      8.4291
 IR Inten    --    107.6060

 - Thermochemistry -
 -------------------
 Temperature   298.150 Kelvin.  Pressure   1.00000 Atm.
 Atom     1 has atomic number  1 and mass   1.00783

 Molecular mass:    21.01405 amu.
 Principal axes and moments of inertia in atomic units:
                           1         2         3
     Eigenvalues --     0.00000  52.61755  52.61755
           X            1.00000  -0.00000   0.00000
           Y            0.00000   1.00000   0.00000
           Z            0.00000   0.00000   1.00000
 This molecule is a prolate symmetric top.
 Rotational symmetry number  1.
 Rotational temperature (Kelvin)      1.64610
 Rotational constant (GHZ):          34.299228
    1 imaginary frequencies ignored.
 Zero-point vibrational energy      29992.7 (Joules/Mol)
                                    7.16842 (Kcal/Mol)
 Vibrational temperatures:    962.42   962.42  5289.73
          (Kelvin)

 Zero-point correction=                           0.011424 (Hartree/Particle)
 Thermal correction to Energy=                    0.014036
 Thermal correction to Enthalpy=                  0.014980
 Thermal correction to Gibbs Free Energy=        -0.008518
 Sum of electronic and zero-point Energies=           -100.959745
 Sum of electronic and thermal Energies=              -100.957133
 Sum of electronic and thermal Enthalpies=            -100.956189
 Sum of electronic and thermal Free Energies=         -100.979687

                     E (Thermal)             CV                S
                      KCal/Mol        Cal/Mol-Kelvin    Cal/Mol-Kelvin
 Total                    8.808              6.748             49.455
 Electronic               0.000              0.000              1.377
 Translational            0.889              2.981             35.068
 Rotational               0.592              1.987             12.319
 Vibrational              7.326              1.780              0.690

 Normal termination of Gaussian 16 at Fri Aug 22 15:58:45 2025.
