 Gaussian 16, Revision C.01,
 Gaussian 16:  ES64L-G16RevC.01  3-Jul-2019

 -----------------------------------------
 # sp b3lyp/6-311g** Force nosymm scf=(qc)
 -----------------------------------------

 -------------------
 Title Card Required
 -------------------
 Symbolic Z-matrix:
 Charge =  0 Multiplicity = 2

                          Input orientation:
 ---------------------------------------------------------------------
 Center     Atomic      Atomic             Coordinates (Angstroms)
 Number     Number       Type             X           Y           Z
 ---------------------------------------------------------------------
      1          1           0        0.000000    0.000000    0.000000
      2          1           0       -2.600000    0.000000    0.000000
      3          9           0        3.350000    0.000000    0.000000
 ---------------------------------------------------------------------

 SCF Done:  E(UB3LYP) =  -100.762367039     a.u. after   27 cycles

 Alpha  occ. eigenvalues --  -24.75152  -1.21132  -0.54273  -0.45569  -0.45569
 Alpha  occ. eigenvalues --   -0.32698
 Alpha virt. eigenvalues --   -0.09426   0.25494   0.34374   0.88136   0.91624
 Alpha virt. eigenvalues --    0.91624   1.02250   1.24917   1.24917   1.26510
 Alpha virt. eigenvalues --    1.41597   1.41597   1.42644   2.15852   2.37484

  Beta  occ. eigenvalues --  -24.72055  -1.12235  -0.42466  -0.42466  -0.33140
  Beta virt. eigenvalues --   -0.25372  -0.08746   0.25325   0.35335   0.93108
  Beta virt. eigenvalues --    0.93108   0.97205   1.06241   1.24387   1.24387
  Beta virt. eigenvalues --    1.25868   1.42677   1.42677   1.43721   2.16504

 Mulliken charges and spin densities:
               1          2
     1  H    0.013729  -0.959652
     2  H    0.002414   0.977628
     3  F   -0.016143   0.982024
 Sum of Mulliken charges =  -0.00000   1.00000

 Dipole moment (field-independent basis, Debye):
    X=             -0.3076    Y=             -0.0000    Z=              0.0000  Tot=              0.3076
 Quadrupole moment (field-independent basis, Debye-Ang):
   XX=             -7.3844   YY=             -7.6547   ZZ=             -7.6547
   XY=              0.0000   XZ=             -0.0000   YZ=             -0.0000

  Exact polarizability:      35.464       0.000       2.022      -0.000       0.000       2.022
 Approx polarizability:      28.027       0.000       1.927      -0.000      -0.000       1.927

 ******    2 imaginary frequencies (negative Signs) ******

                      1                      2                      3
                      A                      A                      A
 Frequencies --   -592.8635              -164.2365               215.8077
 Red. masses --      1.0086                 1.1076                 1.0152
 Frc consts  --      0.2089                 0.0176                 0.0279
 IR Inten    --     10.2738                 9.0319                 0.1428

                      4
                      A
 Frequencies --    215.8077
 Red. masses --      1.0152
 Frc consts  --      0.0279
 IR Inten    --      0.1428

 - Thermochemistry -
 -------------------
 Temperature   298.150 Kelvin.  Pressure   1.00000 Atm.
 Atom     1 has atomic number  1 and mass   1.00783

 Molecular mass:    21.01405 amu.
 Principal axes and moments of inertia in atomic units:
                           1         2         3
     Eigenvalues --     0.00000 152.87500 152.87500
           X            1.00000  -0.00000   0.00000
           Y            0.00000   1.00000   0.00000
           Z            0.00000   0.00000   1.00000
 This molecule is a prolate symmetric top.
 Rotational symmetry number  1.
 Rotational temperature (Kelvin)      0.56657
 Rotational constant (GHZ):          11.805339
    2 imaginary frequencies ignored.
 Zero-point vibrational energy       2581.6 (Joules/Mol)
                                    0.61703 (Kcal/Mol)
 Warning -- explicit consideration of   2 degrees of freedom as
           vibrations may cause significant error
 Vibrational temperatures:    310.50   310.50
          (Kelvin)

 Zero-point correction=                           0.000983 (Hartree/Particle)
 Thermal correction to Energy=                    0.004416
 Thermal correction to Enthalpy=                  0.005361
 Thermal correction to Gibbs Free Energy=        -0.020711
 Sum of electronic and zero-point Energies=           -100.761384
 Sum of electronic and thermal Energies=              -100.757951
 Sum of electronic and thermal Enthalpies=            -100.757006
 Sum of electronic and thermal Free Energies=         -100.783078

                     E (Thermal)             CV                S
                      KCal/Mol        Cal/Mol-Kelvin    Cal/Mol-Kelvin
 Total                    2.771              8.602             54.872
 Electronic               0.000              0.000              1.377
 Translational            0.889              2.981             35.068
 Rotational               0.592              1.987             14.439
 Vibrational              1.290              3.634              3.988
 Vibration     1          0.645              1.817              1.994
 Vibration     2          0.645              1.817              1.994

 Normal termination of Gaussian 16 at Fri Aug 22 21:02:04 2025.
