 Gaussian 16, Revision C.01,
 Gaussian 16:  ES64L-G16RevC.01  3-Jul-2019

 -----------------------------------------
 # sp b3lyp/6-311g** Force nosymm scf=(qc)
 -----------------------------------------

 -------------------
 Title Card Required
 -------------------
 Symbolic Z-matrix:
 Charge =  0 Multiplicity = 2

                          Input orientation:
 ---------------------------------------------------------------------
 Center     Atomic      Atomic             Coordinates (Angstroms)
 Number     Number       Type             X           Y           Z
 ---------------------------------------------------------------------
      1          1           0        0.000000    0.000000    0.000000
      2          1           0       -1.900000    0.000000    0.000000
      3          9           0        2.650000    0.000000    0.000000
 ---------------------------------------------------------------------

 SCF Done:  E(UB3LYP) =  -100.784354831     a.u. after   23 cycles

 Alpha  occ. eigenvalues --  -24.72884  -1.19019  -0.52002  -0.43660  -0.43660
 Alpha  occ. eigenvalues --   -0.34630
 Alpha virt. eigenvalues --   -0.12430   0.24939   0.31538   0.90202   0.92986
 Alpha virt. eigenvalues --    0.92986   1.05255   1.15348   1.23242   1.23242
 Alpha virt. eigenvalues --    1.35441   1.35441   1.53860   2.11948   2.37087

  Beta  occ. eigenvalues --  -24.69953  -1.10647  -0.40732  -0.40732  -0.34692
  Beta virt. eigenvalues --   -0.24227  -0.11660   0.26379   0.31454   0.94404
  Beta virt. eigenvalues --    0.94404   0.97864   1.08223   1.17288   1.23224
  Beta virt. eigenvalues --    1.23224   1.36592   1.36592   1.54627   2.12960

 Mulliken charges and spin densities:
               1          2
     1  H    0.035483  -0.742832
     2  H    0.027514   0.815425
     3  F   -0.062997   0.927406
 Sum of Mulliken charges =   0.00000   1.00000

 Dipole moment (field-independent basis, Debye):
    X=             -1.1029    Y=             -0.0000    Z=              0.0000  Tot=              1.1029
 Quadrupole moment (field-independent basis, Debye-Ang):
   XX=             -7.7332   YY=             -7.6922   ZZ=             -7.6922
   XY=              0.0000   XZ=             -0.0000   YZ=              0.0000

  Exact polarizability:      62.410       0.000       2.007      -0.000       0.000       2.007
 Approx polarizability:      66.852       0.000       1.938      -0.000       0.000       1.938

 ******    2 imaginary frequencies (negative Signs) ******

                      1                      2                      3
                      A                      A                      A
 Frequencies --  -1562.5547              -336.5928               648.7783
 Red. masses --      1.0083                 1.1079                 1.0144
 Frc consts  --      1.4505                 0.0740                 0.2516
 IR Inten    --     92.6420                46.2233                 0.4906

                      4
                      A
 Frequencies --    648.7783
 Red. masses --      1.0144
 Frc consts  --      0.2516
 IR Inten    --      0.4906

 - Thermochemistry -
 -------------------
 Temperature   298.150 Kelvin.  Pressure   1.00000 Atm.
 Atom     1 has atomic number  1 and mass   1.00783

 Molecular mass:    21.01405 amu.
 Principal axes and moments of inertia in atomic units:
                           1         2         3
     Eigenvalues --     0.00000  90.83457  90.83457
           X            1.00000  -0.00000   0.00000
           Y            0.00000   1.00000   0.00000
           Z            0.00000   0.00000   1.00000
 This molecule is a prolate symmetric top.
 Rotational symmetry number  1.
 Rotational temperature (Kelvin)      0.95353
 Rotational constant (GHZ):          19.868440
    2 imaginary frequencies ignored.
 Zero-point vibrational energy       7761.1 (Joules/Mol)
                                    1.85495 (Kcal/Mol)
 Vibrational temperatures:    933.45   933.45
          (Kelvin)

 Zero-point correction=                           0.002956 (Hartree/Particle)
 Thermal correction to Energy=                    0.005587
 Thermal correction to Enthalpy=                  0.006531
 Thermal correction to Gibbs Free Energy=        -0.017509
 Sum of electronic and zero-point Energies=           -100.781399
 Sum of electronic and thermal Energies=              -100.778768
 Sum of electronic and thermal Enthalpies=            -100.777824
 Sum of electronic and thermal Free Energies=         -100.801864

                     E (Thermal)             CV                S
                      KCal/Mol        Cal/Mol-Kelvin    Cal/Mol-Kelvin
 Total                    3.506              6.829             50.595
 Electronic               0.000              0.000              1.377
 Translational            0.889              2.981             35.068
 Rotational               0.592              1.987             13.404
 Vibrational              2.024              1.861              0.746

 Normal termination of Gaussian 16 at Fri Aug 22 18:14:12 2025.
