 Gaussian 16, Revision C.01,
 Gaussian 16:  ES64L-G16RevC.01  3-Jul-2019

 -----------------------------------------
 # sp b3lyp/6-311g** Force nosymm scf=(qc)
 -----------------------------------------

 -------------------
 Title Card Required
 -------------------
 Symbolic Z-matrix:
 Charge =  0 Multiplicity = 2

                          Input orientation:
 ---------------------------------------------------------------------
 Center     Atomic      Atomic             Coordinates (Angstroms)
 Number     Number       Type             X           Y           Z
 ---------------------------------------------------------------------
      1          1           0        0.000000    0.000000    0.000000
      2          1           0       -3.550000    0.000000    0.000000
      3          9           0        1.100000    0.000000    0.000000
 ---------------------------------------------------------------------

 SCF Done:  E(UB3LYP) =  -100.948432068     a.u. after    6 cycles

 Alpha  occ. eigenvalues --  -24.64294  -1.13866  -0.49611  -0.38100  -0.38100
 Alpha  occ. eigenvalues --   -0.33734
 Alpha virt. eigenvalues --   -0.02477   0.23096   0.31307   0.93571   0.93571
 Alpha virt. eigenvalues --    0.99602   1.23712   1.23780   1.23780   1.28669
 Alpha virt. eigenvalues --    1.35216   1.35216   1.79564   2.13958   2.31790

  Beta  occ. eigenvalues --  -24.64292  -1.13859  -0.49604  -0.38098  -0.38098
  Beta virt. eigenvalues --   -0.06415  -0.01677   0.29510   0.39131   0.93571
  Beta virt. eigenvalues --    0.93571   0.99608   1.28600   1.35212   1.35212
  Beta virt. eigenvalues --    1.49149   1.49149   1.49283   1.79589   2.31455

 Mulliken charges and spin densities:
               1          2
     1  H    0.340242   0.000338
     2  H    0.000999   0.998868
     3  F   -0.341241   0.000794
 Sum of Mulliken charges =   0.00000   1.00000

 Dipole moment (field-independent basis, Debye):
    X=             -2.1703    Y=             -0.0000    Z=             -0.0000  Tot=              2.1703
 Quadrupole moment (field-independent basis, Debye-Ang):
   XX=             -8.5476   YY=             -7.0486   ZZ=             -7.0486
   XY=             -0.0000   XZ=             -0.0000   YZ=             -0.0000

  Exact polarizability:       7.979       0.000       2.364      -0.000       0.000       2.364
 Approx polarizability:      10.460      -0.000       2.328      -0.000       0.000       2.328

 ******    1 imaginary frequencies (negative Signs) ******

                      1                      2                      3
                      A                      A                      A
 Frequencies --    -49.6265              1185.2496              1185.2496
 Red. masses --      1.0531                 1.0357                 1.0357
 Frc consts  --      0.0015                 0.8573                 0.8573
 IR Inten    --      0.0632               157.4315               157.4315

                      4
                      A
 Frequencies --   1940.1130
 Red. masses --      1.0584
 Frc consts  --      2.3472
 IR Inten    --     77.8648

 - Thermochemistry -
 -------------------
 Temperature   298.150 Kelvin.  Pressure   1.00000 Atm.
 Atom     1 has atomic number  1 and mass   1.00783

 Molecular mass:    21.01405 amu.
 Principal axes and moments of inertia in atomic units:
                           1         2         3
     Eigenvalues --     0.00000  76.46755  76.46755
           X            1.00000  -0.00000   0.00000
           Y            0.00000   1.00000   0.00000
           Z            0.00000   0.00000   1.00000
 This molecule is a prolate symmetric top.
 Rotational symmetry number  1.
 Rotational temperature (Kelvin)      1.13269
 Rotational constant (GHZ):          23.601401
    1 imaginary frequencies ignored.
 Zero-point vibrational energy      25783.2 (Joules/Mol)
                                    6.16233 (Kcal/Mol)
 Vibrational temperatures:   1705.31  1705.31  2791.39
          (Kelvin)

 Zero-point correction=                           0.009820 (Hartree/Particle)
 Thermal correction to Energy=                    0.012217
 Thermal correction to Enthalpy=                  0.013161
 Thermal correction to Gibbs Free Energy=        -0.010404
 Sum of electronic and zero-point Energies=           -100.938612
 Sum of electronic and thermal Energies=              -100.936215
 Sum of electronic and thermal Enthalpies=            -100.935271
 Sum of electronic and thermal Free Energies=         -100.958836

                     E (Thermal)             CV                S
                      KCal/Mol        Cal/Mol-Kelvin    Cal/Mol-Kelvin
 Total                    7.666              5.412             49.597
 Electronic               0.000              0.000              1.377
 Translational            0.889              2.981             35.068
 Rotational               0.592              1.987             13.062
 Vibrational              6.185              0.444              0.090

 Normal termination of Gaussian 16 at Fri Aug 22 16:06:21 2025.
