 Gaussian 16, Revision C.01,
 Gaussian 16:  ES64L-G16RevC.01  3-Jul-2019

 -----------------------------------------
 # sp b3lyp/6-311g** Force nosymm scf=(qc)
 -----------------------------------------

 -------------------
 Title Card Required
 -------------------
 Symbolic Z-matrix:
 Charge =  0 Multiplicity = 2

                          Input orientation:
 ---------------------------------------------------------------------
 Center     Atomic      Atomic             Coordinates (Angstroms)
 Number     Number       Type             X           Y           Z
 ---------------------------------------------------------------------
      1          1           0        0.000000    0.000000    0.000000
      2          1           0       -2.950000    0.000000    0.000000
      3          9           0        3.000000    0.000000    0.000000
 ---------------------------------------------------------------------

 SCF Done:  E(UB3LYP) =  -100.762074475     a.u. after   21 cycles

 Alpha  occ. eigenvalues --  -24.74109  -1.20166  -0.53227  -0.44693  -0.44693
 Alpha  occ. eigenvalues --   -0.32742
 Alpha virt. eigenvalues --   -0.09165   0.24746   0.34941   0.89459   0.92262
 Alpha virt. eigenvalues --    0.92262   1.03939   1.24803   1.24803   1.25714
 Alpha virt. eigenvalues --    1.42281   1.42281   1.42772   2.15538   2.38738

  Beta  occ. eigenvalues --  -24.71080  -1.11487  -0.41662  -0.41662  -0.33764
  Beta virt. eigenvalues --   -0.24793  -0.07773   0.24765   0.36526   0.93724
  Beta virt. eigenvalues --    0.93724   0.98184   1.07744   1.23614   1.23614
  Beta virt. eigenvalues --    1.24644   1.44446   1.44446   1.44487   2.16032

 Mulliken charges and spin densities:
               1          2
     1  H    0.034817  -0.951121
     2  H    0.001835   0.991573
     3  F   -0.036652   0.959547
 Sum of Mulliken charges =  -0.00000   1.00000

 Dipole moment (field-independent basis, Debye):
    X=             -0.5905    Y=              0.0000    Z=              0.0000  Tot=              0.5905
 Quadrupole moment (field-independent basis, Debye-Ang):
   XX=             -8.1787   YY=             -7.6240   ZZ=             -7.6240
   XY=             -0.0000   XZ=             -0.0000   YZ=             -0.0000

  Exact polarizability:      35.601      -0.000       2.021      -0.000      -0.000       2.021
 Approx polarizability:      34.559      -0.000       1.924      -0.000       0.000       1.924

 ******    2 imaginary frequencies (negative Signs) ******

                      1                      2                      3
                      A                      A                      A
 Frequencies --   -458.3507              -193.7683               169.2527
 Red. masses --      1.0233                 1.0904                 1.0177
 Frc consts  --      0.1267                 0.0241                 0.0172
 IR Inten    --     33.3739                 6.8597                 1.0696

                      4
                      A
 Frequencies --    169.2527
 Red. masses --      1.0177
 Frc consts  --      0.0172
 IR Inten    --      1.0696

 - Thermochemistry -
 -------------------
 Temperature   298.150 Kelvin.  Pressure   1.00000 Atm.
 Atom     1 has atomic number  1 and mass   1.00783

 Molecular mass:    21.01405 amu.
 Principal axes and moments of inertia in atomic units:
                           1         2         3
     Eigenvalues --     0.00000 145.97873 145.97873
           X            1.00000  -0.00000   0.00000
           Y            0.00000   1.00000   0.00000
           Z            0.00000   0.00000   1.00000
 This molecule is a prolate symmetric top.
 Rotational symmetry number  1.
 Rotational temperature (Kelvin)      0.59333
 Rotational constant (GHZ):          12.363042
    2 imaginary frequencies ignored.
 Zero-point vibrational energy       2024.7 (Joules/Mol)
                                    0.48392 (Kcal/Mol)
 Warning -- explicit consideration of   2 degrees of freedom as
           vibrations may cause significant error
 Vibrational temperatures:    243.52   243.52
          (Kelvin)

 Zero-point correction=                           0.000771 (Hartree/Particle)
 Thermal correction to Energy=                    0.004353
 Thermal correction to Enthalpy=                  0.005297
 Thermal correction to Gibbs Free Energy=        -0.021158
 Sum of electronic and zero-point Energies=           -100.761303
 Sum of electronic and thermal Energies=              -100.757722
 Sum of electronic and thermal Enthalpies=            -100.756778
 Sum of electronic and thermal Free Energies=         -100.783233

                     E (Thermal)             CV                S
                      KCal/Mol        Cal/Mol-Kelvin    Cal/Mol-Kelvin
 Total                    2.731              8.729             55.680
 Electronic               0.000              0.000              1.377
 Translational            0.889              2.981             35.068
 Rotational               0.592              1.987             14.347
 Vibrational              1.250              3.761              4.888
 Vibration     1          0.625              1.880              2.444
 Vibration     2          0.625              1.880              2.444

 Normal termination of Gaussian 16 at Fri Aug 22 19:32:34 2025.
