 Gaussian 16, Revision C.01,
 Gaussian 16:  ES64L-G16RevC.01  3-Jul-2019

 -----------------------------------------
 # sp b3lyp/6-311g** Force nosymm scf=(qc)
 -----------------------------------------

 -------------------
 Title Card Required
 -------------------
 Symbolic Z-matrix:
 Charge =  0 Multiplicity = 2

                          Input orientation:
 ---------------------------------------------------------------------
 Center     Atomic      Atomic             Coordinates (Angstroms)
 Number     Number       Type             X           Y           Z
 ---------------------------------------------------------------------
      1          1           0        0.000000    0.000000    0.000000
      2          1           0       -0.500000    0.000000    0.000000
      3          9           0        0.550000    0.000000    0.000000
 ---------------------------------------------------------------------

 SCF Done:  E(UB3LYP) =  -100.177529665     a.u. after    6 cycles

 Alpha  occ. eigenvalues --  -24.74057  -1.59790  -0.79079  -0.54178  -0.54178
 Alpha  occ. eigenvalues --   -0.21665
 Alpha virt. eigenvalues --    0.16090   0.20774   0.80611   0.80917   0.80917
 Alpha virt. eigenvalues --    0.97239   1.12778   1.12778   1.44148   1.49590
 Alpha virt. eigenvalues --    2.12538   2.12538   2.28673   3.67021   3.67021

  Beta  occ. eigenvalues --  -24.73176  -1.56661  -0.76757  -0.53437  -0.53437
  Beta virt. eigenvalues --   -0.05051   0.16884   0.27094   0.81728   0.82232
  Beta virt. eigenvalues --    0.82232   1.03485   1.17832   1.17832   1.45780
  Beta virt. eigenvalues --    1.53196   2.17966   2.17966   2.36803   3.67467

 Mulliken charges and spin densities:
               1          2
     1  H    0.205919  -0.177341
     2  H   -0.305703   1.144228
     3  F    0.099784   0.033113
 Sum of Mulliken charges =   0.00000   1.00000

 Dipole moment (field-independent basis, Debye):
    X=              0.4770    Y=             -0.0000    Z=              0.0000  Tot=              0.4770
 Quadrupole moment (field-independent basis, Debye-Ang):
   XX=             -7.8450   YY=             -6.6104   ZZ=             -6.6104
   XY=             -0.0000   XZ=              0.0000   YZ=              0.0000

  Exact polarizability:       8.574      -0.000       2.376      -0.000       0.000       2.376
 Approx polarizability:       8.081      -0.000       2.505      -0.000       0.000       2.505

 ******    2 imaginary frequencies (negative Signs) ******

                      1                      2                      3
                      A                      A                      A
 Frequencies --  -8770.5092             -8770.5092              6855.7663
 Red. masses --      1.0168                 1.0168                 1.0728
 Frc consts  --     46.0837                46.0837                29.7073
 IR Inten    --    241.4300               241.4300               933.4794

                      4
                      A
 Frequencies --  17236.4969
 Red. masses --      1.0393
 Frc consts  --    181.9271
 IR Inten    --      2.5771

 - Thermochemistry -
 -------------------
 Temperature   298.150 Kelvin.  Pressure   1.00000 Atm.
 Atom     1 has atomic number  1 and mass   1.00783

 Molecular mass:    21.01405 amu.
 Principal axes and moments of inertia in atomic units:
                           1         2         3
     Eigenvalues --     0.00000   4.61473   4.61473
           X            1.00000  -0.00000   0.00000
           Y            0.00000   1.00000   0.00000
           Z            0.00000   0.00000   1.00000
 This molecule is a prolate symmetric top.
 Rotational symmetry number  1.
 Rotational temperature (Kelvin)     18.76900
 Rotational constant (GHZ):         391.082450
    2 imaginary frequencies ignored.
 Zero-point vibrational energy     144103.7 (Joules/Mol)
                                   34.44162 (Kcal/Mol)
 Vibrational temperatures:   9863.92 24799.47
          (Kelvin)

 Zero-point correction=                           0.054886 (Hartree/Particle)
 Thermal correction to Energy=                    0.057247
 Thermal correction to Enthalpy=                  0.058191
 Thermal correction to Gibbs Free Energy=         0.037319
 Sum of electronic and zero-point Energies=           -100.122643
 Sum of electronic and thermal Energies=              -100.120283
 Sum of electronic and thermal Enthalpies=            -100.119339
 Sum of electronic and thermal Free Energies=         -100.140210

                     E (Thermal)             CV                S
                      KCal/Mol        Cal/Mol-Kelvin    Cal/Mol-Kelvin
 Total                   35.923              4.968             43.928
 Electronic               0.000              0.000              1.377
 Translational            0.889              2.981             35.068
 Rotational               0.592              1.987              7.483
 Vibrational             34.442              0.000              0.000

 Normal termination of Gaussian 16 at Fri Aug 22 15:38:17 2025.
