 Gaussian 16, Revision C.01,
 Gaussian 16:  ES64L-G16RevC.01  3-Jul-2019

 -----------------------------------------
 # sp b3lyp/6-311g** Force nosymm scf=(qc)
 -----------------------------------------

 -------------------
 Title Card Required
 -------------------
 Symbolic Z-matrix:
 Charge =  0 Multiplicity = 2

                          Input orientation:
 ---------------------------------------------------------------------
 Center     Atomic      Atomic             Coordinates (Angstroms)
 Number     Number       Type             X           Y           Z
 ---------------------------------------------------------------------
      1          1           0        0.000000    0.000000    0.000000
      2          1           0       -2.350000    0.000000    0.000000
      3          9           0        1.150000    0.000000    0.000000
 ---------------------------------------------------------------------

 SCF Done:  E(UB3LYP) =  -100.938249436     a.u. after    6 cycles

 Alpha  occ. eigenvalues --  -24.64056  -1.12806  -0.48601  -0.37573  -0.37573
 Alpha  occ. eigenvalues --   -0.35582
 Alpha virt. eigenvalues --   -0.02740   0.24674   0.29466   0.93570   0.93570
 Alpha virt. eigenvalues --    1.00267   1.18745   1.21941   1.21941   1.35196
 Alpha virt. eigenvalues --    1.35196   1.37201   1.76531   2.12751   2.31454

  Beta  occ. eigenvalues --  -24.64000  -1.12667  -0.48347  -0.37523  -0.37523
  Beta virt. eigenvalues --   -0.11847  -0.00228   0.29458   0.36087   0.93570
  Beta virt. eigenvalues --    0.93570   1.00422   1.26973   1.35059   1.35059
  Beta virt. eigenvalues --    1.42704   1.42704   1.48797   1.76671   2.30044

 Mulliken charges and spin densities:
               1          2
     1  H    0.338635   0.000155
     2  H    0.012668   0.983190
     3  F   -0.351304   0.016656
 Sum of Mulliken charges =  -0.00000   1.00000

 Dipole moment (field-independent basis, Debye):
    X=             -2.3792    Y=              0.0000    Z=              0.0000  Tot=              2.3792
 Quadrupole moment (field-independent basis, Debye-Ang):
   XX=             -8.3241   YY=             -7.0774   ZZ=             -7.0774
   XY=              0.0000   XZ=              0.0000   YZ=             -0.0000

  Exact polarizability:      12.329       0.000       2.377       0.000       0.000       2.377
 Approx polarizability:      15.110       0.000       2.342      -0.000       0.000       2.342

 ******    1 imaginary frequencies (negative Signs) ******

                      1                      2                      3
                      A                      A                      A
 Frequencies --   -182.3829              1177.6008              1177.6008
 Red. masses --      1.0489                 1.0284                 1.0284
 Frc consts  --      0.0206                 0.8403                 0.8403
 IR Inten    --      5.0322               131.4907               131.4907

                      4
                      A
 Frequencies --   1406.5502
 Red. masses --      1.0627
 Frc consts  --      1.2388
 IR Inten    --    140.6896

 - Thermochemistry -
 -------------------
 Temperature   298.150 Kelvin.  Pressure   1.00000 Atm.
 Atom     1 has atomic number  1 and mass   1.00783

 Molecular mass:    21.01405 amu.
 Principal axes and moments of inertia in atomic units:
                           1         2         3
     Eigenvalues --     0.00000  45.11535  45.11535
           X            1.00000  -0.00000   0.00000
           Y            0.00000   1.00000   0.00000
           Z            0.00000   0.00000   1.00000
 This molecule is a prolate symmetric top.
 Rotational symmetry number  1.
 Rotational temperature (Kelvin)      1.91983
 Rotational constant (GHZ):          40.002819
    1 imaginary frequencies ignored.
 Zero-point vibrational energy      22500.3 (Joules/Mol)
                                    5.37769 (Kcal/Mol)
 Vibrational temperatures:   1694.30  1694.30  2023.71
          (Kelvin)

 Zero-point correction=                           0.008570 (Hartree/Particle)
 Thermal correction to Energy=                    0.010974
 Thermal correction to Enthalpy=                  0.011918
 Thermal correction to Gibbs Free Energy=        -0.011157
 Sum of electronic and zero-point Energies=           -100.929680
 Sum of electronic and thermal Energies=              -100.927275
 Sum of electronic and thermal Enthalpies=            -100.926331
 Sum of electronic and thermal Free Energies=         -100.949407

                     E (Thermal)             CV                S
                      KCal/Mol        Cal/Mol-Kelvin    Cal/Mol-Kelvin
 Total                    6.886              5.511             48.567
 Electronic               0.000              0.000              1.377
 Translational            0.889              2.981             35.068
 Rotational               0.592              1.987             12.013
 Vibrational              5.405              0.543              0.108

 Normal termination of Gaussian 16 at Fri Aug 22 16:07:58 2025.
