 Gaussian 16, Revision C.01,
 Gaussian 16:  ES64L-G16RevC.01  3-Jul-2019

 -----------------------------------------
 # sp b3lyp/6-311g** Force nosymm scf=(qc)
 -----------------------------------------

 -------------------
 Title Card Required
 -------------------
 Symbolic Z-matrix:
 Charge =  0 Multiplicity = 2

                          Input orientation:
 ---------------------------------------------------------------------
 Center     Atomic      Atomic             Coordinates (Angstroms)
 Number     Number       Type             X           Y           Z
 ---------------------------------------------------------------------
      1          1           0        0.000000    0.000000    0.000000
      2          1           0       -1.700000    0.000000    0.000000
      3          9           0        2.950000    0.000000    0.000000
 ---------------------------------------------------------------------

 SCF Done:  E(UB3LYP) =  -100.796428140     a.u. after   26 cycles

 Alpha  occ. eigenvalues --  -24.74599  -1.20621  -0.53726  -0.45113  -0.45113
 Alpha  occ. eigenvalues --   -0.34241
 Alpha virt. eigenvalues --   -0.11554   0.25003   0.30415   0.89744   0.91936
 Alpha virt. eigenvalues --    0.91936   1.04010   1.07204   1.22621   1.22621
 Alpha virt. eigenvalues --    1.37018   1.37018   1.66701   2.15763   2.41763

  Beta  occ. eigenvalues --  -24.71551  -1.11878  -0.42061  -0.42061  -0.34089
  Beta virt. eigenvalues --   -0.25237  -0.11217   0.25636   0.30589   0.93400
  Beta virt. eigenvalues --    0.93400   0.98293   1.06362   1.09209   1.22801
  Beta virt. eigenvalues --    1.22801   1.37362   1.37362   1.67136   2.16731

 Mulliken charges and spin densities:
               1          2
     1  H    0.008257  -0.598990
     2  H    0.020782   0.633116
     3  F   -0.029038   0.965874
 Sum of Mulliken charges =  -0.00000   1.00000

 Dipole moment (field-independent basis, Debye):
    X=             -0.6058    Y=             -0.0000    Z=              0.0000  Tot=              0.6058
 Quadrupole moment (field-independent basis, Debye-Ang):
   XX=             -6.7617   YY=             -7.7403   ZZ=             -7.7403
   XY=             -0.0000   XZ=              0.0000   YZ=              0.0000

  Exact polarizability:      60.105      -0.000       2.017       0.000       0.000       2.017
 Approx polarizability:      67.728      -0.000       1.973       0.000      -0.000       1.973

 ******    2 imaginary frequencies (negative Signs) ******

                      1                      2                      3
                      A                      A                      A
 Frequencies --  -1915.6808              -230.3602               889.9875
 Red. masses --      1.0079                 1.1084                 1.0126
 Frc consts  --      2.1793                 0.0347                 0.4726
 IR Inten    --    123.6322                27.3866                 0.0000

                      4
                      A
 Frequencies --    889.9875
 Red. masses --      1.0126
 Frc consts  --      0.4726
 IR Inten    --      0.0000

 - Thermochemistry -
 -------------------
 Temperature   298.150 Kelvin.  Pressure   1.00000 Atm.
 Atom     1 has atomic number  1 and mass   1.00783

 Molecular mass:    21.01405 amu.
 Principal axes and moments of inertia in atomic units:
                           1         2         3
     Eigenvalues --     0.00000  99.17016  99.17016
           X            1.00000  -0.00000   0.00000
           Y            0.00000   1.00000   0.00000
           Z            0.00000   0.00000   1.00000
 This molecule is a prolate symmetric top.
 Rotational symmetry number  1.
 Rotational temperature (Kelvin)      0.87339
 Rotational constant (GHZ):          18.198430
    2 imaginary frequencies ignored.
 Zero-point vibrational energy      10646.6 (Joules/Mol)
                                    2.54460 (Kcal/Mol)
 Vibrational temperatures:   1280.49  1280.49
          (Kelvin)

 Zero-point correction=                           0.004055 (Hartree/Particle)
 Thermal correction to Energy=                    0.006528
 Thermal correction to Enthalpy=                  0.007472
 Thermal correction to Gibbs Free Energy=        -0.016434
 Sum of electronic and zero-point Energies=           -100.792373
 Sum of electronic and thermal Energies=              -100.789900
 Sum of electronic and thermal Enthalpies=            -100.788956
 Sum of electronic and thermal Free Energies=         -100.812862

                     E (Thermal)             CV                S
                      KCal/Mol        Cal/Mol-Kelvin    Cal/Mol-Kelvin
 Total                    4.096              5.996             50.315
 Electronic               0.000              0.000              1.377
 Translational            0.889              2.981             35.068
 Rotational               0.592              1.987             13.579
 Vibrational              2.615              1.028              0.291

 Normal termination of Gaussian 16 at Fri Aug 22 19:16:54 2025.
