 Gaussian 16, Revision C.01,
 Gaussian 16:  ES64L-G16RevC.01  3-Jul-2019

 -----------------------------------------
 # sp b3lyp/6-311g** Force nosymm scf=(qc)
 -----------------------------------------

 -------------------
 Title Card Required
 -------------------
 Symbolic Z-matrix:
 Charge =  0 Multiplicity = 2

                          Input orientation:
 ---------------------------------------------------------------------
 Center     Atomic      Atomic             Coordinates (Angstroms)
 Number     Number       Type             X           Y           Z
 ---------------------------------------------------------------------
      1          1           0        0.000000    0.000000    0.000000
      2          1           0       -3.000000    0.000000    0.000000
      3          9           0        1.200000    0.000000    0.000000
 ---------------------------------------------------------------------

 SCF Done:  E(UB3LYP) =  -100.925750492     a.u. after    6 cycles

 Alpha  occ. eigenvalues --  -24.64295  -1.12227  -0.47717  -0.37480  -0.37480
 Alpha  occ. eigenvalues --   -0.34416
 Alpha virt. eigenvalues --   -0.05514   0.23328   0.28996   0.93223   0.93223
 Alpha virt. eigenvalues --    1.00835   1.22937   1.23113   1.23113   1.27646
 Alpha virt. eigenvalues --    1.34681   1.34681   1.73329   2.14084   2.28911

  Beta  occ. eigenvalues --  -24.64281  -1.12193  -0.47671  -0.37468  -0.37468
  Beta virt. eigenvalues --   -0.09327  -0.03588   0.27551   0.37731   0.93223
  Beta virt. eigenvalues --    0.93223   1.00868   1.26998   1.34652   1.34652
  Beta virt. eigenvalues --    1.45631   1.45815   1.45815   1.73488   2.28878

 Mulliken charges and spin densities:
               1          2
     1  H    0.350961   0.000108
     2  H    0.003770   0.995567
     3  F   -0.354731   0.004325
 Sum of Mulliken charges =   0.00000   1.00000

 Dipole moment (field-independent basis, Debye):
    X=             -2.3337    Y=              0.0000    Z=              0.0000  Tot=              2.3337
 Quadrupole moment (field-independent basis, Debye-Ang):
   XX=             -8.7402   YY=             -7.1276   ZZ=             -7.1276
   XY=              0.0000   XZ=              0.0000   YZ=              0.0000

  Exact polarizability:      10.724      -0.000       2.331       0.000      -0.000       2.331
 Approx polarizability:      14.536      -0.000       2.287       0.000      -0.000       2.287

 ******    1 imaginary frequencies (negative Signs) ******

                      1                      2                      3
                      A                      A                      A
 Frequencies --   -103.7124               989.6346              1194.8558
 Red. masses --      1.0512                 1.0604                 1.0317
 Frc consts  --      0.0067                 0.6119                 0.8678
 IR Inten    --      0.8260                82.6521               141.0620

                      4
                      A
 Frequencies --   1194.8558
 Red. masses --      1.0317
 Frc consts  --      0.8678
 IR Inten    --    141.0620

 - Thermochemistry -
 -------------------
 Temperature   298.150 Kelvin.  Pressure   1.00000 Atm.
 Atom     1 has atomic number  1 and mass   1.00783

 Molecular mass:    21.01405 amu.
 Principal axes and moments of inertia in atomic units:
                           1         2         3
     Eigenvalues --     0.00000  63.63587  63.63587
           X            1.00000  -0.00000   0.00000
           Y            0.00000   1.00000   0.00000
           Z            0.00000   0.00000   1.00000
 This molecule is a prolate symmetric top.
 Rotational symmetry number  1.
 Rotational temperature (Kelvin)      1.36109
 Rotational constant (GHZ):          28.360441
    1 imaginary frequencies ignored.
 Zero-point vibrational energy      20213.0 (Joules/Mol)
                                    4.83102 (Kcal/Mol)
 Vibrational temperatures:   1423.86  1719.13  1719.13
          (Kelvin)

 Zero-point correction=                           0.007699 (Hartree/Particle)
 Thermal correction to Energy=                    0.010132
 Thermal correction to Enthalpy=                  0.011076
 Thermal correction to Gibbs Free Energy=        -0.012360
 Sum of electronic and zero-point Energies=           -100.918052
 Sum of electronic and thermal Energies=              -100.915619
 Sum of electronic and thermal Enthalpies=            -100.914675
 Sum of electronic and thermal Free Energies=         -100.938110

                     E (Thermal)             CV                S
                      KCal/Mol        Cal/Mol-Kelvin    Cal/Mol-Kelvin
 Total                    6.358              5.773             49.324
 Electronic               0.000              0.000              1.377
 Translational            0.889              2.981             35.068
 Rotational               0.592              1.987             12.697
 Vibrational              4.877              0.805              0.182

 Normal termination of Gaussian 16 at Fri Aug 22 16:10:49 2025.
