 Gaussian 16, Revision C.01,
 Gaussian 16:  ES64L-G16RevC.01  3-Jul-2019

 -----------------------------------------
 # sp b3lyp/6-311g** Force nosymm scf=(qc)
 -----------------------------------------

 -------------------
 Title Card Required
 -------------------
 Symbolic Z-matrix:
 Charge =  0 Multiplicity = 2

                          Input orientation:
 ---------------------------------------------------------------------
 Center     Atomic      Atomic             Coordinates (Angstroms)
 Number     Number       Type             X           Y           Z
 ---------------------------------------------------------------------
      1          1           0        0.000000    0.000000    0.000000
      2          1           0       -0.950000    0.000000    0.000000
      3          9           0        1.250000    0.000000    0.000000
 ---------------------------------------------------------------------

 SCF Done:  E(UB3LYP) =  -100.943608897     a.u. after    7 cycles

 Alpha  occ. eigenvalues --  -24.66779  -1.15409  -0.55666  -0.39711  -0.39711
 Alpha  occ. eigenvalues --   -0.38671
 Alpha virt. eigenvalues --    0.08031   0.19236   0.37967   0.89200   0.89200
 Alpha virt. eigenvalues --    0.98259   1.07846   1.07846   1.34083   1.62882
 Alpha virt. eigenvalues --    1.65895   1.65895   2.23993   2.29758   2.61232

  Beta  occ. eigenvalues --  -24.65021  -1.10814  -0.47934  -0.38062  -0.38062
  Beta virt. eigenvalues --   -0.21608   0.10375   0.21016   0.41829   0.90438
  Beta virt. eigenvalues --    0.90438   1.02178   1.12135   1.12135   1.38289
  Beta virt. eigenvalues --    1.67237   1.68865   1.68865   2.24484   2.37992

 Mulliken charges and spin densities:
               1          2
     1  H    0.240623  -0.065867
     2  H    0.032941   0.556174
     3  F   -0.273564   0.509693
 Sum of Mulliken charges =  -0.00000   1.00000

 Dipole moment (field-independent basis, Debye):
    X=             -1.9700    Y=              0.0000    Z=             -0.0000  Tot=              1.9700
 Quadrupole moment (field-independent basis, Debye-Ang):
   XX=             -7.5473   YY=             -6.8251   ZZ=             -6.8251
   XY=              0.0000   XZ=             -0.0000   YZ=             -0.0000

  Exact polarizability:      21.580      -0.000       2.488       0.000       0.000       2.488
 Approx polarizability:      29.579      -0.000       2.495       0.000       0.000       2.495

 ******    1 imaginary frequencies (negative Signs) ******

                      1                      2                      3
                      A                      A                      A
 Frequencies --  -1889.4730               924.7751               924.7751
 Red. masses --      1.0456                 1.0150                 1.0150
 Frc consts  --      2.1994                 0.5114                 0.5114
 IR Inten    --    417.8883                17.1875                17.1875

                      4
                      A
 Frequencies --   1416.2808
 Red. masses --      1.0661
 Frc consts  --      1.2600
 IR Inten    --    150.8459

 - Thermochemistry -
 -------------------
 Temperature   298.150 Kelvin.  Pressure   1.00000 Atm.
 Atom     1 has atomic number  1 and mass   1.00783

 Molecular mass:    21.01405 amu.
 Principal axes and moments of inertia in atomic units:
                           1         2         3
     Eigenvalues --     0.00000  20.98820  20.98820
           X            1.00000  -0.00000   0.00000
           Y            0.00000   1.00000   0.00000
           Z            0.00000   0.00000   1.00000
 This molecule is a prolate symmetric top.
 Rotational symmetry number  1.
 Rotational temperature (Kelvin)      4.12679
 Rotational constant (GHZ):          85.988381
    1 imaginary frequencies ignored.
 Zero-point vibrational energy      19534.0 (Joules/Mol)
                                    4.66874 (Kcal/Mol)
 Vibrational temperatures:   1330.55  1330.55  2037.71
          (Kelvin)

 Zero-point correction=                           0.007440 (Hartree/Particle)
 Thermal correction to Energy=                    0.009906
 Thermal correction to Enthalpy=                  0.010850
 Thermal correction to Gibbs Free Energy=        -0.011580
 Sum of electronic and zero-point Energies=           -100.936169
 Sum of electronic and thermal Energies=              -100.933703
 Sum of electronic and thermal Enthalpies=            -100.932759
 Sum of electronic and thermal Free Energies=         -100.955189

                     E (Thermal)             CV                S
                      KCal/Mol        Cal/Mol-Kelvin    Cal/Mol-Kelvin
 Total                    6.216              6.002             47.208
 Electronic               0.000              0.000              1.377
 Translational            0.889              2.981             35.068
 Rotational               0.592              1.987             10.493
 Vibrational              4.735              1.034              0.270

 Normal termination of Gaussian 16 at Fri Aug 22 16:11:49 2025.
