 Gaussian 16, Revision C.01,
 Gaussian 16:  ES64L-G16RevC.01  3-Jul-2019

 -----------------------------------------
 # sp b3lyp/6-311g** Force nosymm scf=(qc)
 -----------------------------------------

 -------------------
 Title Card Required
 -------------------
 Symbolic Z-matrix:
 Charge =  0 Multiplicity = 2

                          Input orientation:
 ---------------------------------------------------------------------
 Center     Atomic      Atomic             Coordinates (Angstroms)
 Number     Number       Type             X           Y           Z
 ---------------------------------------------------------------------
      1          1           0        0.000000    0.000000    0.000000
      2          1           0       -1.350000    0.000000    0.000000
      3          9           0        3.600000    0.000000    0.000000
 ---------------------------------------------------------------------

 SCF Done:  E(UB3LYP) =  -100.845103607     a.u. after   36 cycles

 Alpha  occ. eigenvalues --  -24.76340  -1.22222  -0.55422  -0.46611  -0.46577
 Alpha  occ. eigenvalues --   -0.34799
 Alpha virt. eigenvalues --   -0.07147   0.23910   0.31957   0.85967   0.90843
 Alpha virt. eigenvalues --    0.91846   1.01147   1.13033   1.16662   1.16664
 Alpha virt. eigenvalues --    1.47230   1.47233   1.94261   2.27180   2.51454

  Beta  occ. eigenvalues --  -24.73183  -1.13146  -0.43447  -0.43412  -0.34797
  Beta virt. eigenvalues --   -0.26066  -0.07144   0.23917   0.31981   0.92343
  Beta virt. eigenvalues --    0.93343   0.95432   1.05266   1.13043   1.16661
  Beta virt. eigenvalues --    1.16664   1.47230   1.47233   1.94266   2.27181

 Mulliken charges and spin densities:
               1          2
     1  H    0.000602   0.000003
     2  H   -0.002834  -0.000263
     3  F    0.002232   1.000260
 Sum of Mulliken charges =  -0.00000   1.00000

 Dipole moment (field-independent basis, Debye):
    X=              0.0411    Y=             -0.0000    Z=              0.0000  Tot=              0.0411
 Quadrupole moment (field-independent basis, Debye-Ang):
   XX=             -6.2729   YY=             -7.2093   ZZ=             -7.2050
   XY=              0.0000   XZ=             -0.0000   YZ=             -0.4322

  Exact polarizability:      19.241       0.000       2.297      -0.000      -0.233       2.299
 Approx polarizability:      32.580       0.000       2.365      -0.000      -0.291       2.368

 ******    2 imaginary frequencies (negative Signs) ******

                      1                      2                      3
                      A                      A                      A
 Frequencies --  -1087.7252               -47.7798              1354.1070
 Red. masses --      1.0078                 1.1085                 1.0103
 Frc consts  --      0.7025                 0.0015                 1.0914
 IR Inten    --      0.1534                 0.1260                 0.0017

                      4
                      A
 Frequencies --   1354.1427
 Red. masses --      1.0103
 Frc consts  --      1.0915
 IR Inten    --      0.0014

 - Thermochemistry -
 -------------------
 Temperature   298.150 Kelvin.  Pressure   1.00000 Atm.
 Atom     1 has atomic number  1 and mass   1.00783

 Molecular mass:    21.01405 amu.
 Principal axes and moments of inertia in atomic units:
                           1         2         3
     Eigenvalues --     0.00000 122.20986 122.20986
           X            1.00000  -0.00000   0.00000
           Y            0.00000   1.00000   0.00000
           Z            0.00000   0.00000   1.00000
 This molecule is a prolate symmetric top.
 Rotational symmetry number  1.
 Rotational temperature (Kelvin)      0.70873
 Rotational constant (GHZ):          14.767558
    2 imaginary frequencies ignored.
 Zero-point vibrational energy      16198.9 (Joules/Mol)
                                    3.87164 (Kcal/Mol)
 Vibrational temperatures:   1948.26  1948.31
          (Kelvin)

 Zero-point correction=                           0.006170 (Hartree/Particle)
 Thermal correction to Energy=                    0.008548
 Thermal correction to Enthalpy=                  0.009492
 Thermal correction to Gibbs Free Energy=        -0.014493
 Sum of electronic and zero-point Energies=           -100.838934
 Sum of electronic and thermal Energies=              -100.836555
 Sum of electronic and thermal Enthalpies=            -100.835611
 Sum of electronic and thermal Free Energies=         -100.859597

                     E (Thermal)             CV                S
                      KCal/Mol        Cal/Mol-Kelvin    Cal/Mol-Kelvin
 Total                    5.364              5.215             50.483
 Electronic               0.000              0.000              1.377
 Translational            0.889              2.981             35.068
 Rotational               0.592              1.987             13.994
 Vibrational              3.883              0.247              0.044

 Normal termination of Gaussian 16 at Fri Aug 22 22:56:36 2025.
