 Gaussian 16, Revision C.01,
 Gaussian 16:  ES64L-G16RevC.01  3-Jul-2019

 -----------------------------------------
 # sp b3lyp/6-311g** Force nosymm scf=(qc)
 -----------------------------------------

 -------------------
 Title Card Required
 -------------------
 Symbolic Z-matrix:
 Charge =  0 Multiplicity = 2

                          Input orientation:
 ---------------------------------------------------------------------
 Center     Atomic      Atomic             Coordinates (Angstroms)
 Number     Number       Type             X           Y           Z
 ---------------------------------------------------------------------
      1          1           0        0.000000    0.000000    0.000000
      2          1           0       -3.600000    0.000000    0.000000
      3          9           0        3.450000    0.000000    0.000000
 ---------------------------------------------------------------------

 SCF Done:  E(UB3LYP) =  -100.759156756     a.u. after   29 cycles

 Alpha  occ. eigenvalues --  -24.75294  -1.21264  -0.54416  -0.45688  -0.45688
 Alpha  occ. eigenvalues --   -0.32341
 Alpha virt. eigenvalues --   -0.06917   0.24197   0.36998   0.87756   0.91539
 Alpha virt. eigenvalues --    0.91539   1.01952   1.25161   1.25161   1.25266
 Alpha virt. eigenvalues --    1.45369   1.45369   1.45486   2.14874   2.41483

  Beta  occ. eigenvalues --  -24.72186  -1.12335  -0.42574  -0.42574  -0.32886
  Beta virt. eigenvalues --   -0.25435  -0.06325   0.23955   0.38029   0.93026
  Beta virt. eigenvalues --    0.93026   0.96856   1.05938   1.24535   1.24535
  Beta virt. eigenvalues --    1.24625   1.46079   1.46298   1.46298   2.15089

 Mulliken charges and spin densities:
               1          2
     1  H    0.013102  -0.983798
     2  H    0.000154   0.998353
     3  F   -0.013257   0.985445
 Sum of Mulliken charges =   0.00000   1.00000

 Dipole moment (field-independent basis, Debye):
    X=             -0.2378    Y=             -0.0000    Z=             -0.0000  Tot=              0.2378
 Quadrupole moment (field-independent basis, Debye-Ang):
   XX=             -7.4825   YY=             -7.6198   ZZ=             -7.6198
   XY=             -0.0000   XZ=             -0.0000   YZ=              0.0000

  Exact polarizability:      24.653      -0.000       2.034      -0.000       0.000       2.034
 Approx polarizability:      19.964      -0.000       1.933      -0.000      -0.000       1.933

 ******    2 imaginary frequencies (negative Signs) ******

                      1                      2                      3
                      A                      A                      A
 Frequencies --   -244.0910               -97.4537                75.2138
 Red. masses --      1.0340                 1.0785                 1.0185
 Frc consts  --      0.0363                 0.0060                 0.0034
 IR Inten    --     12.7457                 0.8742                 0.1546

                      4
                      A
 Frequencies --     75.2139
 Red. masses --      1.0185
 Frc consts  --      0.0034
 IR Inten    --      0.1546

 - Thermochemistry -
 -------------------
 Temperature   298.150 Kelvin.  Pressure   1.00000 Atm.
 Atom     1 has atomic number  1 and mass   1.00783

 Molecular mass:    21.01405 amu.
 Principal axes and moments of inertia in atomic units:
                           1         2         3
     Eigenvalues --     0.00000 202.68701 202.68701
           X            1.00000  -0.00000   0.00000
           Y            0.00000   1.00000   0.00000
           Z            0.00000   0.00000   1.00000
 This molecule is a prolate symmetric top.
 Rotational symmetry number  1.
 Rotational temperature (Kelvin)      0.42733
 Rotational constant (GHZ):           8.904079
    2 imaginary frequencies ignored.
 Zero-point vibrational energy        899.8 (Joules/Mol)
                                    0.21505 (Kcal/Mol)
 Warning -- explicit consideration of   2 degrees of freedom as
           vibrations may cause significant error
 Vibrational temperatures:    108.22   108.22
          (Kelvin)

 Zero-point correction=                           0.000343 (Hartree/Particle)
 Thermal correction to Energy=                    0.004270
 Thermal correction to Enthalpy=                  0.005214
 Thermal correction to Gibbs Free Energy=        -0.023042
 Sum of electronic and zero-point Energies=           -100.758814
 Sum of electronic and thermal Energies=              -100.754887
 Sum of electronic and thermal Enthalpies=            -100.753943
 Sum of electronic and thermal Free Energies=         -100.782198

                     E (Thermal)             CV                S
                      KCal/Mol        Cal/Mol-Kelvin    Cal/Mol-Kelvin
 Total                    2.679              8.899             59.469
 Electronic               0.000              0.000              1.377
 Translational            0.889              2.981             35.068
 Rotational               0.592              1.987             14.999
 Vibrational              1.198              3.931              8.024
 Vibration     1          0.599              1.966              4.012
 Vibration     2          0.599              1.966              4.012

 Normal termination of Gaussian 16 at Fri Aug 22 21:43:27 2025.
