 Gaussian 16, Revision C.01,
 Gaussian 16:  ES64L-G16RevC.01  3-Jul-2019

 -----------------------------------------
 # sp b3lyp/6-311g** Force nosymm scf=(qc)
 -----------------------------------------

 -------------------
 Title Card Required
 -------------------
 Symbolic Z-matrix:
 Charge =  0 Multiplicity = 2

                          Input orientation:
 ---------------------------------------------------------------------
 Center     Atomic      Atomic             Coordinates (Angstroms)
 Number     Number       Type             X           Y           Z
 ---------------------------------------------------------------------
      1          1           0        0.000000    0.000000    0.000000
      2          1           0       -3.750000    0.000000    0.000000
      3          9           0        2.800000    0.000000    0.000000
 ---------------------------------------------------------------------

 SCF Done:  E(UB3LYP) =  -100.762651069     a.u. after   22 cycles

 Alpha  occ. eigenvalues --  -24.73274  -1.19393  -0.52391  -0.43996  -0.43996
 Alpha  occ. eigenvalues --   -0.32599
 Alpha virt. eigenvalues --   -0.08664   0.23742   0.35967   0.89843   0.92756
 Alpha virt. eigenvalues --    0.92756   1.05030   1.24902   1.24902   1.24960
 Alpha virt. eigenvalues --    1.43019   1.43019   1.44169   2.14416   2.39577

  Beta  occ. eigenvalues --  -24.70305  -1.10902  -0.41028  -0.41028  -0.34281
  Beta virt. eigenvalues --   -0.24300  -0.06247   0.23830   0.38076   0.94196
  Beta virt. eigenvalues --    0.94196   0.98059   1.08400   1.23029   1.23029
  Beta virt. eigenvalues --    1.24586   1.46247   1.46458   1.46458   2.13980

 Mulliken charges and spin densities:
               1          2
     1  H    0.054094  -0.938911
     2  H    0.000315   0.998892
     3  F   -0.054409   0.940019
 Sum of Mulliken charges =  -0.00000   1.00000

 Dipole moment (field-independent basis, Debye):
    X=             -0.7864    Y=              0.0000    Z=             -0.0000  Tot=              0.7864
 Quadrupole moment (field-independent basis, Debye-Ang):
   XX=             -8.7447   YY=             -7.5954   ZZ=             -7.5954
   XY=              0.0000   XZ=             -0.0000   YZ=             -0.0000

  Exact polarizability:      31.616       0.000       2.025      -0.000       0.000       2.025
 Approx polarizability:      35.738       0.000       1.923      -0.000       0.000       1.923

 ******    2 imaginary frequencies (negative Signs) ******

                      1                      2                      3
                      A                      A                      A
 Frequencies --   -451.6452               -91.2955               164.5766
 Red. masses --      1.0539                 1.0577                 1.0218
 Frc consts  --      0.1267                 0.0052                 0.0163
 IR Inten    --     54.9084                 0.1468                 2.8161

                      4
                      A
 Frequencies --    164.5766
 Red. masses --      1.0218
 Frc consts  --      0.0163
 IR Inten    --      2.8161

 - Thermochemistry -
 -------------------
 Temperature   298.150 Kelvin.  Pressure   1.00000 Atm.
 Atom     1 has atomic number  1 and mass   1.00783

 Molecular mass:    21.01405 amu.
 Principal axes and moments of inertia in atomic units:
                           1         2         3
     Eigenvalues --     0.00000 167.53296 167.53296
           X            1.00000  -0.00000   0.00000
           Y            0.00000   1.00000   0.00000
           Z            0.00000   0.00000   1.00000
 This molecule is a prolate symmetric top.
 Rotational symmetry number  1.
 Rotational temperature (Kelvin)      0.51700
 Rotational constant (GHZ):          10.772454
    2 imaginary frequencies ignored.
 Zero-point vibrational energy       1968.8 (Joules/Mol)
                                    0.47055 (Kcal/Mol)
 Warning -- explicit consideration of   2 degrees of freedom as
           vibrations may cause significant error
 Vibrational temperatures:    236.79   236.79
          (Kelvin)

 Zero-point correction=                           0.000750 (Hartree/Particle)
 Thermal correction to Energy=                    0.004347
 Thermal correction to Enthalpy=                  0.005291
 Thermal correction to Gibbs Free Energy=        -0.021344
 Sum of electronic and zero-point Energies=           -100.761901
 Sum of electronic and thermal Energies=              -100.758304
 Sum of electronic and thermal Enthalpies=            -100.757360
 Sum of electronic and thermal Free Energies=         -100.783995

                     E (Thermal)             CV                S
                      KCal/Mol        Cal/Mol-Kelvin    Cal/Mol-Kelvin
 Total                    2.728              8.740             56.059
 Electronic               0.000              0.000              1.377
 Translational            0.889              2.981             35.068
 Rotational               0.592              1.987             14.620
 Vibrational              1.247              3.772              4.993
 Vibration     1          0.623              1.886              2.497
 Vibration     2          0.623              1.886              2.497

 Normal termination of Gaussian 16 at Fri Aug 22 18:44:51 2025.
