 Gaussian 16, Revision C.01,
 Gaussian 16:  ES64L-G16RevC.01  3-Jul-2019

 -----------------------------------------
 # sp b3lyp/6-311g** Force nosymm scf=(qc)
 -----------------------------------------

 -------------------
 Title Card Required
 -------------------
 Symbolic Z-matrix:
 Charge =  0 Multiplicity = 2

                          Input orientation:
 ---------------------------------------------------------------------
 Center     Atomic      Atomic             Coordinates (Angstroms)
 Number     Number       Type             X           Y           Z
 ---------------------------------------------------------------------
      1          1           0        0.000000    0.000000    0.000000
      2          1           0       -3.850000    0.000000    0.000000
      3          9           0        0.800000    0.000000    0.000000
 ---------------------------------------------------------------------

 SCF Done:  E(UB3LYP) =  -100.950282291     a.u. after    6 cycles

 Alpha  occ. eigenvalues --  -24.63681  -1.23047  -0.56193  -0.40656  -0.40656
 Alpha  occ. eigenvalues --   -0.33296
 Alpha virt. eigenvalues --    0.05070   0.24250   0.45967   0.94198   0.94198
 Alpha virt. eigenvalues --    0.96995   1.24109   1.24210   1.24210   1.29296
 Alpha virt. eigenvalues --    1.39809   1.39809   2.02133   2.14396   2.53056

  Beta  occ. eigenvalues --  -24.63681  -1.23046  -0.56192  -0.40656  -0.40656
  Beta virt. eigenvalues --   -0.04952   0.05286   0.39040   0.46021   0.94198
  Beta virt. eigenvalues --    0.94198   0.96991   1.29162   1.39809   1.39809
  Beta virt. eigenvalues --    1.50698   1.50866   1.50866   2.02302   2.44719

 Mulliken charges and spin densities:
               1          2
     1  H    0.275042   0.000342
     2  H    0.000405   0.999538
     3  F   -0.275446   0.000120
 Sum of Mulliken charges =   0.00000   1.00000

 Dipole moment (field-independent basis, Debye):
    X=             -1.7362    Y=              0.0000    Z=             -0.0000  Tot=              1.7362
 Quadrupole moment (field-independent basis, Debye-Ang):
   XX=             -7.6316   YY=             -6.7693   ZZ=             -6.7693
   XY=              0.0000   XZ=             -0.0000   YZ=             -0.0000

  Exact polarizability:       4.449      -0.000       2.439       0.000       0.000       2.439
 Approx polarizability:       5.043      -0.000       2.419       0.000       0.000       2.419

 ******    3 imaginary frequencies (negative Signs) ******

                      1                      2                      3
                      A                      A                      A
 Frequencies --  -1984.9344             -1984.9344               -29.9461
 Red. masses --      1.0415                 1.0415                 1.0532
 Frc consts  --      2.4176                 2.4176                 0.0006
 IR Inten    --    197.9363               197.9363                 0.0121

                      4
                      A
 Frequencies --   6349.9358
 Red. masses --      1.0583
 Frc consts  --     25.1421
 IR Inten    --    103.7249

 - Thermochemistry -
 -------------------
 Temperature   298.150 Kelvin.  Pressure   1.00000 Atm.
 Atom     1 has atomic number  1 and mass   1.00783

 Molecular mass:    21.01405 amu.
 Principal axes and moments of inertia in atomic units:
                           1         2         3
     Eigenvalues --     0.00000  74.99607  74.99607
           X            1.00000  -0.00000   0.00000
           Y            0.00000   1.00000   0.00000
           Z            0.00000   0.00000   1.00000
 This molecule is a prolate symmetric top.
 Rotational symmetry number  1.
 Rotational temperature (Kelvin)      1.15491
 Rotational constant (GHZ):          24.064477
    3 imaginary frequencies ignored.
 Zero-point vibrational energy      37981.1 (Joules/Mol)
                                    9.07769 (Kcal/Mol)
 Vibrational temperatures:   9136.14
          (Kelvin)

 Zero-point correction=                           0.014466 (Hartree/Particle)
 Thermal correction to Energy=                    0.016827
 Thermal correction to Enthalpy=                  0.017771
 Thermal correction to Gibbs Free Energy=        -0.005733
 Sum of electronic and zero-point Energies=           -100.935816
 Sum of electronic and thermal Energies=              -100.933456
 Sum of electronic and thermal Enthalpies=            -100.932511
 Sum of electronic and thermal Free Energies=         -100.956016

                     E (Thermal)             CV                S
                      KCal/Mol        Cal/Mol-Kelvin    Cal/Mol-Kelvin
 Total                   10.559              4.968             49.469
 Electronic               0.000              0.000              1.377
 Translational            0.889              2.981             35.068
 Rotational               0.592              1.987             13.023
 Vibrational              9.078              0.000              0.000

 Normal termination of Gaussian 16 at Fri Aug 22 15:52:17 2025.
