 Gaussian 16, Revision C.01,
 Gaussian 16:  ES64L-G16RevC.01  3-Jul-2019

 -----------------------------------------
 # sp b3lyp/6-311g** Force nosymm scf=(qc)
 -----------------------------------------

 -------------------
 Title Card Required
 -------------------
 Symbolic Z-matrix:
 Charge =  0 Multiplicity = 2

                          Input orientation:
 ---------------------------------------------------------------------
 Center     Atomic      Atomic             Coordinates (Angstroms)
 Number     Number       Type             X           Y           Z
 ---------------------------------------------------------------------
      1          1           0        0.000000    0.000000    0.000000
      2          1           0       -2.450000    0.000000    0.000000
      3          9           0        1.100000    0.000000    0.000000
 ---------------------------------------------------------------------

 SCF Done:  E(UB3LYP) =  -100.949051140     a.u. after    5 cycles

 Alpha  occ. eigenvalues --  -24.64101  -1.13719  -0.49555  -0.37937  -0.37937
 Alpha  occ. eigenvalues --   -0.35270
 Alpha virt. eigenvalues --   -0.01324   0.24862   0.30665   0.93727   0.93727
 Alpha virt. eigenvalues --    0.99645   1.19768   1.22270   1.22270   1.35398
 Alpha virt. eigenvalues --    1.35398   1.36734   1.80531   2.13241   2.32692

  Beta  occ. eigenvalues --  -24.64065  -1.13629  -0.49395  -0.37905  -0.37905
  Beta virt. eigenvalues --   -0.10906   0.00823   0.30667   0.36624   0.93728
  Beta virt. eigenvalues --    0.93728   0.99747   1.28379   1.35324   1.35324
  Beta virt. eigenvalues --    1.43487   1.43487   1.48519   1.80669   2.31906

 Mulliken charges and spin densities:
               1          2
     1  H    0.333604   0.001684
     2  H    0.009462   0.987382
     3  F   -0.343066   0.010934
 Sum of Mulliken charges =   0.00000   1.00000

 Dipole moment (field-independent basis, Debye):
    X=             -2.2796    Y=             -0.0000    Z=             -0.0000  Tot=              2.2796
 Quadrupole moment (field-independent basis, Debye-Ang):
   XX=             -8.2358   YY=             -7.0403   ZZ=             -7.0403
   XY=             -0.0000   XZ=             -0.0000   YZ=             -0.0000

  Exact polarizability:      10.815       0.000       2.393      -0.000      -0.000       2.393
 Approx polarizability:      12.968      -0.000       2.361      -0.000       0.000       2.361

 ******    1 imaginary frequencies (negative Signs) ******

                      1                      2                      3
                      A                      A                      A
 Frequencies --   -139.4605              1159.9880              1159.9880
 Red. masses --      1.0516                 1.0298                 1.0298
 Frc consts  --      0.0121                 0.8164                 0.8164
 IR Inten    --      2.3062               140.7021               140.7021

                      4
                      A
 Frequencies --   1909.1312
 Red. masses --      1.0599
 Frc consts  --      2.2761
 IR Inten    --    128.3816

 - Thermochemistry -
 -------------------
 Temperature   298.150 Kelvin.  Pressure   1.00000 Atm.
 Atom     1 has atomic number  1 and mass   1.00783

 Molecular mass:    21.01405 amu.
 Principal axes and moments of inertia in atomic units:
                           1         2         3
     Eigenvalues --     0.00000  45.97911  45.97911
           X            1.00000  -0.00000   0.00000
           Y            0.00000   1.00000   0.00000
           Z            0.00000   0.00000   1.00000
 This molecule is a prolate symmetric top.
 Rotational symmetry number  1.
 Rotational temperature (Kelvin)      1.88377
 Rotational constant (GHZ):          39.251328
    1 imaginary frequencies ignored.
 Zero-point vibrational energy      25295.7 (Joules/Mol)
                                    6.04581 (Kcal/Mol)
 Vibrational temperatures:   1668.96  1668.96  2746.81
          (Kelvin)

 Zero-point correction=                           0.009635 (Hartree/Particle)
 Thermal correction to Energy=                    0.012035
 Thermal correction to Enthalpy=                  0.012979
 Thermal correction to Gibbs Free Energy=        -0.010110
 Sum of electronic and zero-point Energies=           -100.939417
 Sum of electronic and thermal Energies=              -100.937016
 Sum of electronic and thermal Enthalpies=            -100.936072
 Sum of electronic and thermal Free Energies=         -100.959161

                     E (Thermal)             CV                S
                      KCal/Mol        Cal/Mol-Kelvin    Cal/Mol-Kelvin
 Total                    7.552              5.450             48.596
 Electronic               0.000              0.000              1.377
 Translational            0.889              2.981             35.068
 Rotational               0.592              1.987             12.051
 Vibrational              6.071              0.482              0.100

 Normal termination of Gaussian 16 at Fri Aug 22 16:05:38 2025.
