 Gaussian 16, Revision C.01,
 Gaussian 16:  ES64L-G16RevC.01  3-Jul-2019

 -----------------------------------------
 # sp b3lyp/6-311g** Force nosymm scf=(qc)
 -----------------------------------------

 -------------------
 Title Card Required
 -------------------
 Symbolic Z-matrix:
 Charge =  0 Multiplicity = 2

                          Input orientation:
 ---------------------------------------------------------------------
 Center     Atomic      Atomic             Coordinates (Angstroms)
 Number     Number       Type             X           Y           Z
 ---------------------------------------------------------------------
      1          1           0        0.000000    0.000000    0.000000
      2          1           0       -1.150000    0.000000    0.000000
      3          9           0        1.850000    0.000000    0.000000
 ---------------------------------------------------------------------

 SCF Done:  E(UB3LYP) =  -100.890098973     a.u. after   13 cycles

 Alpha  occ. eigenvalues --  -24.71284  -1.17688  -0.51548  -0.42470  -0.42470
 Alpha  occ. eigenvalues --   -0.40079
 Alpha virt. eigenvalues --   -0.02889   0.21227   0.33800   0.91587   0.91838
 Alpha virt. eigenvalues --    0.91838   1.06914   1.09165   1.09165   1.46821
 Alpha virt. eigenvalues --    1.54384   1.54384   2.12441   2.28754   2.54612

  Beta  occ. eigenvalues --  -24.68603  -1.10151  -0.40173  -0.39818  -0.39818
  Beta virt. eigenvalues --   -0.24480  -0.00952   0.22430   0.34451   0.92937
  Beta virt. eigenvalues --    0.92937   0.98097   1.09803   1.10954   1.10954
  Beta virt. eigenvalues --    1.50242   1.55489   1.55489   2.14529   2.30542

 Mulliken charges and spin densities:
               1          2
     1  H    0.068772  -0.123080
     2  H    0.055653   0.286055
     3  F   -0.124425   0.837025
 Sum of Mulliken charges =  -0.00000   1.00000

 Dipole moment (field-independent basis, Debye):
    X=             -1.4189    Y=             -0.0000    Z=             -0.0000  Tot=              1.4189
 Quadrupole moment (field-independent basis, Debye-Ang):
   XX=             -7.0698   YY=             -7.2890   ZZ=             -7.2890
   XY=             -0.0000   XZ=             -0.0000   YZ=             -0.0000

  Exact polarizability:      37.965      -0.000       2.221      -0.000       0.000       2.221
 Approx polarizability:      55.701       0.000       2.212       0.000       0.000       2.212

 ******    1 imaginary frequencies (negative Signs) ******

                      1                      2                      3
                      A                      A                      A
 Frequencies --  -1510.4783               323.1320              1376.1421
 Red. masses --      1.0252                 1.0882                 1.0132
 Frc consts  --      1.3781                 0.0669                 1.1305
 IR Inten    --   1092.8430                22.2986                 0.4645

                      4
                      A
 Frequencies --   1376.1421
 Red. masses --      1.0132
 Frc consts  --      1.1305
 IR Inten    --      0.4645

 - Thermochemistry -
 -------------------
 Temperature   298.150 Kelvin.  Pressure   1.00000 Atm.
 Atom     1 has atomic number  1 and mass   1.00783

 Molecular mass:    21.01405 amu.
 Principal axes and moments of inertia in atomic units:
                           1         2         3
     Eigenvalues --     0.00000  40.64854  40.64854
           X            1.00000  -0.00000   0.00000
           Y            0.00000   1.00000   0.00000
           Z            0.00000   0.00000   1.00000
 This molecule is a prolate symmetric top.
 Rotational symmetry number  1.
 Rotational temperature (Kelvin)      2.13080
 Rotational constant (GHZ):          44.398675
    1 imaginary frequencies ignored.
 Zero-point vibrational energy      18395.1 (Joules/Mol)
                                    4.39653 (Kcal/Mol)
 Warning -- explicit consideration of   1 degrees of freedom as
           vibrations may cause significant error
 Vibrational temperatures:    464.91  1979.96  1979.96
          (Kelvin)

 Zero-point correction=                           0.007006 (Hartree/Particle)
 Thermal correction to Energy=                    0.009775
 Thermal correction to Enthalpy=                  0.010719
 Thermal correction to Gibbs Free Energy=        -0.012840
 Sum of electronic and zero-point Energies=           -100.883093
 Sum of electronic and thermal Energies=              -100.880324
 Sum of electronic and thermal Enthalpies=            -100.879380
 Sum of electronic and thermal Free Energies=         -100.902939

                     E (Thermal)             CV                S
                      KCal/Mol        Cal/Mol-Kelvin    Cal/Mol-Kelvin
 Total                    6.134              6.827             49.586
 Electronic               0.000              0.000              1.377
 Translational            0.889              2.981             35.068
 Rotational               0.592              1.987             11.806
 Vibrational              4.653              1.859              1.334
 Vibration     1          0.708              1.629              1.294

 Normal termination of Gaussian 16 at Fri Aug 22 16:45:55 2025.
