 Gaussian 16, Revision C.01,
 Gaussian 16:  ES64L-G16RevC.01  3-Jul-2019

 -----------------------------------------
 # sp b3lyp/6-311g** Force nosymm scf=(qc)
 -----------------------------------------

 -------------------
 Title Card Required
 -------------------
 Symbolic Z-matrix:
 Charge =  0 Multiplicity = 2

                          Input orientation:
 ---------------------------------------------------------------------
 Center     Atomic      Atomic             Coordinates (Angstroms)
 Number     Number       Type             X           Y           Z
 ---------------------------------------------------------------------
      1          1           0        0.000000    0.000000    0.000000
      2          1           0       -3.550000    0.000000    0.000000
      3          9           0        3.450000    0.000000    0.000000
 ---------------------------------------------------------------------

 SCF Done:  E(UB3LYP) =  -100.759194703     a.u. after   30 cycles

 Alpha  occ. eigenvalues --  -24.75295  -1.21265  -0.54417  -0.45689  -0.45689
 Alpha  occ. eigenvalues --   -0.32348
 Alpha virt. eigenvalues --   -0.06997   0.24232   0.36955   0.87758   0.91538
 Alpha virt. eigenvalues --    0.91538   1.01952   1.25155   1.25155   1.25282
 Alpha virt. eigenvalues --    1.45270   1.45270   1.45333   2.14938   2.41342

  Beta  occ. eigenvalues --  -24.72187  -1.12336  -0.42575  -0.42575  -0.32888
  Beta virt. eigenvalues --   -0.25436  -0.06402   0.23993   0.37978   0.93025
  Beta virt. eigenvalues --    0.93025   0.96858   1.05939   1.24534   1.24534
  Beta virt. eigenvalues --    1.24645   1.45983   1.46212   1.46212   2.15161

 Mulliken charges and spin densities:
               1          2
     1  H    0.013065  -0.983594
     2  H    0.000176   0.998137
     3  F   -0.013241   0.985457
 Sum of Mulliken charges =   0.00000   1.00000

 Dipole moment (field-independent basis, Debye):
    X=             -0.2379    Y=              0.0000    Z=             -0.0000  Tot=              0.2379
 Quadrupole moment (field-independent basis, Debye-Ang):
   XX=             -7.4778   YY=             -7.6204   ZZ=             -7.6204
   XY=              0.0000   XZ=              0.0000   YZ=              0.0000

  Exact polarizability:      24.782       0.000       2.033       0.000       0.000       2.033
 Approx polarizability:      20.048       0.000       1.933       0.000      -0.000       1.933

 ******    2 imaginary frequencies (negative Signs) ******

                      1                      2                      3
                      A                      A                      A
 Frequencies --   -248.4564              -101.3160                77.5043
 Red. masses --      1.0318                 1.0808                 1.0183
 Frc consts  --      0.0375                 0.0065                 0.0036
 IR Inten    --     12.5701                 1.0551                 0.1530

                      4
                      A
 Frequencies --     77.5044
 Red. masses --      1.0183
 Frc consts  --      0.0036
 IR Inten    --      0.1530

 - Thermochemistry -
 -------------------
 Temperature   298.150 Kelvin.  Pressure   1.00000 Atm.
 Atom     1 has atomic number  1 and mass   1.00783

 Molecular mass:    21.01405 amu.
 Principal axes and moments of inertia in atomic units:
                           1         2         3
     Eigenvalues --     0.00000 200.33951 200.33951
           X            1.00000  -0.00000   0.00000
           Y            0.00000   1.00000   0.00000
           Z            0.00000   0.00000   1.00000
 This molecule is a prolate symmetric top.
 Rotational symmetry number  1.
 Rotational temperature (Kelvin)      0.43234
 Rotational constant (GHZ):           9.008414
    2 imaginary frequencies ignored.
 Zero-point vibrational energy        927.2 (Joules/Mol)
                                    0.22160 (Kcal/Mol)
 Warning -- explicit consideration of   2 degrees of freedom as
           vibrations may cause significant error
 Vibrational temperatures:    111.51   111.51
          (Kelvin)

 Zero-point correction=                           0.000353 (Hartree/Particle)
 Thermal correction to Energy=                    0.004271
 Thermal correction to Enthalpy=                  0.005215
 Thermal correction to Gibbs Free Energy=        -0.022973
 Sum of electronic and zero-point Energies=           -100.758842
 Sum of electronic and thermal Energies=              -100.754924
 Sum of electronic and thermal Enthalpies=            -100.753980
 Sum of electronic and thermal Free Energies=         -100.782168

                     E (Thermal)             CV                S
                      KCal/Mol        Cal/Mol-Kelvin    Cal/Mol-Kelvin
 Total                    2.680              8.896             59.328
 Electronic               0.000              0.000              1.377
 Translational            0.889              2.981             35.068
 Rotational               0.592              1.987             14.976
 Vibrational              1.199              3.928              7.906
 Vibration     1          0.599              1.964              3.953
 Vibration     2          0.599              1.964              3.953

 Normal termination of Gaussian 16 at Fri Aug 22 21:43:23 2025.
