 Gaussian 16, Revision C.01,
 Gaussian 16:  ES64L-G16RevC.01  3-Jul-2019

 -----------------------------------------
 # sp b3lyp/6-311g** Force nosymm scf=(qc)
 -----------------------------------------

 -------------------
 Title Card Required
 -------------------
 Symbolic Z-matrix:
 Charge =  0 Multiplicity = 2

                          Input orientation:
 ---------------------------------------------------------------------
 Center     Atomic      Atomic             Coordinates (Angstroms)
 Number     Number       Type             X           Y           Z
 ---------------------------------------------------------------------
      1          1           0        0.000000    0.000000    0.000000
      2          1           0       -1.800000    0.000000    0.000000
      3          9           0        2.500000    0.000000    0.000000
 ---------------------------------------------------------------------

 SCF Done:  E(UB3LYP) =  -100.792887925     a.u. after   21 cycles

 Alpha  occ. eigenvalues --  -24.72202  -1.18382  -0.51329  -0.43090  -0.43090
 Alpha  occ. eigenvalues --   -0.35261
 Alpha virt. eigenvalues --   -0.12532   0.24499   0.31321   0.89410   0.93352
 Alpha virt. eigenvalues --    0.93352   1.04156   1.15718   1.22278   1.22278
 Alpha virt. eigenvalues --    1.35112   1.35112   1.59068   2.12661   2.38280

  Beta  occ. eigenvalues --  -24.69331  -1.10199  -0.40226  -0.40226  -0.35152
  Beta virt. eigenvalues --   -0.23941  -0.11775   0.26379   0.30864   0.94731
  Beta virt. eigenvalues --    0.94731   0.95861   1.07008   1.19065   1.22616
  Beta virt. eigenvalues --    1.22616   1.36072   1.36072   1.59704   2.13570

 Mulliken charges and spin densities:
               1          2
     1  H    0.042983  -0.661056
     2  H    0.035966   0.753539
     3  F   -0.078949   0.907517
 Sum of Mulliken charges =   0.00000   1.00000

 Dipole moment (field-independent basis, Debye):
    X=             -1.3145    Y=             -0.0000    Z=              0.0000  Tot=              1.3145
 Quadrupole moment (field-independent basis, Debye-Ang):
   XX=             -7.7518   YY=             -7.6799   ZZ=             -7.6799
   XY=             -0.0000   XZ=              0.0000   YZ=             -0.0000

  Exact polarizability:      62.555      -0.000       2.015       0.000      -0.000       2.015
 Approx polarizability:      73.811      -0.000       1.953      -0.000       0.000       1.953

 ******    2 imaginary frequencies (negative Signs) ******

                      1                      2                      3
                      A                      A                      A
 Frequencies --  -1751.6849              -379.2796               754.8903
 Red. masses --      1.0085                 1.1076                 1.0145
 Frc consts  --      1.8233                 0.0939                 0.3406
 IR Inten    --    163.6555                50.2859                 0.6248

                      4
                      A
 Frequencies --    754.8903
 Red. masses --      1.0145
 Frc consts  --      0.3406
 IR Inten    --      0.6248

 - Thermochemistry -
 -------------------
 Temperature   298.150 Kelvin.  Pressure   1.00000 Atm.
 Atom     1 has atomic number  1 and mass   1.00783

 Molecular mass:    21.01405 amu.
 Principal axes and moments of inertia in atomic units:
                           1         2         3
     Eigenvalues --     0.00000  81.05813  81.05813
           X            1.00000  -0.00000   0.00000
           Y            0.00000   1.00000   0.00000
           Z            0.00000   0.00000   1.00000
 This molecule is a prolate symmetric top.
 Rotational symmetry number  1.
 Rotational temperature (Kelvin)      1.06854
 Rotational constant (GHZ):          22.264778
    2 imaginary frequencies ignored.
 Zero-point vibrational energy       9030.5 (Joules/Mol)
                                    2.15834 (Kcal/Mol)
 Vibrational temperatures:   1086.12  1086.12
          (Kelvin)

 Zero-point correction=                           0.003440 (Hartree/Particle)
 Thermal correction to Energy=                    0.005985
 Thermal correction to Enthalpy=                  0.006929
 Thermal correction to Gibbs Free Energy=        -0.016883
 Sum of electronic and zero-point Energies=           -100.789448
 Sum of electronic and thermal Energies=              -100.786903
 Sum of electronic and thermal Enthalpies=            -100.785959
 Sum of electronic and thermal Free Energies=         -100.809771

                     E (Thermal)             CV                S
                      KCal/Mol        Cal/Mol-Kelvin    Cal/Mol-Kelvin
 Total                    3.756              6.424             50.118
 Electronic               0.000              0.000              1.377
 Translational            0.889              2.981             35.068
 Rotational               0.592              1.987             13.178
 Vibrational              2.274              1.456              0.495

 Normal termination of Gaussian 16 at Fri Aug 22 17:44:34 2025.
