 Gaussian 16, Revision C.01,
 Gaussian 16:  ES64L-G16RevC.01  3-Jul-2019

 -----------------------------------------
 # sp b3lyp/6-311g** Force nosymm scf=(qc)
 -----------------------------------------

 -------------------
 Title Card Required
 -------------------
 Symbolic Z-matrix:
 Charge =  0 Multiplicity = 2

                          Input orientation:
 ---------------------------------------------------------------------
 Center     Atomic      Atomic             Coordinates (Angstroms)
 Number     Number       Type             X           Y           Z
 ---------------------------------------------------------------------
      1          1           0        0.000000    0.000000    0.000000
      2          1           0       -1.900000    0.000000    0.000000
      3          9           0        3.750000    0.000000    0.000000
 ---------------------------------------------------------------------

 SCF Done:  E(UB3LYP) =  -100.779393858     a.u. after  128 cycles

 Alpha  occ. eigenvalues --  -24.76183  -1.22082  -0.55287  -0.46459  -0.46443
 Alpha  occ. eigenvalues --   -0.32796
 Alpha virt. eigenvalues --   -0.10608   0.26085   0.32200   0.86080   0.90957
 Alpha virt. eigenvalues --    0.91524   1.01008   1.13695   1.25140   1.25141
 Alpha virt. eigenvalues --    1.37984   1.37987   1.56131   2.13947   2.37961

  Beta  occ. eigenvalues --  -24.73030  -1.13011  -0.43302  -0.43280  -0.32772
  Beta virt. eigenvalues --   -0.25937  -0.10666   0.26066   0.32248   0.92459
  Beta virt. eigenvalues --    0.92978   0.95548   1.05132   1.13672   1.25148
  Beta virt. eigenvalues --    1.25152   1.37952   1.37953   1.56139   2.14219

 Mulliken charges and spin densities:
               1          2
     1  H    0.000404  -0.798854
     2  H   -0.001540   0.798900
     3  F    0.001136   0.999953
 Sum of Mulliken charges =   0.00000   1.00000

 Dipole moment (field-independent basis, Debye):
    X=              0.0268    Y=             -0.0000    Z=             -0.0000  Tot=              0.0268
 Quadrupole moment (field-independent basis, Debye-Ang):
   XX=             -6.8719   YY=             -7.3145   ZZ=             -7.3136
   XY=             -0.0000   XZ=             -0.0000   YZ=              0.4323

  Exact polarizability:      22.758      -0.000       2.244      -0.000       0.234       2.245
 Approx polarizability:      28.954      -0.000       2.240      -0.000       0.291       2.240

 ******    2 imaginary frequencies (negative Signs) ******

                      1                      2                      3
                      A                      A                      A
 Frequencies --  -1537.2543               -41.0367               656.6760
 Red. masses --      1.0078                 1.1085                 1.0118
 Frc consts  --      1.4032                 0.0011                 0.2571
 IR Inten    --      0.0051                 0.0576                 0.0010

                      4
                      A
 Frequencies --    656.7281
 Red. masses --      1.0118
 Frc consts  --      0.2571
 IR Inten    --      0.0009

 - Thermochemistry -
 -------------------
 Temperature   298.150 Kelvin.  Pressure   1.00000 Atm.
 Atom     1 has atomic number  1 and mass   1.00783

 Molecular mass:    21.01405 amu.
 Principal axes and moments of inertia in atomic units:
                           1         2         3
     Eigenvalues --     0.00000 150.24886 150.24886
           X            1.00000  -0.00000   0.00000
           Y            0.00000   1.00000   0.00000
           Z            0.00000   0.00000   1.00000
 This molecule is a prolate symmetric top.
 Rotational symmetry number  1.
 Rotational temperature (Kelvin)      0.57647
 Rotational constant (GHZ):          12.011680
    2 imaginary frequencies ignored.
 Zero-point vibrational energy       7855.9 (Joules/Mol)
                                    1.87761 (Kcal/Mol)
 Vibrational temperatures:    944.81   944.89
          (Kelvin)

 Zero-point correction=                           0.002992 (Hartree/Particle)
 Thermal correction to Energy=                    0.005615
 Thermal correction to Enthalpy=                  0.006559
 Thermal correction to Gibbs Free Energy=        -0.017945
 Sum of electronic and zero-point Energies=           -100.776402
 Sum of electronic and thermal Energies=              -100.773779
 Sum of electronic and thermal Enthalpies=            -100.772834
 Sum of electronic and thermal Free Energies=         -100.797338

                     E (Thermal)             CV                S
                      KCal/Mol        Cal/Mol-Kelvin    Cal/Mol-Kelvin
 Total                    3.524              6.797             51.573
 Electronic               0.000              0.000              1.377
 Translational            0.889              2.981             35.068
 Rotational               0.592              1.987             14.404
 Vibrational              2.042              1.829              0.724

 Normal termination of Gaussian 16 at Sat Aug 23 00:23:31 2025.
