 Gaussian 16, Revision C.01,
 Gaussian 16:  ES64L-G16RevC.01  3-Jul-2019

 -----------------------------------------
 # sp b3lyp/6-311g** Force nosymm scf=(qc)
 -----------------------------------------

 -------------------
 Title Card Required
 -------------------
 Symbolic Z-matrix:
 Charge =  0 Multiplicity = 2

                          Input orientation:
 ---------------------------------------------------------------------
 Center     Atomic      Atomic             Coordinates (Angstroms)
 Number     Number       Type             X           Y           Z
 ---------------------------------------------------------------------
      1          1           0        0.000000    0.000000    0.000000
      2          1           0       -2.900000    0.000000    0.000000
      3          9           0        2.000000    0.000000    0.000000
 ---------------------------------------------------------------------

 SCF Done:  E(UB3LYP) =  -100.788340649     a.u. after   15 cycles

 Alpha  occ. eigenvalues --  -24.68202  -1.14519  -0.47184  -0.39733  -0.39733
 Alpha  occ. eigenvalues --   -0.34082
 Alpha virt. eigenvalues --   -0.13741   0.23177   0.31463   0.89337   0.94884
 Alpha virt. eigenvalues --    0.94884   1.06017   1.23475   1.23475   1.24507
 Alpha virt. eigenvalues --    1.35314   1.35314   1.60468   2.14303   2.29576

  Beta  occ. eigenvalues --  -24.65831  -1.07892  -0.37871  -0.37396  -0.37396
  Beta virt. eigenvalues --   -0.20772  -0.08479   0.23723   0.36381   0.91042
  Beta virt. eigenvalues --    0.95526   0.95526   1.08410   1.22084   1.22084
  Beta virt. eigenvalues --    1.43411   1.43803   1.43803   1.54032   2.12871

 Mulliken charges and spin densities:
               1          2
     1  H    0.186101  -0.734857
     2  H    0.007149   0.989199
     3  F   -0.193249   0.745658
 Sum of Mulliken charges =  -0.00000   1.00000

 Dipole moment (field-independent basis, Debye):
    X=             -2.0098    Y=             -0.0000    Z=             -0.0000  Tot=              2.0098
 Quadrupole moment (field-independent basis, Debye-Ang):
   XX=             -9.7599   YY=             -7.5035   ZZ=             -7.5035
   XY=             -0.0000   XZ=             -0.0000   YZ=             -0.0000

  Exact polarizability:      30.650       0.000       2.060       0.000       0.000       2.060
 Approx polarizability:      40.580       0.000       1.948       0.000       0.000       1.948

 ******    2 imaginary frequencies (negative Signs) ******

                      1                      2                      3
                      A                      A                      A
 Frequencies --  -1152.1496              -246.8881               484.2676
 Red. masses --      1.0530                 1.0586                 1.0230
 Frc consts  --      0.8236                 0.0380                 0.1414
 IR Inten    --    112.4508                 3.4644                30.7908

                      4
                      A
 Frequencies --    484.2676
 Red. masses --      1.0230
 Frc consts  --      0.1414
 IR Inten    --     30.7908

 - Thermochemistry -
 -------------------
 Temperature   298.150 Kelvin.  Pressure   1.00000 Atm.
 Atom     1 has atomic number  1 and mass   1.00783

 Molecular mass:    21.01405 amu.
 Principal axes and moments of inertia in atomic units:
                           1         2         3
     Eigenvalues --     0.00000  92.59041  92.59041
           X            1.00000  -0.00000   0.00000
           Y            0.00000   1.00000   0.00000
           Z            0.00000   0.00000   1.00000
 This molecule is a prolate symmetric top.
 Rotational symmetry number  1.
 Rotational temperature (Kelvin)      0.93545
 Rotational constant (GHZ):          19.491664
    2 imaginary frequencies ignored.
 Zero-point vibrational energy       5793.1 (Joules/Mol)
                                    1.38459 (Kcal/Mol)
 Warning -- explicit consideration of   2 degrees of freedom as
           vibrations may cause significant error
 Vibrational temperatures:    696.75   696.75
          (Kelvin)

 Zero-point correction=                           0.002206 (Hartree/Particle)
 Thermal correction to Energy=                    0.005039
 Thermal correction to Enthalpy=                  0.005983
 Thermal correction to Gibbs Free Energy=        -0.018384
 Sum of electronic and zero-point Energies=           -100.786134
 Sum of electronic and thermal Energies=              -100.783302
 Sum of electronic and thermal Enthalpies=            -100.782358
 Sum of electronic and thermal Free Energies=         -100.806725

                     E (Thermal)             CV                S
                      KCal/Mol        Cal/Mol-Kelvin    Cal/Mol-Kelvin
 Total                    3.162              7.538             51.285
 Electronic               0.000              0.000              1.377
 Translational            0.889              2.981             35.068
 Rotational               0.592              1.987             13.442
 Vibrational              1.681              2.570              1.397
 Vibration     1          0.840              1.285              0.699
 Vibration     2          0.840              1.285              0.699

 Normal termination of Gaussian 16 at Fri Aug 22 16:57:16 2025.
