 Gaussian 16, Revision C.01,
 Gaussian 16:  ES64L-G16RevC.01  3-Jul-2019

 -----------------------------------------
 # sp b3lyp/6-311g** Force nosymm scf=(qc)
 -----------------------------------------

 -------------------
 Title Card Required
 -------------------
 Symbolic Z-matrix:
 Charge =  0 Multiplicity = 2

                          Input orientation:
 ---------------------------------------------------------------------
 Center     Atomic      Atomic             Coordinates (Angstroms)
 Number     Number       Type             X           Y           Z
 ---------------------------------------------------------------------
      1          1           0        0.000000    0.000000    0.000000
      2          1           0       -1.400000    0.000000    0.000000
      3          9           0        2.600000    0.000000    0.000000
 ---------------------------------------------------------------------

 SCF Done:  E(UB3LYP) =  -100.838080444     a.u. after   25 cycles

 Alpha  occ. eigenvalues --  -24.74555  -1.20591  -0.53741  -0.45094  -0.45094
 Alpha  occ. eigenvalues --   -0.35880
 Alpha virt. eigenvalues --   -0.08998   0.23584   0.31626   0.89566   0.91886
 Alpha virt. eigenvalues --    0.91886   1.05878   1.12540   1.16383   1.16383
 Alpha virt. eigenvalues --    1.43694   1.43694   1.88756   2.24094   2.49949

  Beta  occ. eigenvalues --  -24.71527  -1.11920  -0.42065  -0.42065  -0.35542
  Beta virt. eigenvalues --   -0.25515  -0.08397   0.24082   0.32061   0.93328
  Beta virt. eigenvalues --    0.93328   0.97436   1.08223   1.15330   1.16795
  Beta virt. eigenvalues --    1.16795   1.44046   1.44046   1.89253   2.24745

 Mulliken charges and spin densities:
               1          2
     1  H    0.004388  -0.129160
     2  H    0.029202   0.171491
     3  F   -0.033591   0.957669
 Sum of Mulliken charges =  -0.00000   1.00000

 Dipole moment (field-independent basis, Debye):
    X=             -0.6359    Y=             -0.0000    Z=             -0.0000  Tot=              0.6359
 Quadrupole moment (field-independent basis, Debye-Ang):
   XX=             -6.3461   YY=             -7.6385   ZZ=             -7.6385
   XY=             -0.0000   XZ=             -0.0000   YZ=             -0.0000

  Exact polarizability:      50.524      -0.000       2.093      -0.000       0.000       2.093
 Approx polarizability:      68.216      -0.000       2.065      -0.000      -0.000       2.065

 ******    2 imaginary frequencies (negative Signs) ******

                      1                      2                      3
                      A                      A                      A
 Frequencies --  -1568.9784              -233.5378              1267.9901
 Red. masses --      1.0087                 1.1075                 1.0122
 Frc consts  --      1.4630                 0.0356                 0.9588
 IR Inten    --    541.2049                17.7792                 0.0083

                      4
                      A
 Frequencies --   1267.9901
 Red. masses --      1.0122
 Frc consts  --      0.9588
 IR Inten    --      0.0083

 - Thermochemistry -
 -------------------
 Temperature   298.150 Kelvin.  Pressure   1.00000 Atm.
 Atom     1 has atomic number  1 and mass   1.00783

 Molecular mass:    21.01405 amu.
 Principal axes and moments of inertia in atomic units:
                           1         2         3
     Eigenvalues --     0.00000  74.39468  74.39468
           X            1.00000  -0.00000   0.00000
           Y            0.00000   1.00000   0.00000
           Z            0.00000   0.00000   1.00000
 This molecule is a prolate symmetric top.
 Rotational symmetry number  1.
 Rotational temperature (Kelvin)      1.16425
 Rotational constant (GHZ):          24.259010
    2 imaginary frequencies ignored.
 Zero-point vibrational energy      15168.5 (Joules/Mol)
                                    3.62537 (Kcal/Mol)
 Vibrational temperatures:   1824.35  1824.35
          (Kelvin)

 Zero-point correction=                           0.005777 (Hartree/Particle)
 Thermal correction to Energy=                    0.008163
 Thermal correction to Enthalpy=                  0.009108
 Thermal correction to Gibbs Free Energy=        -0.014419
 Sum of electronic and zero-point Energies=           -100.832303
 Sum of electronic and thermal Energies=              -100.829917
 Sum of electronic and thermal Enthalpies=            -100.828973
 Sum of electronic and thermal Free Energies=         -100.852499

                     E (Thermal)             CV                S
                      KCal/Mol        Cal/Mol-Kelvin    Cal/Mol-Kelvin
 Total                    5.123              5.297             49.515
 Electronic               0.000              0.000              1.377
 Translational            0.889              2.981             35.068
 Rotational               0.592              1.987             13.007
 Vibrational              3.641              0.329              0.062

 Normal termination of Gaussian 16 at Fri Aug 22 18:03:01 2025.
