 Gaussian 16, Revision C.01,
 Gaussian 16:  ES64L-G16RevC.01  3-Jul-2019

 -----------------------------------------
 # sp b3lyp/6-311g** Force nosymm scf=(qc)
 -----------------------------------------

 -------------------
 Title Card Required
 -------------------
 Symbolic Z-matrix:
 Charge =  0 Multiplicity = 2

                          Input orientation:
 ---------------------------------------------------------------------
 Center     Atomic      Atomic             Coordinates (Angstroms)
 Number     Number       Type             X           Y           Z
 ---------------------------------------------------------------------
      1          1           0        0.000000    0.000000    0.000000
      2          1           0       -3.500000    0.000000    0.000000
      3          9           0        2.850000    0.000000    0.000000
 ---------------------------------------------------------------------

 SCF Done:  E(UB3LYP) =  -100.762302731     a.u. after   20 cycles

 Alpha  occ. eigenvalues --  -24.73497  -1.19599  -0.52614  -0.44182  -0.44182
 Alpha  occ. eigenvalues --   -0.32633
 Alpha virt. eigenvalues --   -0.08699   0.23897   0.35885   0.89790   0.92626
 Alpha virt. eigenvalues --    0.92626   1.04776   1.24874   1.24874   1.25039
 Alpha virt. eigenvalues --    1.43239   1.43239   1.43815   2.14729   2.39148

  Beta  occ. eigenvalues --  -24.70511  -1.11057  -0.41196  -0.41196  -0.34138
  Beta virt. eigenvalues --   -0.24433  -0.06618   0.23991   0.37867   0.94072
  Beta virt. eigenvalues --    0.94072   0.98174   1.08289   1.23181   1.23181
  Beta virt. eigenvalues --    1.24358   1.45787   1.46050   1.46050   2.14556

 Mulliken charges and spin densities:
               1          2
     1  H    0.048986  -0.943364
     2  H    0.000562   0.997943
     3  F   -0.049549   0.945422
 Sum of Mulliken charges =  -0.00000   1.00000

 Dipole moment (field-independent basis, Debye):
    X=             -0.7337    Y=              0.0000    Z=             -0.0000  Tot=              0.7337
 Quadrupole moment (field-independent basis, Debye-Ang):
   XX=             -8.6117   YY=             -7.6016   ZZ=             -7.6016
   XY=              0.0000   XZ=             -0.0000   YZ=              0.0000

  Exact polarizability:      32.349       0.000       2.024      -0.000       0.000       2.024
 Approx polarizability:      35.379       0.000       1.924      -0.000      -0.000       1.924

 ******    2 imaginary frequencies (negative Signs) ******

                      1                      2                      3
                      A                      A                      A
 Frequencies --   -437.1951              -119.4035               158.3269
 Red. masses --      1.0496                 1.0620                 1.0206
 Frc consts  --      0.1182                 0.0089                 0.0151
 IR Inten    --     50.6380                 0.5059                 2.2667

                      4
                      A
 Frequencies --    158.3269
 Red. masses --      1.0206
 Frc consts  --      0.0151
 IR Inten    --      2.2667

 - Thermochemistry -
 -------------------
 Temperature   298.150 Kelvin.  Pressure   1.00000 Atm.
 Atom     1 has atomic number  1 and mass   1.00783

 Molecular mass:    21.01405 amu.
 Principal axes and moments of inertia in atomic units:
                           1         2         3
     Eigenvalues --     0.00000 159.74452 159.74452
           X            1.00000  -0.00000   0.00000
           Y            0.00000   1.00000   0.00000
           Z            0.00000   0.00000   1.00000
 This molecule is a prolate symmetric top.
 Rotational symmetry number  1.
 Rotational temperature (Kelvin)      0.54220
 Rotational constant (GHZ):          11.297672
    2 imaginary frequencies ignored.
 Zero-point vibrational energy       1894.0 (Joules/Mol)
                                    0.45268 (Kcal/Mol)
 Warning -- explicit consideration of   2 degrees of freedom as
           vibrations may cause significant error
 Vibrational temperatures:    227.80   227.80
          (Kelvin)

 Zero-point correction=                           0.000721 (Hartree/Particle)
 Thermal correction to Energy=                    0.004340
 Thermal correction to Enthalpy=                  0.005284
 Thermal correction to Gibbs Free Energy=        -0.021376
 Sum of electronic and zero-point Energies=           -100.761581
 Sum of electronic and thermal Energies=              -100.757963
 Sum of electronic and thermal Enthalpies=            -100.757019
 Sum of electronic and thermal Free Energies=         -100.783679

                     E (Thermal)             CV                S
                      KCal/Mol        Cal/Mol-Kelvin    Cal/Mol-Kelvin
 Total                    2.723              8.755             56.111
 Electronic               0.000              0.000              1.377
 Translational            0.889              2.981             35.068
 Rotational               0.592              1.987             14.526
 Vibrational              1.242              3.787              5.139
 Vibration     1          0.621              1.893              2.570
 Vibration     2          0.621              1.893              2.570

 Normal termination of Gaussian 16 at Fri Aug 22 18:54:55 2025.
