 Gaussian 16, Revision C.01,
 Gaussian 16:  ES64L-G16RevC.01  3-Jul-2019

 -----------------------------------------
 # sp b3lyp/6-311g** Force nosymm scf=(qc)
 -----------------------------------------

 -------------------
 Title Card Required
 -------------------
 Symbolic Z-matrix:
 Charge =  0 Multiplicity = 2

                          Input orientation:
 ---------------------------------------------------------------------
 Center     Atomic      Atomic             Coordinates (Angstroms)
 Number     Number       Type             X           Y           Z
 ---------------------------------------------------------------------
      1          1           0        0.000000    0.000000    0.000000
      2          1           0       -1.200000    0.000000    0.000000
      3          9           0        1.050000    0.000000    0.000000
 ---------------------------------------------------------------------

 SCF Done:  E(UB3LYP) =  -100.960521126     a.u. after    7 cycles

 Alpha  occ. eigenvalues --  -24.64049  -1.15389  -0.54569  -0.38440  -0.38440
 Alpha  occ. eigenvalues --   -0.37177
 Alpha virt. eigenvalues --    0.09488   0.19385   0.36510   0.92187   0.92187
 Alpha virt. eigenvalues --    0.98771   1.09793   1.09793   1.29814   1.51658
 Alpha virt. eigenvalues --    1.51658   1.56976   2.15192   2.30711   2.62985

  Beta  occ. eigenvalues --  -24.63348  -1.13627  -0.50216  -0.37810  -0.37810
  Beta virt. eigenvalues --   -0.18653   0.11858   0.22988   0.41122   0.93054
  Beta virt. eigenvalues --    0.93054   1.00263   1.17012   1.17012   1.35832
  Beta virt. eigenvalues --    1.56498   1.56498   1.61125   2.25801   2.34065

 Mulliken charges and spin densities:
               1          2
     1  H    0.287523  -0.024323
     2  H    0.038174   0.834662
     3  F   -0.325697   0.189660
 Sum of Mulliken charges =   0.00000   1.00000

 Dipole moment (field-independent basis, Debye):
    X=             -2.2691    Y=              0.0000    Z=             -0.0000  Tot=              2.2691
 Quadrupole moment (field-independent basis, Debye-Ang):
   XX=             -7.7120   YY=             -6.7947   ZZ=             -6.7947
   XY=              0.0000   XZ=             -0.0000   YZ=             -0.0000

  Exact polarizability:      16.044       0.000       2.548       0.000      -0.000       2.548
 Approx polarizability:      18.908      -0.000       2.554       0.000      -0.000       2.554

 ******    1 imaginary frequencies (negative Signs) ******

                      1                      2                      3
                      A                      A                      A
 Frequencies --   -533.4700               855.3128               855.3128
 Red. masses --      1.0152                 1.0196                 1.0196
 Frc consts  --      0.1702                 0.4395                 0.4395
 IR Inten    --      7.8033                66.0095                66.0095

                      4
                      A
 Frequencies --   1745.3836
 Red. masses --      1.0997
 Frc consts  --      1.9738
 IR Inten    --     61.0386

 - Thermochemistry -
 -------------------
 Temperature   298.150 Kelvin.  Pressure   1.00000 Atm.
 Atom     1 has atomic number  1 and mass   1.00783

 Molecular mass:    21.01405 amu.
 Principal axes and moments of inertia in atomic units:
                           1         2         3
     Eigenvalues --     0.00000  20.30820  20.30820
           X            1.00000  -0.00000   0.00000
           Y            0.00000   1.00000   0.00000
           Z            0.00000   0.00000   1.00000
 This molecule is a prolate symmetric top.
 Rotational symmetry number  1.
 Rotational temperature (Kelvin)      4.26497
 Rotational constant (GHZ):          88.867618
    1 imaginary frequencies ignored.
 Zero-point vibrational energy      20671.5 (Joules/Mol)
                                    4.94061 (Kcal/Mol)
 Vibrational temperatures:   1230.60  1230.60  2511.22
          (Kelvin)

 Zero-point correction=                           0.007873 (Hartree/Particle)
 Thermal correction to Energy=                    0.010363
 Thermal correction to Enthalpy=                  0.011307
 Thermal correction to Gibbs Free Energy=        -0.011124
 Sum of electronic and zero-point Energies=           -100.952648
 Sum of electronic and thermal Energies=              -100.950158
 Sum of electronic and thermal Enthalpies=            -100.949214
 Sum of electronic and thermal Free Energies=         -100.971645

                     E (Thermal)             CV                S
                      KCal/Mol        Cal/Mol-Kelvin    Cal/Mol-Kelvin
 Total                    6.503              6.127             47.210
 Electronic               0.000              0.000              1.377
 Translational            0.889              2.981             35.068
 Rotational               0.592              1.987             10.427
 Vibrational              5.022              1.159              0.338

 Normal termination of Gaussian 16 at Fri Aug 22 16:02:22 2025.
