 Gaussian 16, Revision C.01,
 Gaussian 16:  ES64L-G16RevC.01  3-Jul-2019

 -----------------------------------------
 # sp b3lyp/6-311g** Force nosymm scf=(qc)
 -----------------------------------------

 -------------------
 Title Card Required
 -------------------
 Symbolic Z-matrix:
 Charge =  0 Multiplicity = 2

                          Input orientation:
 ---------------------------------------------------------------------
 Center     Atomic      Atomic             Coordinates (Angstroms)
 Number     Number       Type             X           Y           Z
 ---------------------------------------------------------------------
      1          1           0        0.000000    0.000000    0.000000
      2          1           0       -2.150000    0.000000    0.000000
      3          9           0        1.300000    0.000000    0.000000
 ---------------------------------------------------------------------

 SCF Done:  E(UB3LYP) =  -100.903450583     a.u. after    7 cycles

 Alpha  occ. eigenvalues --  -24.63832  -1.10786  -0.46124  -0.36635  -0.36635
 Alpha  occ. eigenvalues --   -0.36379
 Alpha virt. eigenvalues --   -0.07051   0.23972   0.27513   0.93451   0.93451
 Alpha virt. eigenvalues --    1.02272   1.13720   1.20995   1.20995   1.34487
 Alpha virt. eigenvalues --    1.34487   1.35974   1.71227   2.11247   2.27738

  Beta  occ. eigenvalues --  -24.63667  -1.10362  -0.45374  -0.36482  -0.36482
  Beta virt. eigenvalues --   -0.14671  -0.03427   0.27264   0.34501   0.93430
  Beta virt. eigenvalues --    0.93430   1.02691   1.19748   1.33864   1.33864
  Beta virt. eigenvalues --    1.40595   1.40595   1.48443   1.71409   2.23354

 Mulliken charges and spin densities:
               1          2
     1  H    0.339306  -0.017296
     2  H    0.025199   0.966792
     3  F   -0.364505   0.050504
 Sum of Mulliken charges =  -0.00000   1.00000

 Dipole moment (field-independent basis, Debye):
    X=             -2.6889    Y=              0.0000    Z=             -0.0000  Tot=              2.6889
 Quadrupole moment (field-independent basis, Debye-Ang):
   XX=             -8.5805   YY=             -7.1778   ZZ=             -7.1778
   XY=              0.0000   XZ=             -0.0000   YZ=              0.0000

  Exact polarizability:      17.743       0.000       2.319       0.000       0.000       2.319
 Approx polarizability:      23.649      -0.000       2.270       0.000       0.000       2.270

 ******    2 imaginary frequencies (negative Signs) ******

                      1                      2                      3
                      A                      A                      A
 Frequencies --   -940.1995              -165.1233              1124.5445
 Red. masses --      1.0311                 1.0817                 1.0250
 Frc consts  --      0.5370                 0.0174                 0.7637
 IR Inten    --    195.6595                 1.2513               104.8528

                      4
                      A
 Frequencies --   1124.5445
 Red. masses --      1.0250
 Frc consts  --      0.7637
 IR Inten    --    104.8528

 - Thermochemistry -
 -------------------
 Temperature   298.150 Kelvin.  Pressure   1.00000 Atm.
 Atom     1 has atomic number  1 and mass   1.00783

 Molecular mass:    21.01405 amu.
 Principal axes and moments of inertia in atomic units:
                           1         2         3
     Eigenvalues --     0.00000  45.02508  45.02508
           X            1.00000  -0.00000   0.00000
           Y            0.00000   1.00000   0.00000
           Z            0.00000   0.00000   1.00000
 This molecule is a prolate symmetric top.
 Rotational symmetry number  1.
 Rotational temperature (Kelvin)      1.92368
 Rotational constant (GHZ):          40.083020
    2 imaginary frequencies ignored.
 Zero-point vibrational energy      13452.5 (Joules/Mol)
                                    3.21523 (Kcal/Mol)
 Vibrational temperatures:   1617.97  1617.97
          (Kelvin)

 Zero-point correction=                           0.005124 (Hartree/Particle)
 Thermal correction to Energy=                    0.007530
 Thermal correction to Enthalpy=                  0.008474
 Thermal correction to Gibbs Free Energy=        -0.014602
 Sum of electronic and zero-point Energies=           -100.898327
 Sum of electronic and thermal Energies=              -100.895921
 Sum of electronic and thermal Enthalpies=            -100.894977
 Sum of electronic and thermal Free Energies=         -100.918053

                     E (Thermal)             CV                S
                      KCal/Mol        Cal/Mol-Kelvin    Cal/Mol-Kelvin
 Total                    4.725              5.487             48.568
 Electronic               0.000              0.000              1.377
 Translational            0.889              2.981             35.068
 Rotational               0.592              1.987             12.009
 Vibrational              3.244              0.519              0.113

 Normal termination of Gaussian 16 at Fri Aug 22 16:15:10 2025.
