 Gaussian 16, Revision C.01,
 Gaussian 16:  ES64L-G16RevC.01  3-Jul-2019

 -----------------------------------------
 # sp b3lyp/6-311g** Force nosymm scf=(qc)
 -----------------------------------------

 -------------------
 Title Card Required
 -------------------
 Symbolic Z-matrix:
 Charge =  0 Multiplicity = 2

                          Input orientation:
 ---------------------------------------------------------------------
 Center     Atomic      Atomic             Coordinates (Angstroms)
 Number     Number       Type             X           Y           Z
 ---------------------------------------------------------------------
      1          1           0        0.000000    0.000000    0.000000
      2          1           0       -2.800000    0.000000    0.000000
      3          9           0        0.600000    0.000000    0.000000
 ---------------------------------------------------------------------

 SCF Done:  E(UB3LYP) =  -100.688022777     a.u. after    6 cycles

 Alpha  occ. eigenvalues --  -24.62714  -1.34704  -0.61018  -0.42959  -0.42959
 Alpha  occ. eigenvalues --   -0.33933
 Alpha virt. eigenvalues --    0.08075   0.25653   0.58330   0.92146   0.92146
 Alpha virt. eigenvalues --    0.93163   1.21011   1.23601   1.23601   1.40463
 Alpha virt. eigenvalues --    1.50286   1.50286   1.95603   2.14773   3.36512

  Beta  occ. eigenvalues --  -24.62711  -1.34694  -0.61011  -0.42957  -0.42957
  Beta virt. eigenvalues --   -0.06747   0.09198   0.38884   0.58300   0.92141
  Beta virt. eigenvalues --    0.92141   0.93202   1.32811   1.49231   1.49231
  Beta virt. eigenvalues --    1.50287   1.50287   1.53455   1.95296   2.44404

 Mulliken charges and spin densities:
               1          2
     1  H    0.235336   0.001806
     2  H    0.002672   0.996452
     3  F   -0.238008   0.001742
 Sum of Mulliken charges =   0.00000   1.00000

 Dipole moment (field-independent basis, Debye):
    X=             -1.4667    Y=             -0.0000    Z=              0.0000  Tot=              1.4667
 Quadrupole moment (field-independent basis, Debye-Ang):
   XX=             -6.8672   YY=             -6.5500   ZZ=             -6.5500
   XY=             -0.0000   XZ=              0.0000   YZ=             -0.0000

  Exact polarizability:       4.293       0.000       2.452       0.000      -0.000       2.452
 Approx polarizability:       4.403       0.000       2.434      -0.000      -0.000       2.434

 ******    2 imaginary frequencies (negative Signs) ******

                      1                      2                      3
                      A                      A                      A
 Frequencies --  -5857.8412             -5857.8412                52.3853
 Red. masses --      1.0411                 1.0411                 1.0532
 Frc consts  --     21.0476                21.0476                 0.0017
 IR Inten    --    231.8952               231.8952                 0.1182

                      4
                      A
 Frequencies --  13070.7467
 Red. masses --      1.0583
 Frc consts  --    106.5282
 IR Inten    --    103.9816

 - Thermochemistry -
 -------------------
 Temperature   298.150 Kelvin.  Pressure   1.00000 Atm.
 Atom     1 has atomic number  1 and mass   1.00783

 Molecular mass:    21.01405 amu.
 Principal axes and moments of inertia in atomic units:
                           1         2         3
     Eigenvalues --     0.00000  40.13847  40.13847
           X            1.00000  -0.00000   0.00000
           Y            0.00000   1.00000   0.00000
           Z            0.00000   0.00000   1.00000
 This molecule is a prolate symmetric top.
 Rotational symmetry number  1.
 Rotational temperature (Kelvin)      2.15788
 Rotational constant (GHZ):          44.962879
    2 imaginary frequencies ignored.
 Zero-point vibrational energy      78493.8 (Joules/Mol)
                                   18.76046 (Kcal/Mol)
 Warning -- explicit consideration of   1 degrees of freedom as
           vibrations may cause significant error
 Vibrational temperatures:     75.37 18805.89
          (Kelvin)

 Zero-point correction=                           0.029897 (Hartree/Particle)
 Thermal correction to Energy=                    0.033087
 Thermal correction to Enthalpy=                  0.034031
 Thermal correction to Gibbs Free Energy=         0.008872
 Sum of electronic and zero-point Energies=           -100.658126
 Sum of electronic and thermal Energies=              -100.654936
 Sum of electronic and thermal Enthalpies=            -100.653992
 Sum of electronic and thermal Free Energies=         -100.679151

                     E (Thermal)             CV                S
                      KCal/Mol        Cal/Mol-Kelvin    Cal/Mol-Kelvin
 Total                   20.762              6.945             52.952
 Electronic               0.000              0.000              1.377
 Translational            0.889              2.981             35.068
 Rotational               0.592              1.987             11.781
 Vibrational             19.281              1.977              4.725
 Vibration     1          0.596              1.977              4.725

 Normal termination of Gaussian 16 at Fri Aug 22 15:42:14 2025.
