 Gaussian 16, Revision C.01,
 Gaussian 16:  ES64L-G16RevC.01  3-Jul-2019

 -----------------------------------------
 # sp b3lyp/6-311g** Force nosymm scf=(qc)
 -----------------------------------------

 -------------------
 Title Card Required
 -------------------
 Symbolic Z-matrix:
 Charge =  0 Multiplicity = 2

                          Input orientation:
 ---------------------------------------------------------------------
 Center     Atomic      Atomic             Coordinates (Angstroms)
 Number     Number       Type             X           Y           Z
 ---------------------------------------------------------------------
      1          1           0        0.000000    0.000000    0.000000
      2          1           0       -3.750000    0.000000    0.000000
      3          9           0        0.650000    0.000000    0.000000
 ---------------------------------------------------------------------

 SCF Done:  E(UB3LYP) =  -100.800663288     a.u. after    6 cycles

 Alpha  occ. eigenvalues --  -24.62937  -1.31319  -0.59803  -0.42360  -0.42360
 Alpha  occ. eigenvalues --   -0.33228
 Alpha virt. eigenvalues --    0.06960   0.24641   0.55460   0.92877   0.92877
 Alpha virt. eigenvalues --    0.94690   1.24147   1.24278   1.24278   1.31953
 Alpha virt. eigenvalues --    1.46905   1.46905   1.95916   2.14421   3.09620

  Beta  occ. eigenvalues --  -24.62937  -1.31318  -0.59803  -0.42360  -0.42360
  Beta virt. eigenvalues --   -0.05028   0.07222   0.39038   0.55441   0.92877
  Beta virt. eigenvalues --    0.92877   0.94685   1.31674   1.46906   1.46906
  Beta virt. eigenvalues --    1.49795   1.50181   1.50181   1.95918   2.45280

 Mulliken charges and spin densities:
               1          2
     1  H    0.254989   0.000366
     2  H    0.000460   0.999468
     3  F   -0.255449   0.000167
 Sum of Mulliken charges =   0.00000   1.00000

 Dipole moment (field-independent basis, Debye):
    X=             -1.5099    Y=              0.0000    Z=              0.0000  Tot=              1.5099
 Quadrupole moment (field-independent basis, Debye-Ang):
   XX=             -7.1501   YY=             -6.6080   ZZ=             -6.6080
   XY=              0.0000   XZ=              0.0000   YZ=              0.0000

  Exact polarizability:       3.526       0.000       2.442      -0.000      -0.000       2.442
 Approx polarizability:       3.827      -0.000       2.421       0.000      -0.000       2.421

 ******    3 imaginary frequencies (negative Signs) ******

                      1                      2                      3
                      A                      A                      A
 Frequencies --  -4604.4818             -4604.4818               -33.5025
 Red. masses --      1.0437                 1.0437                 1.0532
 Frc consts  --     13.0378                13.0378                 0.0007
 IR Inten    --    227.5660               227.5660                 0.0132

                      4
                      A
 Frequencies --  10873.4245
 Red. masses --      1.0583
 Frc consts  --     73.7218
 IR Inten    --    101.7657

 - Thermochemistry -
 -------------------
 Temperature   298.150 Kelvin.  Pressure   1.00000 Atm.
 Atom     1 has atomic number  1 and mass   1.00783

 Molecular mass:    21.01405 amu.
 Principal axes and moments of inertia in atomic units:
                           1         2         3
     Eigenvalues --     0.00000  66.79548  66.79548
           X            1.00000  -0.00000   0.00000
           Y            0.00000   1.00000   0.00000
           Z            0.00000   0.00000   1.00000
 This molecule is a prolate symmetric top.
 Rotational symmetry number  1.
 Rotational temperature (Kelvin)      1.29670
 Rotational constant (GHZ):          27.018913
    3 imaginary frequencies ignored.
 Zero-point vibrational energy      65037.5 (Joules/Mol)
                                   15.54434 (Kcal/Mol)
 Vibrational temperatures:  15644.43
          (Kelvin)

 Zero-point correction=                           0.024771 (Hartree/Particle)
 Thermal correction to Energy=                    0.027132
 Thermal correction to Enthalpy=                  0.028076
 Thermal correction to Gibbs Free Energy=         0.004681
 Sum of electronic and zero-point Energies=           -100.775892
 Sum of electronic and thermal Energies=              -100.773531
 Sum of electronic and thermal Enthalpies=            -100.772587
 Sum of electronic and thermal Free Energies=         -100.795982

                     E (Thermal)             CV                S
                      KCal/Mol        Cal/Mol-Kelvin    Cal/Mol-Kelvin
 Total                   17.026              4.968             49.239
 Electronic               0.000              0.000              1.377
 Translational            0.889              2.981             35.068
 Rotational               0.592              1.987             12.793
 Vibrational             15.544              0.000              0.000

 Normal termination of Gaussian 16 at Fri Aug 22 15:45:11 2025.
