 Gaussian 16, Revision C.01,
 Gaussian 16:  ES64L-G16RevC.01  3-Jul-2019

 -----------------------------------------
 # sp b3lyp/6-311g** Force nosymm scf=(qc)
 -----------------------------------------

 -------------------
 Title Card Required
 -------------------
 Symbolic Z-matrix:
 Charge =  0 Multiplicity = 2

                          Input orientation:
 ---------------------------------------------------------------------
 Center     Atomic      Atomic             Coordinates (Angstroms)
 Number     Number       Type             X           Y           Z
 ---------------------------------------------------------------------
      1          1           0        0.000000    0.000000    0.000000
      2          1           0       -0.650000    0.000000    0.000000
      3          9           0        3.150000    0.000000    0.000000
 ---------------------------------------------------------------------

 SCF Done:  E(UB3LYP) =  -100.927052765     a.u. after   66 cycles

 Alpha  occ. eigenvalues --  -24.76516  -1.22333  -0.55529  -0.46809  -0.46679
 Alpha  occ. eigenvalues --   -0.45196
 Alpha virt. eigenvalues --    0.07823   0.19283   0.50176   0.85921   0.90795
 Alpha virt. eigenvalues --    0.93846   1.04830   1.09586   1.09592   1.59798
 Alpha virt. eigenvalues --    1.86065   1.89390   1.89396   2.37978   3.64716

  Beta  occ. eigenvalues --  -24.73355  -1.13247  -0.45346  -0.43510  -0.43487
  Beta virt. eigenvalues --   -0.26155   0.07864   0.19308   0.50278   0.92294
  Beta virt. eigenvalues --    0.95381   0.95605   1.08550   1.09586   1.09591
  Beta virt. eigenvalues --    1.59814   1.86105   1.89389   1.89396   2.37982

 Mulliken charges and spin densities:
               1          2
     1  H   -0.005648  -0.001130
     2  H   -0.002404   0.000097
     3  F    0.008052   1.001033
 Sum of Mulliken charges =   0.00000   1.00000

 Dipole moment (field-independent basis, Debye):
    X=              0.0784    Y=             -0.0000    Z=              0.0000  Tot=              0.0784
 Quadrupole moment (field-independent basis, Debye-Ang):
   XX=             -6.0641   YY=             -6.6283   ZZ=             -6.1420
   XY=             -0.0000   XZ=              0.0000   YZ=             -0.3569

  Exact polarizability:       7.296       0.000       2.004      -0.000      -0.191       2.264
 Approx polarizability:       8.009       0.000       2.111      -0.000      -0.239       2.437

 ******    2 imaginary frequencies (negative Signs) ******

                      1                      2                      3
                      A                      A                      A
 Frequencies --  -1948.2115             -1947.5702                51.2115
 Red. masses --      1.0087                 1.0087                 1.1085
 Frc consts  --      2.2557                 2.2542                 0.0017
 IR Inten    --      0.0172                 0.0158                 0.1843

                      4
                      A
 Frequencies --   5976.0749
 Red. masses --      1.0078
 Frc consts  --     21.2064
 IR Inten    --      0.1972

 - Thermochemistry -
 -------------------
 Temperature   298.150 Kelvin.  Pressure   1.00000 Atm.
 Atom     1 has atomic number  1 and mass   1.00783

 Molecular mass:    21.01405 amu.
 Principal axes and moments of inertia in atomic units:
                           1         2         3
     Eigenvalues --     0.00000  79.34350  79.34350
           X            1.00000  -0.00000   0.00000
           Y            0.00000   1.00000   0.00000
           Z            0.00000   0.00000   1.00000
 This molecule is a prolate symmetric top.
 Rotational symmetry number  1.
 Rotational temperature (Kelvin)      1.09163
 Rotational constant (GHZ):          22.745924
    2 imaginary frequencies ignored.
 Zero-point vibrational energy      36051.2 (Joules/Mol)
                                    8.61644 (Kcal/Mol)
 Warning -- explicit consideration of   1 degrees of freedom as
           vibrations may cause significant error
 Vibrational temperatures:     73.68  8598.24
          (Kelvin)

 Zero-point correction=                           0.013731 (Hartree/Particle)
 Thermal correction to Energy=                    0.016924
 Thermal correction to Enthalpy=                  0.017868
 Thermal correction to Gibbs Free Energy=        -0.007956
 Sum of electronic and zero-point Energies=           -100.913322
 Sum of electronic and thermal Energies=              -100.910129
 Sum of electronic and thermal Enthalpies=            -100.909185
 Sum of electronic and thermal Free Energies=         -100.935008

                     E (Thermal)             CV                S
                      KCal/Mol        Cal/Mol-Kelvin    Cal/Mol-Kelvin
 Total                   10.620              6.945             54.351
 Electronic               0.000              0.000              1.377
 Translational            0.889              2.981             35.068
 Rotational               0.592              1.987             13.135
 Vibrational              9.139              1.977              4.770
 Vibration     1          0.595              1.977              4.770

 Normal termination of Gaussian 16 at Fri Aug 22 19:58:05 2025.
