 Gaussian 16, Revision C.01,
 Gaussian 16:  ES64L-G16RevC.01  3-Jul-2019

 -----------------------------------------
 # sp b3lyp/6-311g** Force nosymm scf=(qc)
 -----------------------------------------

 -------------------
 Title Card Required
 -------------------
 Symbolic Z-matrix:
 Charge =  0 Multiplicity = 2

                          Input orientation:
 ---------------------------------------------------------------------
 Center     Atomic      Atomic             Coordinates (Angstroms)
 Number     Number       Type             X           Y           Z
 ---------------------------------------------------------------------
      1          1           0        0.000000    0.000000    0.000000
      2          1           0       -3.400000    0.000000    0.000000
      3          9           0        0.550000    0.000000    0.000000
 ---------------------------------------------------------------------

 SCF Done:  E(UB3LYP) =  -100.519238919     a.u. after    6 cycles

 Alpha  occ. eigenvalues --  -24.62693  -1.38433  -0.62258  -0.43634  -0.43634
 Alpha  occ. eigenvalues --   -0.33355
 Alpha virt. eigenvalues --    0.07772   0.25185   0.60276   0.91193   0.91214
 Alpha virt. eigenvalues --    0.91214   1.23802   1.24156   1.24156   1.36168
 Alpha virt. eigenvalues --    1.54135   1.54135   1.96785   2.15023   3.65609

  Beta  occ. eigenvalues --  -24.62693  -1.38431  -0.62258  -0.43634  -0.43634
  Beta virt. eigenvalues --   -0.05323   0.08327   0.39456   0.60319   0.91191
  Beta virt. eigenvalues --    0.91213   0.91213   1.35092   1.50337   1.50337
  Beta virt. eigenvalues --    1.51227   1.54136   1.54136   1.96732   2.45089

 Mulliken charges and spin densities:
               1          2
     1  H    0.199849   0.000574
     2  H    0.000892   0.998937
     3  F   -0.200741   0.000488
 Sum of Mulliken charges =   0.00000   1.00000

 Dipole moment (field-independent basis, Debye):
    X=             -1.3715    Y=              0.0000    Z=              0.0000  Tot=              1.3715
 Quadrupole moment (field-independent basis, Debye-Ang):
   XX=             -6.7957   YY=             -6.4956   ZZ=             -6.4956
   XY=              0.0000   XZ=              0.0000   YZ=              0.0000

  Exact polarizability:       3.306      -0.000       2.429       0.000      -0.000       2.429
 Approx polarizability:       3.484      -0.000       2.408      -0.000      -0.000       2.408

 ******    3 imaginary frequencies (negative Signs) ******

                      1                      2                      3
                      A                      A                      A
 Frequencies --  -7506.0530             -7506.0530               -31.0183
 Red. masses --      1.0445                 1.0445                 1.0532
 Frc consts  --     34.6738                34.6738                 0.0006
 IR Inten    --    258.0656               258.0656                 0.0306

                      4
                      A
 Frequencies --  15777.8648
 Red. masses --      1.0583
 Frc consts  --    155.2244
 IR Inten    --     89.3808

 - Thermochemistry -
 -------------------
 Temperature   298.150 Kelvin.  Pressure   1.00000 Atm.
 Atom     1 has atomic number  1 and mass   1.00783

 Molecular mass:    21.01405 amu.
 Principal axes and moments of inertia in atomic units:
                           1         2         3
     Eigenvalues --     0.00000  53.74694  53.74694
           X            1.00000  -0.00000   0.00000
           Y            0.00000   1.00000   0.00000
           Z            0.00000   0.00000   1.00000
 This molecule is a prolate symmetric top.
 Rotational symmetry number  1.
 Rotational temperature (Kelvin)      1.61151
 Rotational constant (GHZ):          33.578492
    3 imaginary frequencies ignored.
 Zero-point vibrational energy      94372.6 (Joules/Mol)
                                   22.55559 (Kcal/Mol)
 Vibrational temperatures:  22700.83
          (Kelvin)

 Zero-point correction=                           0.035945 (Hartree/Particle)
 Thermal correction to Energy=                    0.038305
 Thermal correction to Enthalpy=                  0.039249
 Thermal correction to Gibbs Free Energy=         0.016060
 Sum of electronic and zero-point Energies=           -100.483294
 Sum of electronic and thermal Energies=              -100.480934
 Sum of electronic and thermal Enthalpies=            -100.479990
 Sum of electronic and thermal Free Energies=         -100.503179

                     E (Thermal)             CV                S
                      KCal/Mol        Cal/Mol-Kelvin    Cal/Mol-Kelvin
 Total                   24.037              4.968             48.807
 Electronic               0.000              0.000              1.377
 Translational            0.889              2.981             35.068
 Rotational               0.592              1.987             12.361
 Vibrational             22.556              0.000              0.000

 Normal termination of Gaussian 16 at Fri Aug 22 15:40:14 2025.
