 Gaussian 16, Revision C.01,
 Gaussian 16:  ES64L-G16RevC.01  3-Jul-2019

 -----------------------------------------
 # sp b3lyp/6-311g** Force nosymm scf=(qc)
 -----------------------------------------

 -------------------
 Title Card Required
 -------------------
 Symbolic Z-matrix:
 Charge =  0 Multiplicity = 2

                          Input orientation:
 ---------------------------------------------------------------------
 Center     Atomic      Atomic             Coordinates (Angstroms)
 Number     Number       Type             X           Y           Z
 ---------------------------------------------------------------------
      1          1           0        0.000000    0.000000    0.000000
      2          1           0       -3.650000    0.000000    0.000000
      3          9           0        1.950000    0.000000    0.000000
 ---------------------------------------------------------------------

 SCF Done:  E(UB3LYP) =  -100.790746751     a.u. after   16 cycles

 Alpha  occ. eigenvalues --  -24.67846  -1.14149  -0.46790  -0.39434  -0.39434
 Alpha  occ. eigenvalues --   -0.33399
 Alpha virt. eigenvalues --   -0.14092   0.22169   0.31330   0.89485   0.94868
 Alpha virt. eigenvalues --    0.94868   1.05635   1.24112   1.24112   1.24151
 Alpha virt. eigenvalues --    1.34956   1.34956   1.62877   2.13773   2.28726

  Beta  occ. eigenvalues --  -24.65563  -1.07789  -0.38270  -0.37189  -0.37189
  Beta virt. eigenvalues --   -0.20408  -0.06747   0.22309   0.37970   0.90559
  Beta virt. eigenvalues --    0.95354   0.95354   1.08075   1.22248   1.22248
  Beta virt. eigenvalues --    1.45744   1.46128   1.46128   1.56328   2.11788

 Mulliken charges and spin densities:
               1          2
     1  H    0.207038  -0.716070
     2  H    0.001167   0.998366
     3  F   -0.208205   0.717703
 Sum of Mulliken charges =   0.00000   1.00000

 Dipole moment (field-independent basis, Debye):
    X=             -2.0195    Y=              0.0000    Z=             -0.0000  Tot=              2.0195
 Quadrupole moment (field-independent basis, Debye-Ang):
   XX=            -10.1014   YY=             -7.4765   ZZ=             -7.4765
   XY=              0.0000   XZ=             -0.0000   YZ=              0.0000

  Exact polarizability:      24.882       0.000       2.069      -0.000      -0.000       2.069
 Approx polarizability:      36.725       0.000       1.955      -0.000      -0.000       1.955

 ******    2 imaginary frequencies (negative Signs) ******

                      1                      2                      3
                      A                      A                      A
 Frequencies --  -1214.3912              -100.0482               518.2768
 Red. masses --      1.0575                 1.0540                 1.0270
 Frc consts  --      0.9189                 0.0062                 0.1625
 IR Inten    --    126.1566                 0.1476                40.3278

                      4
                      A
 Frequencies --    518.2768
 Red. masses --      1.0270
 Frc consts  --      0.1625
 IR Inten    --     40.3278

 - Thermochemistry -
 -------------------
 Temperature   298.150 Kelvin.  Pressure   1.00000 Atm.
 Atom     1 has atomic number  1 and mass   1.00783

 Molecular mass:    21.01405 amu.
 Principal axes and moments of inertia in atomic units:
                           1         2         3
     Eigenvalues --     0.00000 116.71111 116.71111
           X            1.00000  -0.00000   0.00000
           Y            0.00000   1.00000   0.00000
           Z            0.00000   0.00000   1.00000
 This molecule is a prolate symmetric top.
 Rotational symmetry number  1.
 Rotational temperature (Kelvin)      0.74212
 Rotational constant (GHZ):          15.463319
    2 imaginary frequencies ignored.
 Zero-point vibrational energy       6200.0 (Joules/Mol)
                                    1.48183 (Kcal/Mol)
 Warning -- explicit consideration of   2 degrees of freedom as
           vibrations may cause significant error
 Vibrational temperatures:    745.68   745.68
          (Kelvin)

 Zero-point correction=                           0.002361 (Hartree/Particle)
 Thermal correction to Energy=                    0.005144
 Thermal correction to Enthalpy=                  0.006088
 Thermal correction to Gibbs Free Energy=        -0.018417
 Sum of electronic and zero-point Energies=           -100.788385
 Sum of electronic and thermal Energies=              -100.785603
 Sum of electronic and thermal Enthalpies=            -100.784659
 Sum of electronic and thermal Free Energies=         -100.809164

                     E (Thermal)             CV                S
                      KCal/Mol        Cal/Mol-Kelvin    Cal/Mol-Kelvin
 Total                    3.228              7.387             51.576
 Electronic               0.000              0.000              1.377
 Translational            0.889              2.981             35.068
 Rotational               0.592              1.987             13.902
 Vibrational              1.747              2.419              1.228
 Vibration     1          0.873              1.210              0.614
 Vibration     2          0.873              1.210              0.614

 Normal termination of Gaussian 16 at Fri Aug 22 16:54:41 2025.
