 Gaussian 16, Revision C.01,
 Gaussian 16:  ES64L-G16RevC.01  3-Jul-2019

 -----------------------------------------
 # sp b3lyp/6-311g** Force nosymm scf=(qc)
 -----------------------------------------

 -------------------
 Title Card Required
 -------------------
 Symbolic Z-matrix:
 Charge =  0 Multiplicity = 2

                          Input orientation:
 ---------------------------------------------------------------------
 Center     Atomic      Atomic             Coordinates (Angstroms)
 Number     Number       Type             X           Y           Z
 ---------------------------------------------------------------------
      1          1           0        0.000000    0.000000    0.000000
      2          1           0       -0.750000    0.000000    0.000000
      3          9           0        2.750000    0.000000    0.000000
 ---------------------------------------------------------------------

 SCF Done:  E(UB3LYP) =  -100.934529777     a.u. after   88 cycles

 Alpha  occ. eigenvalues --  -24.76768  -1.22553  -0.55737  -0.47105  -0.46885
 Alpha  occ. eigenvalues --   -0.42820
 Alpha virt. eigenvalues --    0.06416   0.20206   0.47608   0.85748   0.90617
 Alpha virt. eigenvalues --    0.93754   1.08739   1.08751   1.08986   1.55443
 Alpha virt. eigenvalues --    1.82596   1.82609   1.98601   2.39384   3.28443

  Beta  occ. eigenvalues --  -24.73604  -1.13462  -0.44249  -0.43713  -0.42500
  Beta virt. eigenvalues --   -0.26352   0.06481   0.20248   0.47720   0.92114
  Beta virt. eigenvalues --    0.95199   0.95678   1.08741   1.08750   1.12536
  Beta virt. eigenvalues --    1.55450   1.82595   1.82607   1.98624   2.39393

 Mulliken charges and spin densities:
               1          2
     1  H   -0.007176  -0.001599
     2  H   -0.005360  -0.000190
     3  F    0.012535   1.001789
 Sum of Mulliken charges =   0.00000   1.00000

 Dipole moment (field-independent basis, Debye):
    X=              0.1226    Y=              0.0000    Z=             -0.0000  Tot=              0.1226
 Quadrupole moment (field-independent basis, Debye-Ang):
   XX=             -6.0399   YY=             -6.5284   ZZ=             -6.5329
   XY=             -0.0000   XZ=              0.0000   YZ=             -0.4316

  Exact polarizability:       8.818       0.000       2.199       0.000      -0.227       2.197
 Approx polarizability:       9.999      -0.000       2.337       0.000      -0.286       2.334

                      1                      2                      3
                      A                      A                      A
 Frequencies --    105.6952               442.8648               444.8197
 Red. masses --      1.1085                 1.0093                 1.0093
 Frc consts  --      0.0073                 0.1166                 0.1177
 IR Inten    --      0.3884                 0.0128                 0.0154

                      4
                      A
 Frequencies --   4338.2408
 Red. masses --      1.0078
 Frc consts  --     11.1754
 IR Inten    --      1.2217

 - Thermochemistry -
 -------------------
 Temperature   298.150 Kelvin.  Pressure   1.00000 Atm.
 Atom     1 has atomic number  1 and mass   1.00783

 Molecular mass:    21.01405 amu.
 Principal axes and moments of inertia in atomic units:
                           1         2         3
     Eigenvalues --     0.00000  64.56290  64.56290
           X            1.00000  -0.00000   0.00000
           Y            0.00000   1.00000   0.00000
           Z            0.00000   0.00000   1.00000
 This molecule is a prolate symmetric top.
 Rotational symmetry number  1.
 Rotational temperature (Kelvin)      1.34154
 Rotational constant (GHZ):          27.953224
 Zero-point vibrational energy      31890.2 (Joules/Mol)
                                    7.62193 (Kcal/Mol)
 Warning -- explicit consideration of   3 degrees of freedom as
           vibrations may cause significant error
 Vibrational temperatures:    152.07   637.18   640.00  6241.76
          (Kelvin)

 Zero-point correction=                           0.012146 (Hartree/Particle)
 Thermal correction to Energy=                    0.015769
 Thermal correction to Enthalpy=                  0.016713
 Thermal correction to Gibbs Free Energy=        -0.009014
 Sum of electronic and zero-point Energies=           -100.922383
 Sum of electronic and thermal Energies=              -100.918761
 Sum of electronic and thermal Enthalpies=            -100.917817
 Sum of electronic and thermal Free Energies=         -100.943544

                     E (Thermal)             CV                S
                      KCal/Mol        Cal/Mol-Kelvin    Cal/Mol-Kelvin
 Total                    9.895              9.662             54.147
 Electronic               0.000              0.000              1.377
 Translational            0.889              2.981             35.068
 Rotational               0.592              1.987             12.726
 Vibrational              8.414              4.694              4.976
 Vibration     1          0.605              1.945              3.346
 Vibration     2          0.802              1.377              0.818
 Vibration     3          0.804              1.372              0.812

 Normal termination of Gaussian 16 at Fri Aug 22 18:28:38 2025.
