 Gaussian 16, Revision C.01,
 Gaussian 16:  ES64L-G16RevC.01  3-Jul-2019

 -----------------------------------------
 # sp b3lyp/6-311g** Force nosymm scf=(qc)
 -----------------------------------------

 -------------------
 Title Card Required
 -------------------
 Symbolic Z-matrix:
 Charge =  0 Multiplicity = 2

                          Input orientation:
 ---------------------------------------------------------------------
 Center     Atomic      Atomic             Coordinates (Angstroms)
 Number     Number       Type             X           Y           Z
 ---------------------------------------------------------------------
      1          1           0        0.000000    0.000000    0.000000
      2          1           0       -2.050000    0.000000    0.000000
      3          9           0        3.850000    0.000000    0.000000
 ---------------------------------------------------------------------

 SCF Done:  E(UB3LYP) =  -100.772230880     a.u. after   76 cycles

 Alpha  occ. eigenvalues --  -24.76016  -1.21932  -0.55133  -0.46308  -0.46302
 Alpha  occ. eigenvalues --   -0.32773
 Alpha virt. eigenvalues --   -0.10492   0.26081   0.33006   0.86400   0.91070
 Alpha virt. eigenvalues --    0.91298   1.01050   1.19267   1.25192   1.25192
 Alpha virt. eigenvalues --    1.38663   1.38664   1.49705   2.13497   2.36127

  Beta  occ. eigenvalues --  -24.72868  -1.12878  -0.43154  -0.43145  -0.32785
  Beta virt. eigenvalues --   -0.25836  -0.10460   0.26011   0.33131   0.92570
  Beta virt. eigenvalues --    0.92755   0.95831   1.05177   1.19246   1.25169
  Beta virt. eigenvalues --    1.25171   1.38727   1.38728   1.49761   2.13738

 Mulliken charges and spin densities:
               1          2
     1  H    0.000289  -0.875424
     2  H    0.000800   0.877224
     3  F   -0.001089   0.998200
 Sum of Mulliken charges =   0.00000   1.00000

 Dipole moment (field-independent basis, Debye):
    X=             -0.0322    Y=              0.0007    Z=              0.0003  Tot=              0.0323
 Quadrupole moment (field-independent basis, Debye-Ang):
   XX=             -6.7475   YY=             -7.3224   ZZ=             -7.6664
   XY=              0.4039   XZ=              0.1511   YZ=              0.1496

  Exact polarizability:      22.144       0.213       2.227       0.063       0.081       2.041
 Approx polarizability:      25.540       0.257       2.207       0.096       0.101       1.975

 ******    2 imaginary frequencies (negative Signs) ******

                      1                      2                      3
                      A                      A                      A
 Frequencies --  -1259.8640               -60.3429               510.2475
 Red. masses --      1.0078                 1.1085                 1.0121
 Frc consts  --      0.9425                 0.0024                 0.1553
 IR Inten    --      0.0108                 0.0604                 0.0022

                      4
                      A
 Frequencies --    510.3469
 Red. masses --      1.0121
 Frc consts  --      0.1553
 IR Inten    --      0.0291

 - Thermochemistry -
 -------------------
 Temperature   298.150 Kelvin.  Pressure   1.00000 Atm.
 Atom     1 has atomic number  1 and mass   1.00783

 Molecular mass:    21.01405 amu.
 Principal axes and moments of inertia in atomic units:
                           1         2         3
     Eigenvalues --     0.00000 162.21935 162.21935
           X            1.00000  -0.00000   0.00000
           Y            0.00000   1.00000   0.00000
           Z            0.00000   0.00000   1.00000
 This molecule is a prolate symmetric top.
 Rotational symmetry number  1.
 Rotational temperature (Kelvin)      0.53393
 Rotational constant (GHZ):          11.125314
    2 imaginary frequencies ignored.
 Zero-point vibrational energy       6104.5 (Joules/Mol)
                                    1.45901 (Kcal/Mol)
 Warning -- explicit consideration of   2 degrees of freedom as
           vibrations may cause significant error
 Vibrational temperatures:    734.13   734.28
          (Kelvin)

 Zero-point correction=                           0.002325 (Hartree/Particle)
 Thermal correction to Energy=                    0.005119
 Thermal correction to Enthalpy=                  0.006063
 Thermal correction to Gibbs Free Energy=        -0.018771
 Sum of electronic and zero-point Energies=           -100.769906
 Sum of electronic and thermal Energies=              -100.767112
 Sum of electronic and thermal Enthalpies=            -100.766168
 Sum of electronic and thermal Free Energies=         -100.791002

                     E (Thermal)             CV                S
                      KCal/Mol        Cal/Mol-Kelvin    Cal/Mol-Kelvin
 Total                    3.212              7.422             52.268
 Electronic               0.000              0.000              1.377
 Translational            0.889              2.981             35.068
 Rotational               0.592              1.987             14.556
 Vibrational              1.731              2.454              1.266
 Vibration     1          0.865              1.227              0.633
 Vibration     2          0.865              1.227              0.633

 Normal termination of Gaussian 16 at Sat Aug 23 01:06:47 2025.
