 Gaussian 16, Revision C.01,
 Gaussian 16:  ES64L-G16RevC.01  3-Jul-2019

 -----------------------------------------
 # sp b3lyp/6-311g** Force nosymm scf=(qc)
 -----------------------------------------

 -------------------
 Title Card Required
 -------------------
 Symbolic Z-matrix:
 Charge =  0 Multiplicity = 2

                          Input orientation:
 ---------------------------------------------------------------------
 Center     Atomic      Atomic             Coordinates (Angstroms)
 Number     Number       Type             X           Y           Z
 ---------------------------------------------------------------------
      1          1           0        0.000000    0.000000    0.000000
      2          1           0       -3.750000    0.000000    0.000000
      3          9           0        2.150000    0.000000    0.000000
 ---------------------------------------------------------------------

 SCF Done:  E(UB3LYP) =  -100.778696995     a.u. after   16 cycles

 Alpha  occ. eigenvalues --  -24.69403  -1.15720  -0.48447  -0.40755  -0.40755
 Alpha  occ. eigenvalues --   -0.33120
 Alpha virt. eigenvalues --   -0.12629   0.22760   0.33041   0.88246   0.94610
 Alpha virt. eigenvalues --    0.94610   1.05837   1.24386   1.24386   1.24416
 Alpha virt. eigenvalues --    1.37014   1.37014   1.53683   2.13897   2.31866

  Beta  occ. eigenvalues --  -24.66829  -1.08474  -0.38207  -0.38207  -0.37049
  Beta virt. eigenvalues --   -0.21677  -0.06496   0.22971   0.38055   0.90734
  Beta virt. eigenvalues --    0.95605   0.95605   1.08135   1.21523   1.21523
  Beta virt. eigenvalues --    1.44461   1.46284   1.46334   1.46334   2.11486

 Mulliken charges and spin densities:
               1          2
     1  H    0.154784  -0.809028
     2  H    0.000723   0.998809
     3  F   -0.155507   0.810219
 Sum of Mulliken charges =  -0.00000   1.00000

 Dipole moment (field-independent basis, Debye):
    X=             -1.6820    Y=              0.0000    Z=             -0.0000  Tot=              1.6820
 Quadrupole moment (field-independent basis, Debye-Ang):
   XX=             -9.9004   YY=             -7.5168   ZZ=             -7.5168
   XY=              0.0000   XZ=             -0.0000   YZ=             -0.0000

  Exact polarizability:      26.898       0.000       2.045      -0.000       0.000       2.045
 Approx polarizability:      37.789       0.000       1.932      -0.000      -0.000       1.932

 ******    2 imaginary frequencies (negative Signs) ******

                      1                      2                      3
                      A                      A                      A
 Frequencies --   -920.6851               -90.3157               387.0195
 Red. masses --      1.0573                 1.0543                 1.0259
 Frc consts  --      0.5280                 0.0051                 0.0905
 IR Inten    --    109.9965                 0.0840                22.9440

                      4
                      A
 Frequencies --    387.0195
 Red. masses --      1.0259
 Frc consts  --      0.0905
 IR Inten    --     22.9440

 - Thermochemistry -
 -------------------
 Temperature   298.150 Kelvin.  Pressure   1.00000 Atm.
 Atom     1 has atomic number  1 and mass   1.00783

 Molecular mass:    21.01405 amu.
 Principal axes and moments of inertia in atomic units:
                           1         2         3
     Eigenvalues --     0.00000 130.73254 130.73254
           X            1.00000  -0.00000   0.00000
           Y            0.00000   1.00000   0.00000
           Z            0.00000   0.00000   1.00000
 This molecule is a prolate symmetric top.
 Rotational symmetry number  1.
 Rotational temperature (Kelvin)      0.66253
 Rotational constant (GHZ):          13.804835
    2 imaginary frequencies ignored.
 Zero-point vibrational energy       4629.8 (Joules/Mol)
                                    1.10654 (Kcal/Mol)
 Warning -- explicit consideration of   2 degrees of freedom as
           vibrations may cause significant error
 Vibrational temperatures:    556.83   556.83
          (Kelvin)

 Zero-point correction=                           0.001763 (Hartree/Particle)
 Thermal correction to Energy=                    0.004768
 Thermal correction to Enthalpy=                  0.005712
 Thermal correction to Gibbs Free Energy=        -0.019278
 Sum of electronic and zero-point Energies=           -100.776934
 Sum of electronic and thermal Energies=              -100.773929
 Sum of electronic and thermal Enthalpies=            -100.772985
 Sum of electronic and thermal Free Energies=         -100.797975

                     E (Thermal)             CV                S
                      KCal/Mol        Cal/Mol-Kelvin    Cal/Mol-Kelvin
 Total                    2.992              7.964             52.596
 Electronic               0.000              0.000              1.377
 Translational            0.889              2.981             35.068
 Rotational               0.592              1.987             14.128
 Vibrational              1.511              2.996              2.023
 Vibration     1          0.755              1.498              1.012
 Vibration     2          0.755              1.498              1.012

 Normal termination of Gaussian 16 at Fri Aug 22 17:09:20 2025.
