 Gaussian 16, Revision C.01,
 Gaussian 16:  ES64L-G16RevC.01  3-Jul-2019

 -----------------------------------------
 # sp b3lyp/6-311g** Force nosymm scf=(qc)
 -----------------------------------------

 -------------------
 Title Card Required
 -------------------
 Symbolic Z-matrix:
 Charge =  0 Multiplicity = 2

                          Input orientation:
 ---------------------------------------------------------------------
 Center     Atomic      Atomic             Coordinates (Angstroms)
 Number     Number       Type             X           Y           Z
 ---------------------------------------------------------------------
      1          1           0        0.000000    0.000000    0.000000
      2          1           0       -2.600000    0.000000    0.000000
      3          9           0        2.650000    0.000000    0.000000
 ---------------------------------------------------------------------

 SCF Done:  E(UB3LYP) =  -100.767544598     a.u. after   19 cycles

 Alpha  occ. eigenvalues --  -24.72592  -1.18750  -0.51700  -0.43418  -0.43418
 Alpha  occ. eigenvalues --   -0.33408
 Alpha virt. eigenvalues --   -0.11165   0.24898   0.33569   0.90243   0.93157
 Alpha virt. eigenvalues --    0.93157   1.06044   1.24209   1.24209   1.26459
 Alpha virt. eigenvalues --    1.39151   1.39151   1.41892   2.15197   2.35256

  Beta  occ. eigenvalues --  -24.69678  -1.10432  -0.40508  -0.40508  -0.34781
  Beta virt. eigenvalues --   -0.23904  -0.09091   0.25570   0.35139   0.94570
  Beta virt. eigenvalues --    0.94570   0.98075   1.09370   1.22699   1.22699
  Beta virt. eigenvalues --    1.27073   1.42411   1.42411   1.43577   2.15251

 Mulliken charges and spin densities:
               1          2
     1  H    0.062136  -0.899940
     2  H    0.007206   0.978001
     3  F   -0.069342   0.921939
 Sum of Mulliken charges =  -0.00000   1.00000

 Dipole moment (field-independent basis, Debye):
    X=             -1.0284    Y=             -0.0000    Z=              0.0000  Tot=              1.0284
 Quadrupole moment (field-independent basis, Debye-Ang):
   XX=             -8.6588   YY=             -7.6200   ZZ=             -7.6200
   XY=             -0.0000   XZ=              0.0000   YZ=             -0.0000

  Exact polarizability:      41.949      -0.000       2.015       0.000       0.000       2.015
 Approx polarizability:      44.151      -0.000       1.918       0.000      -0.000       1.918

 ******    2 imaginary frequencies (negative Signs) ******

                      1                      2                      3
                      A                      A                      A
 Frequencies --   -703.1507              -293.8540               272.6040
 Red. masses --      1.0198                 1.0944                 1.0177
 Frc consts  --      0.2971                 0.0557                 0.0446
 IR Inten    --     47.8371                19.0849                 3.2345

                      4
                      A
 Frequencies --    272.6040
 Red. masses --      1.0177
 Frc consts  --      0.0446
 IR Inten    --      3.2345

 - Thermochemistry -
 -------------------
 Temperature   298.150 Kelvin.  Pressure   1.00000 Atm.
 Atom     1 has atomic number  1 and mass   1.00783

 Molecular mass:    21.01405 amu.
 Principal axes and moments of inertia in atomic units:
                           1         2         3
     Eigenvalues --     0.00000 113.69931 113.69931
           X            1.00000  -0.00000   0.00000
           Y            0.00000   1.00000   0.00000
           Z            0.00000   0.00000   1.00000
 This molecule is a prolate symmetric top.
 Rotational symmetry number  1.
 Rotational temperature (Kelvin)      0.76178
 Rotational constant (GHZ):          15.872930
    2 imaginary frequencies ignored.
 Zero-point vibrational energy       3261.1 (Joules/Mol)
                                    0.77941 (Kcal/Mol)
 Warning -- explicit consideration of   2 degrees of freedom as
           vibrations may cause significant error
 Vibrational temperatures:    392.22   392.22
          (Kelvin)

 Zero-point correction=                           0.001242 (Hartree/Particle)
 Thermal correction to Energy=                    0.004514
 Thermal correction to Enthalpy=                  0.005458
 Thermal correction to Gibbs Free Energy=        -0.019940
 Sum of electronic and zero-point Energies=           -100.766303
 Sum of electronic and thermal Energies=              -100.763031
 Sum of electronic and thermal Enthalpies=            -100.762087
 Sum of electronic and thermal Free Energies=         -100.787485

                     E (Thermal)             CV                S
                      KCal/Mol        Cal/Mol-Kelvin    Cal/Mol-Kelvin
 Total                    2.832              8.416             53.455
 Electronic               0.000              0.000              1.377
 Translational            0.889              2.981             35.068
 Rotational               0.592              1.987             13.850
 Vibrational              1.351              3.448              3.159
 Vibration     1          0.676              1.724              1.580
 Vibration     2          0.676              1.724              1.580

 Normal termination of Gaussian 16 at Fri Aug 22 18:14:57 2025.
