 Gaussian 16, Revision C.01,
 Gaussian 16:  ES64L-G16RevC.01  3-Jul-2019

 -----------------------------------------
 # sp b3lyp/6-311g** Force nosymm scf=(qc)
 -----------------------------------------

 -------------------
 Title Card Required
 -------------------
 Symbolic Z-matrix:
 Charge =  0 Multiplicity = 2

                          Input orientation:
 ---------------------------------------------------------------------
 Center     Atomic      Atomic             Coordinates (Angstroms)
 Number     Number       Type             X           Y           Z
 ---------------------------------------------------------------------
      1          1           0        0.000000    0.000000    0.000000
      2          1           0       -2.300000    0.000000    0.000000
      3          9           0        1.350000    0.000000    0.000000
 ---------------------------------------------------------------------

 SCF Done:  E(UB3LYP) =  -100.890906427     a.u. after    7 cycles

 Alpha  occ. eigenvalues --  -24.63944  -1.10412  -0.45303  -0.36531  -0.36531
 Alpha  occ. eigenvalues --   -0.36040
 Alpha virt. eigenvalues --   -0.09103   0.23945   0.26994   0.93393   0.93393
 Alpha virt. eigenvalues --    1.02835   1.15282   1.21411   1.21411   1.30022
 Alpha virt. eigenvalues --    1.33827   1.33827   1.72256   2.11731   2.24894

  Beta  occ. eigenvalues --  -24.63797  -1.10032  -0.44709  -0.36394  -0.36394
  Beta virt. eigenvalues --   -0.14420  -0.05168   0.26633   0.35143   0.93366
  Beta virt. eigenvalues --    0.93366   1.03189   1.19022   1.33346   1.33346
  Beta virt. eigenvalues --    1.41459   1.41459   1.45260   1.72431   2.22410

 Mulliken charges and spin densities:
               1          2
     1  H    0.342365  -0.019250
     2  H    0.021060   0.973796
     3  F   -0.363425   0.045454
 Sum of Mulliken charges =  -0.00000   1.00000

 Dipole moment (field-independent basis, Debye):
    X=             -2.7038    Y=             -0.0000    Z=             -0.0000  Tot=              2.7038
 Quadrupole moment (field-independent basis, Debye-Ang):
   XX=             -8.8137   YY=             -7.2227   ZZ=             -7.2227
   XY=             -0.0000   XZ=             -0.0000   YZ=             -0.0000

  Exact polarizability:      18.238       0.000       2.285       0.000       0.000       2.285
 Approx polarizability:      25.526      -0.000       2.229      -0.000       0.000       2.229

 ******    2 imaginary frequencies (negative Signs) ******

                      1                      2                      3
                      A                      A                      A
 Frequencies --  -1062.4207              -224.2019              1098.5638
 Red. masses --      1.0418                 1.0702                 1.0255
 Frc consts  --      0.6928                 0.0317                 0.7292
 IR Inten    --    168.9595                 0.3384               106.3551

                      4
                      A
 Frequencies --   1098.5638
 Red. masses --      1.0255
 Frc consts  --      0.7292
 IR Inten    --    106.3551

 - Thermochemistry -
 -------------------
 Temperature   298.150 Kelvin.  Pressure   1.00000 Atm.
 Atom     1 has atomic number  1 and mass   1.00783

 Molecular mass:    21.01405 amu.
 Principal axes and moments of inertia in atomic units:
                           1         2         3
     Eigenvalues --     0.00000  50.19181  50.19181
           X            1.00000  -0.00000   0.00000
           Y            0.00000   1.00000   0.00000
           Z            0.00000   0.00000   1.00000
 This molecule is a prolate symmetric top.
 Rotational symmetry number  1.
 Rotational temperature (Kelvin)      1.72566
 Rotational constant (GHZ):          35.956885
    2 imaginary frequencies ignored.
 Zero-point vibrational energy      13141.7 (Joules/Mol)
                                    3.14095 (Kcal/Mol)
 Vibrational temperatures:   1580.59  1580.59
          (Kelvin)

 Zero-point correction=                           0.005005 (Hartree/Particle)
 Thermal correction to Energy=                    0.007416
 Thermal correction to Enthalpy=                  0.008360
 Thermal correction to Gibbs Free Energy=        -0.014824
 Sum of electronic and zero-point Energies=           -100.885901
 Sum of electronic and thermal Energies=              -100.883490
 Sum of electronic and thermal Enthalpies=            -100.882546
 Sum of electronic and thermal Free Energies=         -100.905731

                     E (Thermal)             CV                S
                      KCal/Mol        Cal/Mol-Kelvin    Cal/Mol-Kelvin
 Total                    4.654              5.530             48.796
 Electronic               0.000              0.000              1.377
 Translational            0.889              2.981             35.068
 Rotational               0.592              1.987             12.225
 Vibrational              3.172              0.562              0.125

 Normal termination of Gaussian 16 at Fri Aug 22 16:17:49 2025.
