 Gaussian 16, Revision C.01,
 Gaussian 16:  ES64L-G16RevC.01  3-Jul-2019

 -----------------------------------------
 # sp b3lyp/6-311g** Force nosymm scf=(qc)
 -----------------------------------------

 -------------------
 Title Card Required
 -------------------
 Symbolic Z-matrix:
 Charge =  0 Multiplicity = 2

                          Input orientation:
 ---------------------------------------------------------------------
 Center     Atomic      Atomic             Coordinates (Angstroms)
 Number     Number       Type             X           Y           Z
 ---------------------------------------------------------------------
      1          1           0        0.000000    0.000000    0.000000
      2          1           0       -0.600000    0.000000    0.000000
      3          9           0        3.100000    0.000000    0.000000
 ---------------------------------------------------------------------

 SCF Done:  E(UB3LYP) =  -100.915115972     a.u. after   15 cycles

 Alpha  occ. eigenvalues --  -24.76533  -1.22343  -0.55539  -0.47002  -0.46689
 Alpha  occ. eigenvalues --   -0.46219
 Alpha virt. eigenvalues --    0.08718   0.19012   0.52098   0.85918   0.90791
 Alpha virt. eigenvalues --    0.93944   1.05685   1.10317   1.10323   1.61156
 Alpha virt. eigenvalues --    1.83471   1.92865   1.92873   2.37567   3.64713

  Beta  occ. eigenvalues --  -24.73372  -1.13257  -0.46527  -0.43520  -0.43519
  Beta virt. eigenvalues --   -0.26163   0.08768   0.19040   0.52210   0.92290
  Beta virt. eigenvalues --    0.95376   0.95757   1.09332   1.10317   1.10323
  Beta virt. eigenvalues --    1.61173   1.83514   1.92865   1.92872   2.37571

 Mulliken charges and spin densities:
               1          2
     1  H   -0.006781  -0.001353
     2  H   -0.002052   0.000194
     3  F    0.008833   1.001159
 Sum of Mulliken charges =   0.00000   1.00000

 Dipole moment (field-independent basis, Debye):
    X=              0.0824    Y=             -0.0000    Z=             -0.0000  Tot=              0.0824
 Quadrupole moment (field-independent basis, Debye-Ang):
   XX=             -6.0311   YY=             -6.0738   ZZ=             -6.5520
   XY=              0.0000   XZ=             -0.0000   YZ=              0.3596

  Exact polarizability:       6.764       0.000       2.231       0.000       0.192       1.975
 Approx polarizability:       7.292       0.000       2.404      -0.000       0.241       2.084

 ******    2 imaginary frequencies (negative Signs) ******

                      1                      2                      3
                      A                      A                      A
 Frequencies --  -2756.7912             -2756.3418                58.2681
 Red. masses --      1.0086                 1.0086                 1.1085
 Frc consts  --      4.5163                 4.5148                 0.0022
 IR Inten    --      0.0288                 0.0273                 0.1710

                      4
                      A
 Frequencies --   7042.3424
 Red. masses --      1.0078
 Frc consts  --     29.4489
 IR Inten    --      0.2244

 - Thermochemistry -
 -------------------
 Temperature   298.150 Kelvin.  Pressure   1.00000 Atm.
 Atom     1 has atomic number  1 and mass   1.00783

 Molecular mass:    21.01405 amu.
 Principal axes and moments of inertia in atomic units:
                           1         2         3
     Eigenvalues --     0.00000  75.87556  75.87556
           X            1.00000  -0.00000   0.00000
           Y            0.00000   1.00000   0.00000
           Z            0.00000   0.00000   1.00000
 This molecule is a prolate symmetric top.
 Rotational symmetry number  1.
 Rotational temperature (Kelvin)      1.14153
 Rotational constant (GHZ):          23.785542
    2 imaginary frequencies ignored.
 Zero-point vibrational energy      42471.1 (Joules/Mol)
                                   10.15083 (Kcal/Mol)
 Warning -- explicit consideration of   1 degrees of freedom as
           vibrations may cause significant error
 Vibrational temperatures:     83.83 10132.36
          (Kelvin)

 Zero-point correction=                           0.016176 (Hartree/Particle)
 Thermal correction to Energy=                    0.019354
 Thermal correction to Enthalpy=                  0.020299
 Thermal correction to Gibbs Free Energy=        -0.005362
 Sum of electronic and zero-point Energies=           -100.898940
 Sum of electronic and thermal Energies=              -100.895761
 Sum of electronic and thermal Enthalpies=            -100.894817
 Sum of electronic and thermal Free Energies=         -100.920478

                     E (Thermal)             CV                S
                      KCal/Mol        Cal/Mol-Kelvin    Cal/Mol-Kelvin
 Total                   12.145              6.942             54.007
 Electronic               0.000              0.000              1.377
 Translational            0.889              2.981             35.068
 Rotational               0.592              1.987             13.046
 Vibrational             10.664              1.974              4.515
 Vibration     1          0.596              1.974              4.515

 Normal termination of Gaussian 16 at Fri Aug 22 19:46:20 2025.
