 Gaussian 16, Revision C.01,
 Gaussian 16:  ES64L-G16RevC.01  3-Jul-2019

 -----------------------------------------
 # sp b3lyp/6-311g** Force nosymm scf=(qc)
 -----------------------------------------

 -------------------
 Title Card Required
 -------------------
 Symbolic Z-matrix:
 Charge =  0 Multiplicity = 2

                          Input orientation:
 ---------------------------------------------------------------------
 Center     Atomic      Atomic             Coordinates (Angstroms)
 Number     Number       Type             X           Y           Z
 ---------------------------------------------------------------------
      1          1           0        0.000000    0.000000    0.000000
      2          1           0       -1.550000    0.000000    0.000000
      3          9           0        0.550000    0.000000    0.000000
 ---------------------------------------------------------------------

 SCF Done:  E(UB3LYP) =  -100.512628471     a.u. after    7 cycles

 Alpha  occ. eigenvalues --  -24.62895  -1.38855  -0.62910  -0.43857  -0.43857
 Alpha  occ. eigenvalues --   -0.35481
 Alpha virt. eigenvalues --    0.13959   0.22193   0.61086   0.90731   0.90731
 Alpha virt. eigenvalues --    0.90993   1.19385   1.19385   1.40661   1.56770
 Alpha virt. eigenvalues --    1.56770   1.65927   1.98701   2.22244   3.76891

  Beta  occ. eigenvalues --  -24.62813  -1.38588  -0.62552  -0.43805  -0.43805
  Beta virt. eigenvalues --   -0.10995   0.15086   0.31316   0.65701   0.90864
  Beta virt. eigenvalues --    0.90864   0.91146   1.35580   1.35580   1.44549
  Beta virt. eigenvalues --    1.59359   1.59359   1.77616   1.98606   2.47006

 Mulliken charges and spin densities:
               1          2
     1  H    0.176167   0.015920
     2  H    0.010062   0.980222
     3  F   -0.186229   0.003858
 Sum of Mulliken charges =   0.00000   1.00000

 Dipole moment (field-independent basis, Debye):
    X=             -1.3661    Y=              0.0000    Z=             -0.0000  Tot=              1.3661
 Quadrupole moment (field-independent basis, Debye-Ang):
   XX=             -6.7088   YY=             -6.4263   ZZ=             -6.4263
   XY=              0.0000   XZ=             -0.0000   YZ=              0.0000

  Exact polarizability:       5.852      -0.000       2.494       0.000      -0.000       2.494
 Approx polarizability:       5.552      -0.000       2.506       0.000      -0.000       2.506

 ******    2 imaginary frequencies (negative Signs) ******

                      1                      2                      3
                      A                      A                      A
 Frequencies --  -7345.8414             -7345.8414               865.4456
 Red. masses --      1.0336                 1.0336                 1.0534
 Frc consts  --     32.8613                32.8613                 0.4649
 IR Inten    --    192.7896               192.7896                 5.1201

                      4
                      A
 Frequencies --  15778.7572
 Red. masses --      1.0582
 Frc consts  --    155.2209
 IR Inten    --     94.2695

 - Thermochemistry -
 -------------------
 Temperature   298.150 Kelvin.  Pressure   1.00000 Atm.
 Atom     1 has atomic number  1 and mass   1.00783

 Molecular mass:    21.01405 amu.
 Principal axes and moments of inertia in atomic units:
                           1         2         3
     Eigenvalues --     0.00000  15.74820  15.74820
           X            1.00000  -0.00000   0.00000
           Y            0.00000   1.00000   0.00000
           Z            0.00000   0.00000   1.00000
 This molecule is a prolate symmetric top.
 Rotational symmetry number  1.
 Rotational temperature (Kelvin)      5.49993
 Rotational constant (GHZ):         114.599872
    2 imaginary frequencies ignored.
 Zero-point vibrational energy      99554.4 (Joules/Mol)
                                   23.79408 (Kcal/Mol)
 Vibrational temperatures:   1245.18 22702.11
          (Kelvin)

 Zero-point correction=                           0.037918 (Hartree/Particle)
 Thermal correction to Energy=                    0.040340
 Thermal correction to Enthalpy=                  0.041284
 Thermal correction to Gibbs Free Energy=         0.019178
 Sum of electronic and zero-point Energies=           -100.474710
 Sum of electronic and thermal Energies=              -100.472288
 Sum of electronic and thermal Enthalpies=            -100.471344
 Sum of electronic and thermal Free Energies=         -100.493451

                     E (Thermal)             CV                S
                      KCal/Mol        Cal/Mol-Kelvin    Cal/Mol-Kelvin
 Total                   25.314              5.517             46.527
 Electronic               0.000              0.000              1.377
 Translational            0.889              2.981             35.068
 Rotational               0.592              1.987              9.922
 Vibrational             23.833              0.549              0.160

 Normal termination of Gaussian 16 at Fri Aug 22 15:39:02 2025.
