 Gaussian 16, Revision C.01,
 Gaussian 16:  ES64L-G16RevC.01  3-Jul-2019

 -----------------------------------------
 # sp b3lyp/6-311g** Force nosymm scf=(qc)
 -----------------------------------------

 -------------------
 Title Card Required
 -------------------
 Symbolic Z-matrix:
 Charge =  0 Multiplicity = 2

                          Input orientation:
 ---------------------------------------------------------------------
 Center     Atomic      Atomic             Coordinates (Angstroms)
 Number     Number       Type             X           Y           Z
 ---------------------------------------------------------------------
      1          1           0        0.000000    0.000000    0.000000
      2          1           0       -2.750000    0.000000    0.000000
      3          9           0        3.500000    0.000000    0.000000
 ---------------------------------------------------------------------

 SCF Done:  E(UB3LYP) =  -100.761016412     a.u. after   28 cycles

 Alpha  occ. eigenvalues --  -24.75421  -1.21381  -0.54543  -0.45796  -0.45796
 Alpha  occ. eigenvalues --   -0.32540
 Alpha virt. eigenvalues --   -0.08748   0.25355   0.35109   0.87610   0.91458
 Alpha virt. eigenvalues --    0.91458   1.01798   1.25036   1.25036   1.26300
 Alpha virt. eigenvalues --    1.42738   1.42738   1.43210   2.15956   2.38409

  Beta  occ. eigenvalues --  -24.72306  -1.12429  -0.42673  -0.42673  -0.32917
  Beta virt. eigenvalues --   -0.25509  -0.08217   0.25143   0.35902   0.92947
  Beta virt. eigenvalues --    0.92947   0.96770   1.05829   1.24594   1.24594
  Beta virt. eigenvalues --    1.25795   1.43574   1.43574   1.44041   2.16362

 Mulliken charges and spin densities:
               1          2
     1  H    0.009776  -0.972959
     2  H    0.001249   0.985224
     3  F   -0.011025   0.987735
 Sum of Mulliken charges =   0.00000   1.00000

 Dipole moment (field-independent basis, Debye):
    X=             -0.2147    Y=             -0.0000    Z=              0.0000  Tot=              0.2147
 Quadrupole moment (field-independent basis, Debye-Ang):
   XX=             -7.2330   YY=             -7.6466   ZZ=             -7.6466
   XY=              0.0000   XZ=             -0.0000   YZ=              0.0000

  Exact polarizability:      28.944       0.000       2.028      -0.000      -0.000       2.028
 Approx polarizability:      22.102       0.000       1.930      -0.000      -0.000       1.930

 ******    2 imaginary frequencies (negative Signs) ******

                      1                      2                      3
                      A                      A                      A
 Frequencies --   -481.2865              -136.8710               171.1707
 Red. masses --      1.0087                 1.1075                 1.0153
 Frc consts  --      0.1377                 0.0122                 0.0175
 IR Inten    --      6.4943                 5.2841                 0.0730

                      4
                      A
 Frequencies --    171.1707
 Red. masses --      1.0153
 Frc consts  --      0.0175
 IR Inten    --      0.0730

 - Thermochemistry -
 -------------------
 Temperature   298.150 Kelvin.  Pressure   1.00000 Atm.
 Atom     1 has atomic number  1 and mass   1.00783

 Molecular mass:    21.01405 amu.
 Principal axes and moments of inertia in atomic units:
                           1         2         3
     Eigenvalues --     0.00000 168.26568 168.26568
           X            1.00000  -0.00000   0.00000
           Y            0.00000   1.00000   0.00000
           Z            0.00000   0.00000   1.00000
 This molecule is a prolate symmetric top.
 Rotational symmetry number  1.
 Rotational temperature (Kelvin)      0.51475
 Rotational constant (GHZ):          10.725545
    2 imaginary frequencies ignored.
 Zero-point vibrational energy       2047.7 (Joules/Mol)
                                    0.48940 (Kcal/Mol)
 Warning -- explicit consideration of   2 degrees of freedom as
           vibrations may cause significant error
 Vibrational temperatures:    246.28   246.28
          (Kelvin)

 Zero-point correction=                           0.000780 (Hartree/Particle)
 Thermal correction to Energy=                    0.004355
 Thermal correction to Enthalpy=                  0.005299
 Thermal correction to Gibbs Free Energy=        -0.021270
 Sum of electronic and zero-point Energies=           -100.760237
 Sum of electronic and thermal Energies=              -100.756661
 Sum of electronic and thermal Enthalpies=            -100.755717
 Sum of electronic and thermal Free Energies=         -100.782287

                     E (Thermal)             CV                S
                      KCal/Mol        Cal/Mol-Kelvin    Cal/Mol-Kelvin
 Total                    2.733              8.724             55.920
 Electronic               0.000              0.000              1.377
 Translational            0.889              2.981             35.068
 Rotational               0.592              1.987             14.629
 Vibrational              1.252              3.756              4.845
 Vibration     1          0.626              1.878              2.423
 Vibration     2          0.626              1.878              2.423

 Normal termination of Gaussian 16 at Fri Aug 22 22:10:09 2025.
