 Gaussian 16, Revision C.01,
 Gaussian 16:  ES64L-G16RevC.01  3-Jul-2019

 -----------------------------------------
 # sp b3lyp/6-311g** Force nosymm scf=(qc)
 -----------------------------------------

 -------------------
 Title Card Required
 -------------------
 Symbolic Z-matrix:
 Charge =  0 Multiplicity = 2

                          Input orientation:
 ---------------------------------------------------------------------
 Center     Atomic      Atomic             Coordinates (Angstroms)
 Number     Number       Type             X           Y           Z
 ---------------------------------------------------------------------
      1          1           0        0.000000    0.000000    0.000000
      2          1           0       -3.900000    0.000000    0.000000
      3          9           0        3.850000    0.000000    0.000000
 ---------------------------------------------------------------------

 SCF Done:  E(UB3LYP) =  -100.758483311     a.u. after   40 cycles

 Alpha  occ. eigenvalues --  -24.75788  -1.21722  -0.54913  -0.46105  -0.46105
 Alpha  occ. eigenvalues --   -0.32241
 Alpha virt. eigenvalues --   -0.06080   0.24187   0.37767   0.86766   0.91229
 Alpha virt. eigenvalues --    0.91229   1.01209   1.25254   1.25254   1.25286
 Alpha virt. eigenvalues --    1.46377   1.46377   1.46576   2.14647   2.42297

  Beta  occ. eigenvalues --  -24.72648  -1.12694  -0.42958  -0.42958  -0.32502
  Beta virt. eigenvalues --   -0.25685  -0.05895   0.23991   0.38212   0.92726
  Beta virt. eigenvalues --    0.92726   0.96093   1.05314   1.24968   1.24968
  Beta virt. eigenvalues --    1.24985   1.46605   1.46720   1.46720   2.14651

 Mulliken charges and spin densities:
               1          2
     1  H    0.004024  -0.994712
     2  H    0.000030   0.999197
     3  F   -0.004053   0.995515
 Sum of Mulliken charges =  -0.00000   1.00000

 Dipole moment (field-independent basis, Debye):
    X=             -0.0812    Y=              0.0000    Z=             -0.0000  Tot=              0.0812
 Quadrupole moment (field-independent basis, Debye-Ang):
   XX=             -7.0258   YY=             -7.6194   ZZ=             -7.6194
   XY=             -0.0000   XZ=             -0.0000   YZ=              0.0000

  Exact polarizability:      13.457      -0.000       2.034      -0.000       0.000       2.034
 Approx polarizability:       9.911      -0.000       1.937      -0.000      -0.000       1.937

 ******    2 imaginary frequencies (negative Signs) ******

                      1                      2                      3
                      A                      A                      A
 Frequencies --   -153.8803               -64.9434                47.8688
 Red. masses --      1.0273                 1.0858                 1.0181
 Frc consts  --      0.0143                 0.0027                 0.0014
 IR Inten    --      2.3606                 0.2885                 0.0159

                      4
                      A
 Frequencies --     47.8688
 Red. masses --      1.0181
 Frc consts  --      0.0014
 IR Inten    --      0.0159

 - Thermochemistry -
 -------------------
 Temperature   298.150 Kelvin.  Pressure   1.00000 Atm.
 Atom     1 has atomic number  1 and mass   1.00783

 Molecular mass:    21.01405 amu.
 Principal axes and moments of inertia in atomic units:
                           1         2         3
     Eigenvalues --     0.00000 246.28577 246.28577
           X            1.00000  -0.00000   0.00000
           Y            0.00000   1.00000   0.00000
           Z            0.00000   0.00000   1.00000
 This molecule is a prolate symmetric top.
 Rotational symmetry number  1.
 Rotational temperature (Kelvin)      0.35168
 Rotational constant (GHZ):           7.327834
    2 imaginary frequencies ignored.
 Zero-point vibrational energy        572.6 (Joules/Mol)
                                    0.13686 (Kcal/Mol)
 Warning -- explicit consideration of   2 degrees of freedom as
           vibrations may cause significant error
 Vibrational temperatures:     68.87    68.87
          (Kelvin)

 Zero-point correction=                           0.000218 (Hartree/Particle)
 Thermal correction to Energy=                    0.004257
 Thermal correction to Enthalpy=                  0.005201
 Thermal correction to Gibbs Free Energy=        -0.024085
 Sum of electronic and zero-point Energies=           -100.758265
 Sum of electronic and thermal Energies=              -100.754226
 Sum of electronic and thermal Enthalpies=            -100.753282
 Sum of electronic and thermal Free Energies=         -100.782568

                     E (Thermal)             CV                S
                      KCal/Mol        Cal/Mol-Kelvin    Cal/Mol-Kelvin
 Total                    2.671              8.925             61.639
 Electronic               0.000              0.000              1.377
 Translational            0.889              2.981             35.068
 Rotational               0.592              1.987             15.386
 Vibrational              1.190              3.957              9.807
 Vibration     1          0.595              1.978              4.904
 Vibration     2          0.595              1.978              4.904

 Normal termination of Gaussian 16 at Sat Aug 23 01:11:57 2025.
