 Gaussian 16, Revision C.01,
 Gaussian 16:  ES64L-G16RevC.01  3-Jul-2019

 -----------------------------------------
 # sp b3lyp/6-311g** Force nosymm scf=(qc)
 -----------------------------------------

 -------------------
 Title Card Required
 -------------------
 Symbolic Z-matrix:
 Charge =  0 Multiplicity = 2

                          Input orientation:
 ---------------------------------------------------------------------
 Center     Atomic      Atomic             Coordinates (Angstroms)
 Number     Number       Type             X           Y           Z
 ---------------------------------------------------------------------
      1          1           0        0.000000    0.000000    0.000000
      2          1           0       -2.050000    0.000000    0.000000
      3          9           0        0.950000    0.000000    0.000000
 ---------------------------------------------------------------------

 SCF Done:  E(UB3LYP) =  -100.971658024     a.u. after    6 cycles

 Alpha  occ. eigenvalues --  -24.63798  -1.17212  -0.52755  -0.38957  -0.38957
 Alpha  occ. eigenvalues --   -0.35877
 Alpha virt. eigenvalues --    0.05048   0.24338   0.36145   0.94450   0.94450
 Alpha virt. eigenvalues --    0.97977   1.14993   1.21516   1.21516   1.36853
 Alpha virt. eigenvalues --    1.36853   1.48958   1.92237   2.18327   2.35348

  Beta  occ. eigenvalues --  -24.63737  -1.17060  -0.52428  -0.38905  -0.38905
  Beta virt. eigenvalues --   -0.11914   0.07180   0.34905   0.36269   0.94459
  Beta virt. eigenvalues --    0.94459   0.98377   1.24476   1.36228   1.36228
  Beta virt. eigenvalues --    1.41939   1.41939   1.57907   1.94943   2.35290

 Mulliken charges and spin densities:
               1          2
     1  H    0.295354   0.005815
     2  H    0.014320   0.977876
     3  F   -0.309674   0.016309
 Sum of Mulliken charges =   0.00000   1.00000

 Dipole moment (field-independent basis, Debye):
    X=             -2.1153    Y=             -0.0000    Z=             -0.0000  Tot=              2.1153
 Quadrupole moment (field-independent basis, Debye-Ang):
   XX=             -7.6751   YY=             -6.8821   ZZ=             -6.8821
   XY=             -0.0000   XZ=             -0.0000   YZ=              0.0000

  Exact polarizability:       9.591       0.000       2.469      -0.000      -0.000       2.469
 Approx polarizability:      10.330       0.000       2.454       0.000      -0.000       2.454

                      1                      2                      3
                      A                      A                      A
 Frequencies --    151.3021               634.4969               634.4969
 Red. masses --      1.0526                 1.0293                 1.0293
 Frc consts  --      0.0142                 0.2441                 0.2441
 IR Inten    --      1.9915               143.6723               143.6723

                      4
                      A
 Frequencies --   3646.2909
 Red. masses --      1.0589
 Frc consts  --      8.2951
 IR Inten    --    173.6106

 - Thermochemistry -
 -------------------
 Temperature   298.150 Kelvin.  Pressure   1.00000 Atm.
 Atom     1 has atomic number  1 and mass   1.00783

 Molecular mass:    21.01405 amu.
 Principal axes and moments of inertia in atomic units:
                           1         2         3
     Eigenvalues --     0.00000  32.94608  32.94608
           X            1.00000  -0.00000   0.00000
           Y            0.00000   1.00000   0.00000
           Z            0.00000   0.00000   1.00000
 This molecule is a prolate symmetric top.
 Rotational symmetry number  1.
 Rotational temperature (Kelvin)      2.62896
 Rotational constant (GHZ):          54.778628
 Zero-point vibrational energy      30304.9 (Joules/Mol)
                                    7.24305 (Kcal/Mol)
 Warning -- explicit consideration of   1 degrees of freedom as
           vibrations may cause significant error
 Vibrational temperatures:    217.69   912.90   912.90  5246.20
          (Kelvin)

 Zero-point correction=                           0.011543 (Hartree/Particle)
 Thermal correction to Energy=                    0.014828
 Thermal correction to Enthalpy=                  0.015772
 Thermal correction to Gibbs Free Energy=        -0.008592
 Sum of electronic and zero-point Energies=           -100.960115
 Sum of electronic and thermal Energies=              -100.956830
 Sum of electronic and thermal Enthalpies=            -100.955886
 Sum of electronic and thermal Free Energies=         -100.980250

                     E (Thermal)             CV                S
                      KCal/Mol        Cal/Mol-Kelvin    Cal/Mol-Kelvin
 Total                    9.305              8.788             51.278
 Electronic               0.000              0.000              1.377
 Translational            0.889              2.981             35.068
 Rotational               0.592              1.987             11.389
 Vibrational              7.823              3.820              3.444
 Vibration     1          0.619              1.901              2.656

 Normal termination of Gaussian 16 at Fri Aug 22 15:58:11 2025.
