 Gaussian 16, Revision C.01,
 Gaussian 16:  ES64L-G16RevC.01  3-Jul-2019

 -----------------------------------------
 # sp b3lyp/6-311g** Force nosymm scf=(qc)
 -----------------------------------------

 -------------------
 Title Card Required
 -------------------
 Symbolic Z-matrix:
 Charge =  0 Multiplicity = 2

                          Input orientation:
 ---------------------------------------------------------------------
 Center     Atomic      Atomic             Coordinates (Angstroms)
 Number     Number       Type             X           Y           Z
 ---------------------------------------------------------------------
      1          1           0        0.000000    0.000000    0.000000
      2          1           0       -2.650000    0.000000    0.000000
      3          9           0        3.750000    0.000000    0.000000
 ---------------------------------------------------------------------

 SCF Done:  E(UB3LYP) =  -100.761320962     a.u. after   31 cycles

 Alpha  occ. eigenvalues --  -24.75742  -1.21679  -0.54866  -0.46067  -0.46067
 Alpha  occ. eigenvalues --   -0.32500
 Alpha virt. eigenvalues --   -0.08809   0.25577   0.35133   0.86946   0.91255
 Alpha virt. eigenvalues --    0.91255   1.01306   1.25100   1.25100   1.26539
 Alpha virt. eigenvalues --    1.42564   1.42564   1.43373   2.16045   2.37830

  Beta  occ. eigenvalues --  -24.72606  -1.12664  -0.42924  -0.42924  -0.32718
  Beta virt. eigenvalues --   -0.25673  -0.08495   0.25387   0.35583   0.92751
  Beta virt. eigenvalues --    0.92751   0.96244   1.05403   1.24852   1.24852
  Beta virt. eigenvalues --    1.26256   1.43036   1.43036   1.43843   2.16245

 Mulliken charges and spin densities:
               1          2
     1  H    0.004166  -0.974521
     2  H    0.000968   0.980297
     3  F   -0.005134   0.994223
 Sum of Mulliken charges =   0.00000   1.00000

 Dipole moment (field-independent basis, Debye):
    X=             -0.1113    Y=             -0.0000    Z=             -0.0000  Tot=              0.1113
 Quadrupole moment (field-independent basis, Debye-Ang):
   XX=             -6.9090   YY=             -7.6548   ZZ=             -7.6548
   XY=             -0.0000   XZ=             -0.0000   YZ=              0.0000

  Exact polarizability:      22.897      -0.000       2.022      -0.000       0.000       2.022
 Approx polarizability:      16.904      -0.000       1.931      -0.000      -0.000       1.931

 ******    2 imaginary frequencies (negative Signs) ******

                      1                      2                      3
                      A                      A                      A
 Frequencies --   -538.0088              -101.7629               195.6663
 Red. masses --      1.0080                 1.1083                 1.0143
 Frc consts  --      0.1719                 0.0068                 0.0229
 IR Inten    --      2.0703                 2.1249                 0.0135

                      4
                      A
 Frequencies --    195.6663
 Red. masses --      1.0143
 Frc consts  --      0.0229
 IR Inten    --      0.0135

 - Thermochemistry -
 -------------------
 Temperature   298.150 Kelvin.  Pressure   1.00000 Atm.
 Atom     1 has atomic number  1 and mass   1.00783

 Molecular mass:    21.01405 amu.
 Principal axes and moments of inertia in atomic units:
                           1         2         3
     Eigenvalues --     0.00000 180.24405 180.24405
           X            1.00000  -0.00000   0.00000
           Y            0.00000   1.00000   0.00000
           Z            0.00000   0.00000   1.00000
 This molecule is a prolate symmetric top.
 Rotational symmetry number  1.
 Rotational temperature (Kelvin)      0.48054
 Rotational constant (GHZ):          10.012764
    2 imaginary frequencies ignored.
 Zero-point vibrational energy       2340.7 (Joules/Mol)
                                    0.55944 (Kcal/Mol)
 Warning -- explicit consideration of   2 degrees of freedom as
           vibrations may cause significant error
 Vibrational temperatures:    281.52   281.52
          (Kelvin)

 Zero-point correction=                           0.000892 (Hartree/Particle)
 Thermal correction to Energy=                    0.004387
 Thermal correction to Enthalpy=                  0.005331
 Thermal correction to Gibbs Free Energy=        -0.021066
 Sum of electronic and zero-point Energies=           -100.760429
 Sum of electronic and thermal Energies=              -100.756934
 Sum of electronic and thermal Enthalpies=            -100.755990
 Sum of electronic and thermal Free Energies=         -100.782387

                     E (Thermal)             CV                S
                      KCal/Mol        Cal/Mol-Kelvin    Cal/Mol-Kelvin
 Total                    2.753              8.660             55.558
 Electronic               0.000              0.000              1.377
 Translational            0.889              2.981             35.068
 Rotational               0.592              1.987             14.766
 Vibrational              1.272              3.692              4.347
 Vibration     1          0.636              1.846              2.173
 Vibration     2          0.636              1.846              2.173

 Normal termination of Gaussian 16 at Sat Aug 23 00:26:22 2025.
