 Gaussian 16, Revision C.01,
 Gaussian 16:  ES64L-G16RevC.01  3-Jul-2019

 -----------------------------------------
 # sp b3lyp/6-311g** Force nosymm scf=(qc)
 -----------------------------------------

 -------------------
 Title Card Required
 -------------------
 Symbolic Z-matrix:
 Charge =  0 Multiplicity = 2

                          Input orientation:
 ---------------------------------------------------------------------
 Center     Atomic      Atomic             Coordinates (Angstroms)
 Number     Number       Type             X           Y           Z
 ---------------------------------------------------------------------
      1          1           0        0.000000    0.000000    0.000000
      2          1           0       -0.600000    0.000000    0.000000
      3          9           0        0.600000    0.000000    0.000000
 ---------------------------------------------------------------------

 SCF Done:  E(UB3LYP) =  -100.474596010     a.u. after    6 cycles

 Alpha  occ. eigenvalues --  -24.70069  -1.48039  -0.74205  -0.49939  -0.49939
 Alpha  occ. eigenvalues --   -0.25981
 Alpha virt. eigenvalues --    0.16679   0.19290   0.83253   0.83435   0.83435
 Alpha virt. eigenvalues --    0.94444   1.11465   1.11465   1.42116   1.56357
 Alpha virt. eigenvalues --    2.00911   2.00911   2.13452   3.49759   3.71094

  Beta  occ. eigenvalues --  -24.69209  -1.45141  -0.71096  -0.49220  -0.49220
  Beta virt. eigenvalues --   -0.07903   0.17301   0.25202   0.84787   0.84963
  Beta virt. eigenvalues --    0.84963   0.99619   1.16928   1.16928   1.44551
  Beta virt. eigenvalues --    1.60623   2.06495   2.06495   2.21203   3.56144

 Mulliken charges and spin densities:
               1          2
     1  H    0.270568  -0.099381
     2  H   -0.186605   1.017246
     3  F   -0.083964   0.082135
 Sum of Mulliken charges =   0.00000   1.00000

 Dipole moment (field-independent basis, Debye):
    X=             -0.1366    Y=             -0.0000    Z=             -0.0000  Tot=              0.1366
 Quadrupole moment (field-independent basis, Debye-Ang):
   XX=             -7.6232   YY=             -6.4675   ZZ=             -6.4675
   XY=             -0.0000   XZ=             -0.0000   YZ=              0.0000

  Exact polarizability:       8.032       0.000       2.422       0.000       0.000       2.422
 Approx polarizability:       7.757       0.000       2.533       0.000       0.000       2.533

 ******    2 imaginary frequencies (negative Signs) ******

                      1                      2                      3
                      A                      A                      A
 Frequencies --  -6644.7724             -6644.7724              5209.9038
 Red. masses --      1.0179                 1.0179                 1.0676
 Frc consts  --     26.4810                26.4810                17.0730
 IR Inten    --    165.2654               165.2654               495.2264

                      4
                      A
 Frequencies --  13770.7253
 Red. masses --      1.0442
 Frc consts  --    116.6694
 IR Inten    --     13.6470

 - Thermochemistry -
 -------------------
 Temperature   298.150 Kelvin.  Pressure   1.00000 Atm.
 Atom     1 has atomic number  1 and mass   1.00783

 Molecular mass:    21.01405 amu.
 Principal axes and moments of inertia in atomic units:
                           1         2         3
     Eigenvalues --     0.00000   5.91897   5.91897
           X            1.00000  -0.00000   0.00000
           Y            0.00000   1.00000   0.00000
           Z            0.00000   0.00000   1.00000
 This molecule is a prolate symmetric top.
 Rotational symmetry number  1.
 Rotational temperature (Kelvin)     14.63328
 Rotational constant (GHZ):         304.908036
    2 imaginary frequencies ignored.
 Zero-point vibrational energy     113529.4 (Joules/Mol)
                                   27.13417 (Kcal/Mol)
 Vibrational temperatures:   7495.89 19813.00
          (Kelvin)

 Zero-point correction=                           0.043241 (Hartree/Particle)
 Thermal correction to Energy=                    0.045602
 Thermal correction to Enthalpy=                  0.046546
 Thermal correction to Gibbs Free Energy=         0.025439
 Sum of electronic and zero-point Energies=           -100.431355
 Sum of electronic and thermal Energies=              -100.428994
 Sum of electronic and thermal Enthalpies=            -100.428050
 Sum of electronic and thermal Free Energies=         -100.449157

                     E (Thermal)             CV                S
                      KCal/Mol        Cal/Mol-Kelvin    Cal/Mol-Kelvin
 Total                   28.615              4.968             44.423
 Electronic               0.000              0.000              1.377
 Translational            0.889              2.981             35.068
 Rotational               0.592              1.987              7.977
 Vibrational             27.134              0.000              0.000

 Normal termination of Gaussian 16 at Fri Aug 22 15:40:43 2025.
