 Gaussian 16, Revision C.01,
 Gaussian 16:  ES64L-G16RevC.01  3-Jul-2019

 -----------------------------------------
 # sp b3lyp/6-311g** Force nosymm scf=(qc)
 -----------------------------------------

 -------------------
 Title Card Required
 -------------------
 Symbolic Z-matrix:
 Charge =  0 Multiplicity = 2

                          Input orientation:
 ---------------------------------------------------------------------
 Center     Atomic      Atomic             Coordinates (Angstroms)
 Number     Number       Type             X           Y           Z
 ---------------------------------------------------------------------
      1          1           0        0.000000    0.000000    0.000000
      2          1           0       -2.250000    0.000000    0.000000
      3          9           0        2.850000    0.000000    0.000000
 ---------------------------------------------------------------------

 SCF Done:  E(UB3LYP) =  -100.769787557     a.u. after   22 cycles

 Alpha  occ. eigenvalues --  -24.73609  -1.19697  -0.52724  -0.44270  -0.44270
 Alpha  occ. eigenvalues --   -0.33591
 Alpha virt. eigenvalues --   -0.11539   0.25366   0.32780   0.90080   0.92567
 Alpha virt. eigenvalues --    0.92567   1.04918   1.24206   1.24206   1.24554
 Alpha virt. eigenvalues --    1.37826   1.37826   1.42973   2.13626   2.35051

  Beta  occ. eigenvalues --  -24.70618  -1.11136  -0.41278  -0.41278  -0.34168
  Beta virt. eigenvalues --   -0.24537  -0.10362   0.25957   0.33700   0.94015
  Beta virt. eigenvalues --    0.94015   0.98614   1.08777   1.23497   1.23497
  Beta virt. eigenvalues --    1.24032   1.39749   1.39749   1.44584   2.14727

 Mulliken charges and spin densities:
               1          2
     1  H    0.034690  -0.885073
     2  H    0.012189   0.937842
     3  F   -0.046879   0.947231
 Sum of Mulliken charges =  -0.00000   1.00000

 Dipole moment (field-independent basis, Debye):
    X=             -0.8157    Y=              0.0000    Z=             -0.0000  Tot=              0.8157
 Quadrupole moment (field-independent basis, Debye-Ang):
   XX=             -7.9570   YY=             -7.6684   ZZ=             -7.6684
   XY=              0.0000   XZ=             -0.0000   YZ=              0.0000

  Exact polarizability:      52.591       0.000       2.008      -0.000       0.000       2.008
 Approx polarizability:      48.631       0.000       1.921      -0.000      -0.000       1.921

 ******    2 imaginary frequencies (negative Signs) ******

                      1                      2                      3
                      A                      A                      A
 Frequencies --   -985.9808              -280.6364               379.4691
 Red. masses --      1.0089                 1.1072                 1.0153
 Frc consts  --      0.5779                 0.0514                 0.0861
 IR Inten    --     29.5104                31.1212                 0.7932

                      4
                      A
 Frequencies --    379.4691
 Red. masses --      1.0153
 Frc consts  --      0.0861
 IR Inten    --      0.7932

 - Thermochemistry -
 -------------------
 Temperature   298.150 Kelvin.  Pressure   1.00000 Atm.
 Atom     1 has atomic number  1 and mass   1.00783

 Molecular mass:    21.01405 amu.
 Principal axes and moments of inertia in atomic units:
                           1         2         3
     Eigenvalues --     0.00000 111.93397 111.93397
           X            1.00000  -0.00000   0.00000
           Y            0.00000   1.00000   0.00000
           Z            0.00000   0.00000   1.00000
 This molecule is a prolate symmetric top.
 Rotational symmetry number  1.
 Rotational temperature (Kelvin)      0.77379
 Rotational constant (GHZ):          16.123266
    2 imaginary frequencies ignored.
 Zero-point vibrational energy       4539.5 (Joules/Mol)
                                    1.08496 (Kcal/Mol)
 Warning -- explicit consideration of   2 degrees of freedom as
           vibrations may cause significant error
 Vibrational temperatures:    545.97   545.97
          (Kelvin)

 Zero-point correction=                           0.001729 (Hartree/Particle)
 Thermal correction to Energy=                    0.004749
 Thermal correction to Enthalpy=                  0.005693
 Thermal correction to Gibbs Free Energy=        -0.019178
 Sum of electronic and zero-point Energies=           -100.768059
 Sum of electronic and thermal Energies=              -100.765038
 Sum of electronic and thermal Enthalpies=            -100.764094
 Sum of electronic and thermal Free Energies=         -100.788966

                     E (Thermal)             CV                S
                      KCal/Mol        Cal/Mol-Kelvin    Cal/Mol-Kelvin
 Total                    2.980              7.996             52.347
 Electronic               0.000              0.000              1.377
 Translational            0.889              2.981             35.068
 Rotational               0.592              1.987             13.819
 Vibrational              1.499              3.028              2.083
 Vibration     1          0.749              1.514              1.041
 Vibration     2          0.749              1.514              1.041

 Normal termination of Gaussian 16 at Fri Aug 22 18:53:36 2025.
