 Gaussian 16, Revision C.01,
 Gaussian 16:  ES64L-G16RevC.01  3-Jul-2019

 -----------------------------------------
 # sp b3lyp/6-311g** Force nosymm scf=(qc)
 -----------------------------------------

 -------------------
 Title Card Required
 -------------------
 Symbolic Z-matrix:
 Charge =  0 Multiplicity = 2

                          Input orientation:
 ---------------------------------------------------------------------
 Center     Atomic      Atomic             Coordinates (Angstroms)
 Number     Number       Type             X           Y           Z
 ---------------------------------------------------------------------
      1          1           0        0.000000    0.000000    0.000000
      2          1           0       -0.850000    0.000000    0.000000
      3          9           0        0.600000    0.000000    0.000000
 ---------------------------------------------------------------------

 SCF Done:  E(UB3LYP) =  -100.605127861     a.u. after    7 cycles

 Alpha  occ. eigenvalues --  -24.66205  -1.40631  -0.68046  -0.46339  -0.46339
 Alpha  occ. eigenvalues --   -0.31634
 Alpha virt. eigenvalues --    0.16738   0.19703   0.82494   0.86188   0.86188
 Alpha virt. eigenvalues --    0.92002   1.10004   1.10004   1.47503   1.67428
 Alpha virt. eigenvalues --    1.83183   1.83183   2.27776   2.55889   3.74595

  Beta  occ. eigenvalues --  -24.65678  -1.38885  -0.65555  -0.45913  -0.45913
  Beta virt. eigenvalues --   -0.11149   0.17396   0.26188   0.85398   0.87696
  Beta virt. eigenvalues --    0.87696   0.95500   1.16956   1.16956   1.48812
  Beta virt. eigenvalues --    1.73609   1.88973   1.88973   2.39222   2.65561

 Mulliken charges and spin densities:
               1          2
     1  H    0.260260  -0.026034
     2  H   -0.071916   0.969496
     3  F   -0.188344   0.056537
 Sum of Mulliken charges =   0.00000   1.00000

 Dipole moment (field-independent basis, Debye):
    X=             -0.7732    Y=             -0.0000    Z=              0.0000  Tot=              0.7732
 Quadrupole moment (field-independent basis, Debye-Ang):
   XX=             -7.3888   YY=             -6.4111   ZZ=             -6.4111
   XY=             -0.0000   XZ=              0.0000   YZ=              0.0000

  Exact polarizability:       7.178       0.000       2.490       0.000      -0.000       2.490
 Approx polarizability:       6.943      -0.000       2.569       0.000      -0.000       2.569

 ******    2 imaginary frequencies (negative Signs) ******

                      1                      2                      3
                      A                      A                      A
 Frequencies --  -5847.0263             -5847.0263              2951.8532
 Red. masses --      1.0227                 1.0227                 1.0563
 Frc consts  --     20.5994                20.5994                 5.4227
 IR Inten    --    147.7311               147.7311               176.7908

                      4
                      A
 Frequencies --  13123.5867
 Red. masses --      1.0553
 Frc consts  --    107.0834
 IR Inten    --     35.4486

 - Thermochemistry -
 -------------------
 Temperature   298.150 Kelvin.  Pressure   1.00000 Atm.
 Atom     1 has atomic number  1 and mass   1.00783

 Molecular mass:    21.01405 amu.
 Principal axes and moments of inertia in atomic units:
                           1         2         3
     Eigenvalues --     0.00000   8.13718   8.13718
           X            1.00000  -0.00000   0.00000
           Y            0.00000   1.00000   0.00000
           Z            0.00000   0.00000   1.00000
 This molecule is a prolate symmetric top.
 Rotational symmetry number  1.
 Rotational temperature (Kelvin)     10.64422
 Rotational constant (GHZ):         221.789570
    2 imaginary frequencies ignored.
 Zero-point vibrational energy      96152.5 (Joules/Mol)
                                   22.98100 (Kcal/Mol)
 Vibrational temperatures:   4247.06 18881.91
          (Kelvin)

 Zero-point correction=                           0.036623 (Hartree/Particle)
 Thermal correction to Energy=                    0.038983
 Thermal correction to Enthalpy=                  0.039927
 Thermal correction to Gibbs Free Energy=         0.018520
 Sum of electronic and zero-point Energies=           -100.568505
 Sum of electronic and thermal Energies=              -100.566145
 Sum of electronic and thermal Enthalpies=            -100.565201
 Sum of electronic and thermal Free Energies=         -100.586608

                     E (Thermal)             CV                S
                      KCal/Mol        Cal/Mol-Kelvin    Cal/Mol-Kelvin
 Total                   24.462              4.968             45.055
 Electronic               0.000              0.000              1.377
 Translational            0.889              2.981             35.068
 Rotational               0.592              1.987              8.610
 Vibrational             22.981              0.000              0.000

 Normal termination of Gaussian 16 at Fri Aug 22 15:40:54 2025.
