 Gaussian 16, Revision C.01,
 Gaussian 16:  ES64L-G16RevC.01  3-Jul-2019

 -----------------------------------------
 # sp b3lyp/6-311g** Force nosymm scf=(qc)
 -----------------------------------------

 -------------------
 Title Card Required
 -------------------
 Symbolic Z-matrix:
 Charge =  0 Multiplicity = 2

                          Input orientation:
 ---------------------------------------------------------------------
 Center     Atomic      Atomic             Coordinates (Angstroms)
 Number     Number       Type             X           Y           Z
 ---------------------------------------------------------------------
      1          1           0        0.000000    0.000000    0.000000
      2          1           0       -2.750000    0.000000    0.000000
      3          9           0        0.950000    0.000000    0.000000
 ---------------------------------------------------------------------

 SCF Done:  E(UB3LYP) =  -100.971236258     a.u. after    6 cycles

 Alpha  occ. eigenvalues --  -24.64043  -1.17388  -0.52710  -0.39157  -0.39157
 Alpha  occ. eigenvalues --   -0.34496
 Alpha virt. eigenvalues --    0.02588   0.25203   0.36579   0.94275   0.94275
 Alpha virt. eigenvalues --    0.98146   1.21436   1.23045   1.23045   1.34597
 Alpha virt. eigenvalues --    1.36537   1.36537   1.96507   2.14354   2.35211

  Beta  occ. eigenvalues --  -24.64033  -1.17362  -0.52672  -0.39148  -0.39148
  Beta virt. eigenvalues --   -0.08385   0.04040   0.36328   0.38343   0.94276
  Beta virt. eigenvalues --    0.94276   0.98159   1.30121   1.36525   1.36525
  Beta virt. eigenvalues --    1.46582   1.46582   1.50100   1.96701   2.34994

 Mulliken charges and spin densities:
               1          2
     1  H    0.305163   0.002159
     2  H    0.004079   0.994449
     3  F   -0.309242   0.003392
 Sum of Mulliken charges =   0.00000   1.00000

 Dipole moment (field-independent basis, Debye):
    X=             -2.0114    Y=              0.0000    Z=              0.0000  Tot=              2.0114
 Quadrupole moment (field-independent basis, Debye-Ang):
   XX=             -7.9109   YY=             -6.9134   ZZ=             -6.9134
   XY=              0.0000   XZ=              0.0000   YZ=              0.0000

  Exact polarizability:       7.437       0.000       2.431      -0.000      -0.000       2.431
 Approx polarizability:       8.439      -0.000       2.409       0.000      -0.000       2.409

 ******    1 imaginary frequencies (negative Signs) ******

                      1                      2                      3
                      A                      A                      A
 Frequencies --    -73.3471               665.9260               665.9260
 Red. masses --      1.0531                 1.0340                 1.0340
 Frc consts  --      0.0033                 0.2702                 0.2702
 IR Inten    --      0.4243               166.1474               166.1474

                      4
                      A
 Frequencies --   3674.7784
 Red. masses --      1.0584
 Frc consts  --      8.4213
 IR Inten    --    113.4124

 - Thermochemistry -
 -------------------
 Temperature   298.150 Kelvin.  Pressure   1.00000 Atm.
 Atom     1 has atomic number  1 and mass   1.00783

 Molecular mass:    21.01405 amu.
 Principal axes and moments of inertia in atomic units:
                           1         2         3
     Eigenvalues --     0.00000  48.78634  48.78634
           X            1.00000  -0.00000   0.00000
           Y            0.00000   1.00000   0.00000
           Z            0.00000   0.00000   1.00000
 This molecule is a prolate symmetric top.
 Rotational symmetry number  1.
 Rotational temperature (Kelvin)      1.77537
 Rotational constant (GHZ):          36.992757
    1 imaginary frequencies ignored.
 Zero-point vibrational energy      29946.3 (Joules/Mol)
                                    7.15734 (Kcal/Mol)
 Vibrational temperatures:    958.12   958.12  5287.19
          (Kelvin)

 Zero-point correction=                           0.011406 (Hartree/Particle)
 Thermal correction to Energy=                    0.014021
 Thermal correction to Enthalpy=                  0.014965
 Thermal correction to Gibbs Free Energy=        -0.008465
 Sum of electronic and zero-point Energies=           -100.959830
 Sum of electronic and thermal Energies=              -100.957216
 Sum of electronic and thermal Enthalpies=            -100.956271
 Sum of electronic and thermal Free Energies=         -100.979701

                     E (Thermal)             CV                S
                      KCal/Mol        Cal/Mol-Kelvin    Cal/Mol-Kelvin
 Total                    8.798              6.760             49.313
 Electronic               0.000              0.000              1.377
 Translational            0.889              2.981             35.068
 Rotational               0.592              1.987             12.169
 Vibrational              7.317              1.792              0.698

 Normal termination of Gaussian 16 at Fri Aug 22 15:58:39 2025.
