 Gaussian 16, Revision C.01,
 Gaussian 16:  ES64L-G16RevC.01  3-Jul-2019

 -----------------------------------------
 # sp b3lyp/6-311g** Force nosymm scf=(qc)
 -----------------------------------------

 -------------------
 Title Card Required
 -------------------
 Symbolic Z-matrix:
 Charge =  0 Multiplicity = 2

                          Input orientation:
 ---------------------------------------------------------------------
 Center     Atomic      Atomic             Coordinates (Angstroms)
 Number     Number       Type             X           Y           Z
 ---------------------------------------------------------------------
      1          1           0        0.000000    0.000000    0.000000
      2          1           0       -0.650000    0.000000    0.000000
      3          9           0        2.650000    0.000000    0.000000
 ---------------------------------------------------------------------

 SCF Done:  E(UB3LYP) =  -100.927281191     a.u. after   63 cycles

 Alpha  occ. eigenvalues --  -24.76788  -1.22566  -0.55749  -0.47321  -0.46896
 Alpha  occ. eigenvalues --   -0.44763
 Alpha virt. eigenvalues --    0.08512   0.19755   0.51352   0.85736   0.90603
 Alpha virt. eigenvalues --    0.93669   1.09764   1.09780   1.10982   1.59761
 Alpha virt. eigenvalues --    1.85894   1.89567   1.89584   2.39248   3.64515

  Beta  occ. eigenvalues --  -24.73624  -1.13474  -0.45552  -0.43723  -0.43355
  Beta virt. eigenvalues --   -0.26361   0.08596   0.19811   0.51465   0.92099
  Beta virt. eigenvalues --    0.95182   0.95602   1.09769   1.09779   1.14507
  Beta virt. eigenvalues --    1.59768   1.85912   1.89566   1.89582   2.39259

 Mulliken charges and spin densities:
               1          2
     1  H   -0.009217  -0.002099
     2  H   -0.004782   0.000020
     3  F    0.013999   1.002079
 Sum of Mulliken charges =   0.00000   1.00000

 Dipole moment (field-independent basis, Debye):
    X=              0.1289    Y=              0.0000    Z=              0.0000  Tot=              0.1289
 Quadrupole moment (field-independent basis, Debye-Ang):
   XX=             -6.0003   YY=             -6.6707   ZZ=             -6.1095
   XY=              0.0000   XZ=             -0.0000   YZ=             -0.3279

  Exact polarizability:       7.564      -0.000       2.001      -0.000      -0.171       2.293
 Approx polarizability:       8.238       0.000       2.104      -0.000      -0.215       2.473

 ******    2 imaginary frequencies (negative Signs) ******

                      1                      2                      3
                      A                      A                      A
 Frequencies --  -1943.6984             -1939.6890               152.2958
 Red. masses --      1.0090                 1.0090                 1.1085
 Frc consts  --      2.2460                 2.2367                 0.0151
 IR Inten    --      0.0460                 0.0480                 0.3542

                      4
                      A
 Frequencies --   5976.3690
 Red. masses --      1.0078
 Frc consts  --     21.2085
 IR Inten    --      1.4955

 - Thermochemistry -
 -------------------
 Temperature   298.150 Kelvin.  Pressure   1.00000 Atm.
 Atom     1 has atomic number  1 and mass   1.00783

 Molecular mass:    21.01405 amu.
 Principal axes and moments of inertia in atomic units:
                           1         2         3
     Eigenvalues --     0.00000  58.35652  58.35652
           X            1.00000  -0.00000   0.00000
           Y            0.00000   1.00000   0.00000
           Z            0.00000   0.00000   1.00000
 This molecule is a prolate symmetric top.
 Rotational symmetry number  1.
 Rotational temperature (Kelvin)      1.48422
 Rotational constant (GHZ):          30.926126
    2 imaginary frequencies ignored.
 Zero-point vibrational energy      36657.6 (Joules/Mol)
                                    8.76137 (Kcal/Mol)
 Warning -- explicit consideration of   1 degrees of freedom as
           vibrations may cause significant error
 Vibrational temperatures:    219.12  8598.66
          (Kelvin)

 Zero-point correction=                           0.013962 (Hartree/Particle)
 Thermal correction to Energy=                    0.016962
 Thermal correction to Enthalpy=                  0.017906
 Thermal correction to Gibbs Free Energy=        -0.006617
 Sum of electronic and zero-point Energies=           -100.913319
 Sum of electronic and thermal Energies=              -100.910319
 Sum of electronic and thermal Enthalpies=            -100.909375
 Sum of electronic and thermal Free Energies=         -100.933898

                     E (Thermal)             CV                S
                      KCal/Mol        Cal/Mol-Kelvin    Cal/Mol-Kelvin
 Total                   10.644              6.868             51.614
 Electronic               0.000              0.000              1.377
 Translational            0.889              2.981             35.068
 Rotational               0.592              1.987             12.525
 Vibrational              9.163              1.900              2.643
 Vibration     1          0.619              1.900              2.643

 Normal termination of Gaussian 16 at Fri Aug 22 18:07:24 2025.
