 Gaussian 16, Revision C.01,
 Gaussian 16:  ES64L-G16RevC.01  3-Jul-2019

 -----------------------------------------
 # sp b3lyp/6-311g** Force nosymm scf=(qc)
 -----------------------------------------

 -------------------
 Title Card Required
 -------------------
 Symbolic Z-matrix:
 Charge =  0 Multiplicity = 2

                          Input orientation:
 ---------------------------------------------------------------------
 Center     Atomic      Atomic             Coordinates (Angstroms)
 Number     Number       Type             X           Y           Z
 ---------------------------------------------------------------------
      1          1           0        0.000000    0.000000    0.000000
      2          1           0       -1.750000    0.000000    0.000000
      3          9           0        3.550000    0.000000    0.000000
 ---------------------------------------------------------------------

 SCF Done:  E(UB3LYP) =  -100.790272697     a.u. after  136 cycles

 Alpha  occ. eigenvalues --  -24.76285  -1.22170  -0.55372  -0.46554  -0.46528
 Alpha  occ. eigenvalues --   -0.32960
 Alpha virt. eigenvalues --   -0.10593   0.25877   0.31210   0.86008   0.90885
 Alpha virt. eigenvalues --    0.91865   1.01200   1.08775   1.24378   1.24380
 Alpha virt. eigenvalues --    1.37997   1.38002   1.64612   2.15972   2.40802

  Beta  occ. eigenvalues --  -24.73131  -1.13098  -0.43401  -0.43365  -0.32940
  Beta virt. eigenvalues --   -0.26019  -0.10644   0.25856   0.31303   0.92388
  Beta virt. eigenvalues --    0.93309   0.95477   1.05289   1.08755   1.24374
  Beta virt. eigenvalues --    1.24378   1.37980   1.37981   1.64648   2.16304

 Mulliken charges and spin densities:
               1          2
     1  H    0.000391  -0.670857
     2  H   -0.002446   0.670890
     3  F    0.002055   0.999967
 Sum of Mulliken charges =   0.00000   1.00000

 Dipole moment (field-independent basis, Debye):
    X=              0.0420    Y=              0.0000    Z=              0.0000  Tot=              0.0420
 Quadrupole moment (field-independent basis, Debye-Ang):
   XX=             -6.6372   YY=             -6.9019   ZZ=             -7.7663
   XY=              0.0033   XZ=              0.0000   YZ=              0.0000

  Exact polarizability:      23.902       0.003       2.479       0.000       0.000       2.015
 Approx polarizability:      35.882       0.002       2.553       0.000       0.000       1.970

 ******    2 imaginary frequencies (negative Signs) ******

                      1                      2                      3
                      A                      A                      A
 Frequencies --  -1818.2008               -33.6490               838.0806
 Red. masses --      1.0078                 1.1085                 1.0116
 Frc consts  --      1.9630                 0.0007                 0.4186
 IR Inten    --      0.0170                 0.1245                 0.0019

                      4
                      A
 Frequencies --    838.6049
 Red. masses --      1.0116
 Frc consts  --      0.4192
 IR Inten    --      0.0012

 - Thermochemistry -
 -------------------
 Temperature   298.150 Kelvin.  Pressure   1.00000 Atm.
 Atom     1 has atomic number  1 and mass   1.00783

 Molecular mass:    21.01405 amu.
 Principal axes and moments of inertia in atomic units:
                           1         2         3
     Eigenvalues --     0.00000 132.93365 132.93365
           X            1.00000  -0.00000   0.00000
           Y            0.00000   1.00000   0.00000
           Z            0.00000   0.00000   1.00000
 This molecule is a prolate symmetric top.
 Rotational symmetry number  1.
 Rotational temperature (Kelvin)      0.65156
 Rotational constant (GHZ):          13.576256
    2 imaginary frequencies ignored.
 Zero-point vibrational energy      10028.8 (Joules/Mol)
                                    2.39694 (Kcal/Mol)
 Vibrational temperatures:   1205.81  1206.57
          (Kelvin)

 Zero-point correction=                           0.003820 (Hartree/Particle)
 Thermal correction to Energy=                    0.006316
 Thermal correction to Enthalpy=                  0.007260
 Thermal correction to Gibbs Free Energy=        -0.016954
 Sum of electronic and zero-point Energies=           -100.786453
 Sum of electronic and thermal Energies=              -100.783956
 Sum of electronic and thermal Enthalpies=            -100.783012
 Sum of electronic and thermal Free Energies=         -100.807226

                     E (Thermal)             CV                S
                      KCal/Mol        Cal/Mol-Kelvin    Cal/Mol-Kelvin
 Total                    3.964              6.147             50.963
 Electronic               0.000              0.000              1.377
 Translational            0.889              2.981             35.068
 Rotational               0.592              1.987             14.161
 Vibrational              2.482              1.179              0.357

 Normal termination of Gaussian 16 at Fri Aug 22 22:38:20 2025.
