 Gaussian 16, Revision C.01,
 Gaussian 16:  ES64L-G16RevC.01  3-Jul-2019

 -----------------------------------------
 # sp b3lyp/6-311g** Force nosymm scf=(qc)
 -----------------------------------------

 -------------------
 Title Card Required
 -------------------
 Symbolic Z-matrix:
 Charge =  0 Multiplicity = 2

                          Input orientation:
 ---------------------------------------------------------------------
 Center     Atomic      Atomic             Coordinates (Angstroms)
 Number     Number       Type             X           Y           Z
 ---------------------------------------------------------------------
      1          1           0        0.000000    0.000000    0.000000
      2          1           0       -2.750000    0.000000    0.000000
      3          9           0        1.250000    0.000000    0.000000
 ---------------------------------------------------------------------

 SCF Done:  E(UB3LYP) =  -100.913870177     a.u. after    6 cycles

 Alpha  occ. eigenvalues --  -24.64239  -1.11555  -0.46835  -0.37180  -0.37180
 Alpha  occ. eigenvalues --   -0.34871
 Alpha virt. eigenvalues --   -0.06903   0.23647   0.28007   0.93162   0.93162
 Alpha virt. eigenvalues --    1.01508   1.21828   1.22661   1.22661   1.27289
 Alpha virt. eigenvalues --    1.34387   1.34387   1.72146   2.13852   2.27363

  Beta  occ. eigenvalues --  -24.64208  -1.11477  -0.46721  -0.37152  -0.37152
  Beta virt. eigenvalues --   -0.10915  -0.04230   0.27070   0.37005   0.93159
  Beta virt. eigenvalues --    0.93159   1.01580   1.25286   1.34313   1.34313
  Beta virt. eigenvalues --    1.44571   1.44571   1.44835   1.72445   2.27239

 Mulliken charges and spin densities:
               1          2
     1  H    0.351959  -0.001322
     2  H    0.006982   0.991691
     3  F   -0.358941   0.009631
 Sum of Mulliken charges =  -0.00000   1.00000

 Dipole moment (field-independent basis, Debye):
    X=             -2.4335    Y=              0.0000    Z=             -0.0000  Tot=              2.4335
 Quadrupole moment (field-independent basis, Debye-Ang):
   XX=             -8.7979   YY=             -7.1638   ZZ=             -7.1638
   XY=              0.0000   XZ=             -0.0000   YZ=             -0.0000

  Exact polarizability:      12.696      -0.000       2.315       0.000       0.000       2.315
 Approx polarizability:      17.393       0.000       2.267       0.000       0.000       2.267

 ******    1 imaginary frequencies (negative Signs) ******

                      1                      2                      3
                      A                      A                      A
 Frequencies --   -178.8382               372.2973              1170.9720
 Red. masses --      1.0292                 1.0838                 1.0296
 Frc consts  --      0.0194                 0.0885                 0.8318
 IR Inten    --     13.7816                84.4092               131.3979

                      4
                      A
 Frequencies --   1170.9720
 Red. masses --      1.0296
 Frc consts  --      0.8318
 IR Inten    --    131.3979

 - Thermochemistry -
 -------------------
 Temperature   298.150 Kelvin.  Pressure   1.00000 Atm.
 Atom     1 has atomic number  1 and mass   1.00783

 Molecular mass:    21.01405 amu.
 Principal axes and moments of inertia in atomic units:
                           1         2         3
     Eigenvalues --     0.00000  58.45011  58.45011
           X            1.00000  -0.00000   0.00000
           Y            0.00000   1.00000   0.00000
           Z            0.00000   0.00000   1.00000
 This molecule is a prolate symmetric top.
 Rotational symmetry number  1.
 Rotational temperature (Kelvin)      1.48184
 Rotational constant (GHZ):          30.876610
    1 imaginary frequencies ignored.
 Zero-point vibrational energy      16234.8 (Joules/Mol)
                                    3.88020 (Kcal/Mol)
 Warning -- explicit consideration of   1 degrees of freedom as
           vibrations may cause significant error
 Vibrational temperatures:    535.65  1684.77  1684.77
          (Kelvin)

 Zero-point correction=                           0.006183 (Hartree/Particle)
 Thermal correction to Energy=                    0.008919
 Thermal correction to Enthalpy=                  0.009863
 Thermal correction to Gibbs Free Energy=        -0.013959
 Sum of electronic and zero-point Energies=           -100.907687
 Sum of electronic and thermal Energies=              -100.904951
 Sum of electronic and thermal Enthalpies=            -100.904007
 Sum of electronic and thermal Free Energies=         -100.927829

                     E (Thermal)             CV                S
                      KCal/Mol        Cal/Mol-Kelvin    Cal/Mol-Kelvin
 Total                    5.597              6.946             50.137
 Electronic               0.000              0.000              1.377
 Translational            0.889              2.981             35.068
 Rotational               0.592              1.987             12.528
 Vibrational              4.115              1.978              1.164
 Vibration     1          0.744              1.529              1.070

 Normal termination of Gaussian 16 at Fri Aug 22 16:13:06 2025.
