 Gaussian 16, Revision C.01,
 Gaussian 16:  ES64L-G16RevC.01  3-Jul-2019

 -----------------------------------------
 # sp b3lyp/6-311g** Force nosymm scf=(qc)
 -----------------------------------------

 -------------------
 Title Card Required
 -------------------
 Symbolic Z-matrix:
 Charge =  0 Multiplicity = 2

                          Input orientation:
 ---------------------------------------------------------------------
 Center     Atomic      Atomic             Coordinates (Angstroms)
 Number     Number       Type             X           Y           Z
 ---------------------------------------------------------------------
      1          1           0        0.000000    0.000000    0.000000
      2          1           0       -1.000000    0.000000    0.000000
      3          9           0        3.100000    0.000000    0.000000
 ---------------------------------------------------------------------

 SCF Done:  E(UB3LYP) =  -100.906697532     a.u. after    7 cycles

 Alpha  occ. eigenvalues --  -24.76172  -1.22071  -0.55299  -0.46438  -0.46438
 Alpha  occ. eigenvalues --   -0.39239
 Alpha virt. eigenvalues --    0.00081   0.21191   0.38366   0.89264   0.90949
 Alpha virt. eigenvalues --    0.90949   1.03764   1.08857   1.08857   1.37306
 Alpha virt. eigenvalues --    1.65502   1.65502   2.22826   2.36345   2.58689

  Beta  occ. eigenvalues --  -24.73030  -1.13033  -0.43287  -0.43287  -0.39216
  Beta virt. eigenvalues --   -0.26137   0.00214   0.21298   0.38704   0.92441
  Beta virt. eigenvalues --    0.92441   0.98122   1.07997   1.08892   1.08892
  Beta virt. eigenvalues --    1.37358   1.65531   1.65531   2.22920   2.36399

 Mulliken charges and spin densities:
               1          2
     1  H   -0.008619  -0.003550
     2  H    0.008552   0.007660
     3  F    0.000068   0.995890
 Sum of Mulliken charges =   0.00000   1.00000

 Dipole moment (field-independent basis, Debye):
    X=             -0.0475    Y=              0.0000    Z=             -0.0000  Tot=              0.0475
 Quadrupole moment (field-independent basis, Debye-Ang):
   XX=             -5.5214   YY=             -7.2711   ZZ=             -7.2711
   XY=              0.0000   XZ=             -0.0000   YZ=             -0.0000

  Exact polarizability:      14.998       0.000       2.059      -0.000      -0.000       2.059
 Approx polarizability:      18.509       0.000       2.111      -0.000      -0.000       2.111

 ******    1 imaginary frequencies (negative Signs) ******

                      1                      2                      3
                      A                      A                      A
 Frequencies --    -66.0859              1534.7390              1534.7390
 Red. masses --      1.1085                 1.0097                 1.0097
 Frc consts  --      0.0029                 1.4013                 1.4013
 IR Inten    --      0.4369                 0.0769                 0.0769

                      4
                      A
 Frequencies --   1784.2513
 Red. masses --      1.0078
 Frc consts  --      1.8904
 IR Inten    --      5.4621

 - Thermochemistry -
 -------------------
 Temperature   298.150 Kelvin.  Pressure   1.00000 Atm.
 Atom     1 has atomic number  1 and mass   1.00783

 Molecular mass:    21.01405 amu.
 Principal axes and moments of inertia in atomic units:
                           1         2         3
     Eigenvalues --     0.00000  86.13786  86.13786
           X            1.00000  -0.00000   0.00000
           Y            0.00000   1.00000   0.00000
           Z            0.00000   0.00000   1.00000
 This molecule is a prolate symmetric top.
 Rotational symmetry number  1.
 Rotational temperature (Kelvin)      1.00553
 Rotational constant (GHZ):          20.951776
    1 imaginary frequencies ignored.
 Zero-point vibrational energy      29031.7 (Joules/Mol)
                                    6.93875 (Kcal/Mol)
 Vibrational temperatures:   2208.15  2208.15  2567.14
          (Kelvin)

 Zero-point correction=                           0.011058 (Hartree/Particle)
 Thermal correction to Energy=                    0.013428
 Thermal correction to Enthalpy=                  0.014372
 Thermal correction to Gibbs Free Energy=        -0.009274
 Sum of electronic and zero-point Energies=           -100.895640
 Sum of electronic and thermal Energies=              -100.893269
 Sum of electronic and thermal Enthalpies=            -100.892325
 Sum of electronic and thermal Free Energies=         -100.915972

                     E (Thermal)             CV                S
                      KCal/Mol        Cal/Mol-Kelvin    Cal/Mol-Kelvin
 Total                    8.426              5.127             49.768
 Electronic               0.000              0.000              1.377
 Translational            0.889              2.981             35.068
 Rotational               0.592              1.987             13.299
 Vibrational              6.945              0.159              0.024

 Normal termination of Gaussian 16 at Fri Aug 22 19:47:57 2025.
