 Gaussian 16, Revision C.01,
 Gaussian 16:  ES64L-G16RevC.01  3-Jul-2019

 -----------------------------------------
 # sp b3lyp/6-311g** Force nosymm scf=(qc)
 -----------------------------------------

 -------------------
 Title Card Required
 -------------------
 Symbolic Z-matrix:
 Charge =  0 Multiplicity = 2

                          Input orientation:
 ---------------------------------------------------------------------
 Center     Atomic      Atomic             Coordinates (Angstroms)
 Number     Number       Type             X           Y           Z
 ---------------------------------------------------------------------
      1          1           0        0.000000    0.000000    0.000000
      2          1           0       -3.400000    0.000000    0.000000
      3          9           0        3.800000    0.000000    0.000000
 ---------------------------------------------------------------------

 SCF Done:  E(UB3LYP) =  -100.758859185     a.u. after   33 cycles

 Alpha  occ. eigenvalues --  -24.75755  -1.21691  -0.54879  -0.46077  -0.46077
 Alpha  occ. eigenvalues --   -0.32293
 Alpha virt. eigenvalues --   -0.06912   0.24464   0.37348   0.86857   0.91250
 Alpha virt. eigenvalues --    0.91250   1.01264   1.25215   1.25215   1.25428
 Alpha virt. eigenvalues --    1.45234   1.45472   1.45472   2.15221   2.40900

  Beta  occ. eigenvalues --  -24.72617  -1.12670  -0.42932  -0.42932  -0.32561
  Beta virt. eigenvalues --   -0.25670  -0.06619   0.24279   0.37806   0.92746
  Beta virt. eigenvalues --    0.92746   0.96162   1.05360   1.24918   1.24918
  Beta virt. eigenvalues --    1.25113   1.45697   1.45929   1.45929   2.15272

 Mulliken charges and spin densities:
               1          2
     1  H    0.004579  -0.992037
     2  H    0.000128   0.997254
     3  F   -0.004707   0.994782
 Sum of Mulliken charges =   0.00000   1.00000

 Dipole moment (field-independent basis, Debye):
    X=             -0.0944    Y=             -0.0000    Z=             -0.0000  Tot=              0.0944
 Quadrupole moment (field-independent basis, Debye-Ang):
   XX=             -7.0333   YY=             -7.6252   ZZ=             -7.6252
   XY=             -0.0000   XZ=             -0.0000   YZ=              0.0000

  Exact polarizability:      15.761       0.000       1.956       0.000       0.000       1.956
 Approx polarizability:      11.659      -0.000       1.935      -0.000      -0.000       1.935

 ******    2 imaginary frequencies (negative Signs) ******

                      1                      2                      3
                      A                      A                      A
 Frequencies --   -224.1135               -86.9881                82.8601
 Red. masses --      1.0125                 1.1029                 1.0167
 Frc consts  --      0.0300                 0.0049                 0.0041
 IR Inten    --      2.3399                 1.0314                 0.0403

                      4
                      A
 Frequencies --     82.8639
 Red. masses --      1.0167
 Frc consts  --      0.0041
 IR Inten    --      0.0403

 - Thermochemistry -
 -------------------
 Temperature   298.150 Kelvin.  Pressure   1.00000 Atm.
 Atom     1 has atomic number  1 and mass   1.00783

 Molecular mass:    21.01405 amu.
 Principal axes and moments of inertia in atomic units:
                           1         2         3
     Eigenvalues --     0.00000 217.65685 217.65685
           X            1.00000  -0.00000   0.00000
           Y            0.00000   1.00000   0.00000
           Z            0.00000   0.00000   1.00000
 This molecule is a prolate symmetric top.
 Rotational symmetry number  1.
 Rotational temperature (Kelvin)      0.39794
 Rotational constant (GHZ):           8.291681
    2 imaginary frequencies ignored.
 Zero-point vibrational energy        991.2 (Joules/Mol)
                                    0.23691 (Kcal/Mol)
 Warning -- explicit consideration of   2 degrees of freedom as
           vibrations may cause significant error
 Vibrational temperatures:    119.22   119.22
          (Kelvin)

 Zero-point correction=                           0.000378 (Hartree/Particle)
 Thermal correction to Energy=                    0.004274
 Thermal correction to Enthalpy=                  0.005218
 Thermal correction to Gibbs Free Energy=        -0.022924
 Sum of electronic and zero-point Energies=           -100.758482
 Sum of electronic and thermal Energies=              -100.754585
 Sum of electronic and thermal Enthalpies=            -100.753641
 Sum of electronic and thermal Free Energies=         -100.781783

                     E (Thermal)             CV                S
                      KCal/Mol        Cal/Mol-Kelvin    Cal/Mol-Kelvin
 Total                    2.682              8.890             59.230
 Electronic               0.000              0.000              1.377
 Translational            0.889              2.981             35.068
 Rotational               0.592              1.987             15.141
 Vibrational              1.201              3.922              7.644
 Vibration     1          0.600              1.961              3.822
 Vibration     2          0.600              1.961              3.822

 Normal termination of Gaussian 16 at Sat Aug 23 00:52:07 2025.
