 Gaussian 16, Revision C.01,
 Gaussian 16:  ES64L-G16RevC.01  3-Jul-2019

 -----------------------------------------
 # sp b3lyp/6-311g** Force nosymm scf=(qc)
 -----------------------------------------

 -------------------
 Title Card Required
 -------------------
 Symbolic Z-matrix:
 Charge =  0 Multiplicity = 2

                          Input orientation:
 ---------------------------------------------------------------------
 Center     Atomic      Atomic             Coordinates (Angstroms)
 Number     Number       Type             X           Y           Z
 ---------------------------------------------------------------------
      1          1           0        0.000000    0.000000    0.000000
      2          1           0       -1.400000    0.000000    0.000000
      3          9           0        2.150000    0.000000    0.000000
 ---------------------------------------------------------------------

 SCF Done:  E(UB3LYP) =  -100.843881006     a.u. after   12 cycles

 Alpha  occ. eigenvalues --  -24.71801  -1.18052  -0.51196  -0.42809  -0.42809
 Alpha  occ. eigenvalues --   -0.37600
 Alpha virt. eigenvalues --   -0.09114   0.22633   0.32001   0.86538   0.93069
 Alpha virt. eigenvalues --    0.93069   1.03846   1.14859   1.14859   1.25892
 Alpha virt. eigenvalues --    1.42543   1.42543   1.88728   2.22771   2.48489

  Beta  occ. eigenvalues --  -24.69013  -1.10146  -0.40037  -0.40037  -0.37034
  Beta virt. eigenvalues --   -0.24459  -0.07722   0.23947   0.32183   0.92041
  Beta virt. eigenvalues --    0.94326   0.94326   1.07325   1.16094   1.16094
  Beta virt. eigenvalues --    1.29637   1.43348   1.43348   1.90005   2.23938

 Mulliken charges and spin densities:
               1          2
     1  H    0.045228  -0.238104
     2  H    0.052800   0.360683
     3  F   -0.098028   0.877420
 Sum of Mulliken charges =   0.00000   1.00000

 Dipole moment (field-independent basis, Debye):
    X=             -1.4019    Y=              0.0000    Z=              0.0000  Tot=              1.4019
 Quadrupole moment (field-independent basis, Debye-Ang):
   XX=             -7.1643   YY=             -7.5440   ZZ=             -7.5440
   XY=              0.0000   XZ=              0.0000   YZ=             -0.0000

  Exact polarizability:      51.954       0.000       2.110       0.000      -0.000       2.110
 Approx polarizability:      78.098      -0.000       2.085      -0.000       0.000       2.085

 ******    2 imaginary frequencies (negative Signs) ******

                      1                      2                      3
                      A                      A                      A
 Frequencies --  -1957.2074              -364.9196              1217.1253
 Red. masses --      1.0108                 1.1049                 1.0136
 Frc consts  --      2.2814                 0.0867                 0.8847
 IR Inten    --   1002.6868                15.6103                 0.2121

                      4
                      A
 Frequencies --   1217.1253
 Red. masses --      1.0136
 Frc consts  --      0.8847
 IR Inten    --      0.2121

 - Thermochemistry -
 -------------------
 Temperature   298.150 Kelvin.  Pressure   1.00000 Atm.
 Atom     1 has atomic number  1 and mass   1.00783

 Molecular mass:    21.01405 amu.
 Principal axes and moments of inertia in atomic units:
                           1         2         3
     Eigenvalues --     0.00000  56.38492  56.38492
           X            1.00000  -0.00000   0.00000
           Y            0.00000   1.00000   0.00000
           Z            0.00000   0.00000   1.00000
 This molecule is a prolate symmetric top.
 Rotational symmetry number  1.
 Rotational temperature (Kelvin)      1.53612
 Rotational constant (GHZ):          32.007514
    2 imaginary frequencies ignored.
 Zero-point vibrational energy      14560.1 (Joules/Mol)
                                    3.47994 (Kcal/Mol)
 Vibrational temperatures:   1751.17  1751.17
          (Kelvin)

 Zero-point correction=                           0.005546 (Hartree/Particle)
 Thermal correction to Energy=                    0.007937
 Thermal correction to Enthalpy=                  0.008882
 Thermal correction to Gibbs Free Energy=        -0.014390
 Sum of electronic and zero-point Energies=           -100.838335
 Sum of electronic and thermal Energies=              -100.835944
 Sum of electronic and thermal Enthalpies=            -100.834999
 Sum of electronic and thermal Free Energies=         -100.858271

                     E (Thermal)             CV                S
                      KCal/Mol        Cal/Mol-Kelvin    Cal/Mol-Kelvin
 Total                    4.981              5.356             48.979
 Electronic               0.000              0.000              1.377
 Translational            0.889              2.981             35.068
 Rotational               0.592              1.987             12.456
 Vibrational              3.500              0.388              0.077

 Normal termination of Gaussian 16 at Fri Aug 22 17:07:07 2025.
