 Gaussian 16, Revision C.01,
 Gaussian 16:  ES64L-G16RevC.01  3-Jul-2019

 -----------------------------------------
 # sp b3lyp/6-311g** Force nosymm scf=(qc)
 -----------------------------------------

 -------------------
 Title Card Required
 -------------------
 Symbolic Z-matrix:
 Charge =  0 Multiplicity = 2

                          Input orientation:
 ---------------------------------------------------------------------
 Center     Atomic      Atomic             Coordinates (Angstroms)
 Number     Number       Type             X           Y           Z
 ---------------------------------------------------------------------
      1          1           0        0.000000    0.000000    0.000000
      2          1           0       -3.750000    0.000000    0.000000
      3          9           0        2.700000    0.000000    0.000000
 ---------------------------------------------------------------------

 SCF Done:  E(UB3LYP) =  -100.763876304     a.u. after   19 cycles

 Alpha  occ. eigenvalues --  -24.72807  -1.18957  -0.51921  -0.43605  -0.43605
 Alpha  occ. eigenvalues --   -0.32662
 Alpha virt. eigenvalues --   -0.09107   0.23648   0.35809   0.89924   0.93026
 Alpha virt. eigenvalues --    0.93026   1.05555   1.24840   1.24840   1.24898
 Alpha virt. eigenvalues --    1.42243   1.42243   1.44089   2.14354   2.38986

  Beta  occ. eigenvalues --  -24.69874  -1.10581  -0.40675  -0.40675  -0.34606
  Beta virt. eigenvalues --   -0.24016  -0.06278   0.23832   0.38074   0.94449
  Beta virt. eigenvalues --    0.94449   0.97711   1.08608   1.22719   1.22719
  Beta virt. eigenvalues --    1.25557   1.46226   1.46443   1.46443   2.13523

 Mulliken charges and spin densities:
               1          2
     1  H    0.064542  -0.926970
     2  H    0.000362   0.998893
     3  F   -0.064903   0.928078
 Sum of Mulliken charges =  -0.00000   1.00000

 Dipole moment (field-independent basis, Debye):
    X=             -0.9029    Y=              0.0000    Z=              0.0000  Tot=              0.9029
 Quadrupole moment (field-independent basis, Debye-Ang):
   XX=             -8.9484   YY=             -7.5879   ZZ=             -7.5879
   XY=              0.0000   XZ=              0.0000   YZ=             -0.0000

  Exact polarizability:      31.352       0.000       2.024       0.000      -0.000       2.024
 Approx polarizability:      37.039       0.000       1.922       0.000       0.000       1.922

 ******    2 imaginary frequencies (negative Signs) ******

                      1                      2                      3
                      A                      A                      A
 Frequencies --   -499.5177               -91.3279               186.0200
 Red. masses --      1.0547                 1.0568                 1.0224
 Frc consts  --      0.1551                 0.0052                 0.0208
 IR Inten    --     63.1685                 0.1244                 4.0236

                      4
                      A
 Frequencies --    186.0200
 Red. masses --      1.0224
 Frc consts  --      0.0208
 IR Inten    --      4.0236

 - Thermochemistry -
 -------------------
 Temperature   298.150 Kelvin.  Pressure   1.00000 Atm.
 Atom     1 has atomic number  1 and mass   1.00783

 Molecular mass:    21.01405 amu.
 Principal axes and moments of inertia in atomic units:
                           1         2         3
     Eigenvalues --     0.00000 161.51344 161.51344
           X            1.00000  -0.00000   0.00000
           Y            0.00000   1.00000   0.00000
           Z            0.00000   0.00000   1.00000
 This molecule is a prolate symmetric top.
 Rotational symmetry number  1.
 Rotational temperature (Kelvin)      0.53626
 Rotational constant (GHZ):          11.173938
    2 imaginary frequencies ignored.
 Zero-point vibrational energy       2225.3 (Joules/Mol)
                                    0.53186 (Kcal/Mol)
 Warning -- explicit consideration of   2 degrees of freedom as
           vibrations may cause significant error
 Vibrational temperatures:    267.64   267.64
          (Kelvin)

 Zero-point correction=                           0.000848 (Hartree/Particle)
 Thermal correction to Energy=                    0.004374
 Thermal correction to Enthalpy=                  0.005318
 Thermal correction to Gibbs Free Energy=        -0.021065
 Sum of electronic and zero-point Energies=           -100.763029
 Sum of electronic and thermal Energies=              -100.759502
 Sum of electronic and thermal Enthalpies=            -100.758558
 Sum of electronic and thermal Free Energies=         -100.784941

                     E (Thermal)             CV                S
                      KCal/Mol        Cal/Mol-Kelvin    Cal/Mol-Kelvin
 Total                    2.745              8.686             55.527
 Electronic               0.000              0.000              1.377
 Translational            0.889              2.981             35.068
 Rotational               0.592              1.987             14.548
 Vibrational              1.263              3.718              4.534
 Vibration     1          0.632              1.859              2.267
 Vibration     2          0.632              1.859              2.267

 Normal termination of Gaussian 16 at Fri Aug 22 18:27:08 2025.
