 Gaussian 16, Revision C.01,
 Gaussian 16:  ES64L-G16RevC.01  3-Jul-2019

 -----------------------------------------
 # sp b3lyp/6-311g** Force nosymm scf=(qc)
 -----------------------------------------

 -------------------
 Title Card Required
 -------------------
 Symbolic Z-matrix:
 Charge =  0 Multiplicity = 2

                          Input orientation:
 ---------------------------------------------------------------------
 Center     Atomic      Atomic             Coordinates (Angstroms)
 Number     Number       Type             X           Y           Z
 ---------------------------------------------------------------------
      1          1           0        0.000000    0.000000    0.000000
      2          1           0       -1.400000    0.000000    0.000000
      3          9           0        2.750000    0.000000    0.000000
 ---------------------------------------------------------------------

 SCF Done:  E(UB3LYP) =  -100.837351830     a.u. after   78 cycles

 Alpha  occ. eigenvalues --  -24.75569  -1.21509  -0.54670  -0.45990  -0.45933
 Alpha  occ. eigenvalues --   -0.35127
 Alpha virt. eigenvalues --   -0.08579   0.23969   0.31571   0.88162   0.91289
 Alpha virt. eigenvalues --    0.92438   1.05641   1.10809   1.17123   1.17125
 Alpha virt. eigenvalues --    1.44354   1.44357   1.89701   2.24978   2.50446

  Beta  occ. eigenvalues --  -24.72478  -1.12640  -0.42910  -0.42838  -0.34917
  Beta virt. eigenvalues --   -0.25923  -0.08260   0.24219   0.31918   0.92758
  Beta virt. eigenvalues --    0.93250   0.97547   1.08738   1.12172   1.17330
  Beta virt. eigenvalues --    1.17333   1.44541   1.44544   1.89973   2.25322

 Mulliken charges and spin densities:
               1          2
     1  H   -0.000087  -0.069697
     2  H    0.013892   0.091177
     3  F   -0.013805   0.978520
 Sum of Mulliken charges =   0.00000   1.00000

 Dipole moment (field-independent basis, Debye):
    X=             -0.3012    Y=              0.0024    Z=              0.0005  Tot=              0.3012
 Quadrupole moment (field-independent basis, Debye-Ang):
   XX=             -6.1697   YY=             -7.4172   ZZ=             -7.6531
   XY=              0.3805   XZ=              0.0830   YZ=              0.0540

  Exact polarizability:      87.330       0.186       2.191       0.501       0.038       2.036
 Approx polarizability:      58.167       0.086       2.233       0.019       0.036       2.074

 ******    2 imaginary frequencies (negative Signs) ******

                      1                      2                      3
                      A                      A                      A
 Frequencies --  -1498.6970              -213.1334              1291.7002
 Red. masses --      1.0087                 1.1074                 1.0118
 Frc consts  --      1.3349                 0.0296                 0.9947
 IR Inten    --   1647.0736                44.3648                 3.0663

                      4
                      A
 Frequencies --   1305.4652
 Red. masses --      1.0118
 Frc consts  --      1.0160
 IR Inten    --      5.4122

 - Thermochemistry -
 -------------------
 Temperature   298.150 Kelvin.  Pressure   1.00000 Atm.
 Atom     1 has atomic number  1 and mass   1.00783

 Molecular mass:    21.01405 amu.
 Principal axes and moments of inertia in atomic units:
                           1         2         3
     Eigenvalues --     0.00000  80.98361  80.98361
           X            1.00000  -0.00000   0.00000
           Y            0.00000   1.00000   0.00000
           Z            0.00000   0.00000   1.00000
 This molecule is a prolate symmetric top.
 Rotational symmetry number  1.
 Rotational temperature (Kelvin)      1.06952
 Rotational constant (GHZ):          22.285265
    2 imaginary frequencies ignored.
 Zero-point vibrational energy      15534.5 (Joules/Mol)
                                    3.71283 (Kcal/Mol)
 Vibrational temperatures:   1858.47  1878.27
          (Kelvin)

 Zero-point correction=                           0.005917 (Hartree/Particle)
 Thermal correction to Energy=                    0.008300
 Thermal correction to Enthalpy=                  0.009244
 Thermal correction to Gibbs Free Energy=        -0.014359
 Sum of electronic and zero-point Energies=           -100.831435
 Sum of electronic and thermal Energies=              -100.829052
 Sum of electronic and thermal Enthalpies=            -100.828108
 Sum of electronic and thermal Free Energies=         -100.851711

                     E (Thermal)             CV                S
                      KCal/Mol        Cal/Mol-Kelvin    Cal/Mol-Kelvin
 Total                    5.208              5.266             49.676
 Electronic               0.000              0.000              1.377
 Translational            0.889              2.981             35.068
 Rotational               0.592              1.987             13.176
 Vibrational              3.727              0.298              0.055

 Normal termination of Gaussian 16 at Fri Aug 22 18:32:50 2025.
