 Gaussian 16, Revision C.01,
 Gaussian 16:  ES64L-G16RevC.01  3-Jul-2019

 -----------------------------------------
 # sp b3lyp/6-311g** Force nosymm scf=(qc)
 -----------------------------------------

 -------------------
 Title Card Required
 -------------------
 Symbolic Z-matrix:
 Charge =  0 Multiplicity = 2

                          Input orientation:
 ---------------------------------------------------------------------
 Center     Atomic      Atomic             Coordinates (Angstroms)
 Number     Number       Type             X           Y           Z
 ---------------------------------------------------------------------
      1          1           0        0.000000    0.000000    0.000000
      2          1           0       -1.850000    0.000000    0.000000
      3          9           0        2.950000    0.000000    0.000000
 ---------------------------------------------------------------------

 SCF Done:  E(UB3LYP) =  -100.784524320     a.u. after   25 cycles

 Alpha  occ. eigenvalues --  -24.74326  -1.20365  -0.53448  -0.44877  -0.44877
 Alpha  occ. eigenvalues --   -0.34016
 Alpha virt. eigenvalues --   -0.11858   0.25290   0.31085   0.89792   0.92118
 Alpha virt. eigenvalues --    0.92118   1.04186   1.11250   1.23763   1.23763
 Alpha virt. eigenvalues --    1.36297   1.36297   1.57426   2.13165   2.38702

  Beta  occ. eigenvalues --  -24.71292  -1.11665  -0.41840  -0.41840  -0.33997
  Beta virt. eigenvalues --   -0.25026  -0.11403   0.25934   0.31351   0.93580
  Beta virt. eigenvalues --    0.93580   0.98397   1.07827   1.11789   1.23769
  Beta virt. eigenvalues --    1.23769   1.36914   1.36914   1.57965   2.14266

 Mulliken charges and spin densities:
               1          2
     1  H    0.014407  -0.736528
     2  H    0.019003   0.775004
     3  F   -0.033410   0.961523
 Sum of Mulliken charges =  -0.00000   1.00000

 Dipole moment (field-independent basis, Debye):
    X=             -0.6722    Y=              0.0000    Z=             -0.0000  Tot=              0.6722
 Quadrupole moment (field-independent basis, Debye-Ang):
   XX=             -7.1244   YY=             -7.7268   ZZ=             -7.7268
   XY=              0.0000   XZ=             -0.0000   YZ=              0.0000

  Exact polarizability:      61.259       0.000       2.007      -0.000       0.000       2.007
 Approx polarizability:      62.111       0.000       1.946      -0.000      -0.000       1.946

 ******    2 imaginary frequencies (negative Signs) ******

                      1                      2                      3
                      A                      A                      A
 Frequencies --  -1646.0467              -245.3626               702.7712
 Red. masses --      1.0079                 1.1084                 1.0133
 Frc consts  --      1.6091                 0.0393                 0.2949
 IR Inten    --     71.1382                30.7065                 0.0374

                      4
                      A
 Frequencies --    702.7712
 Red. masses --      1.0133
 Frc consts  --      0.2949
 IR Inten    --      0.0374

 - Thermochemistry -
 -------------------
 Temperature   298.150 Kelvin.  Pressure   1.00000 Atm.
 Atom     1 has atomic number  1 and mass   1.00783

 Molecular mass:    21.01405 amu.
 Principal axes and moments of inertia in atomic units:
                           1         2         3
     Eigenvalues --     0.00000 103.87433 103.87433
           X            1.00000  -0.00000   0.00000
           Y            0.00000   1.00000   0.00000
           Z            0.00000   0.00000   1.00000
 This molecule is a prolate symmetric top.
 Rotational symmetry number  1.
 Rotational temperature (Kelvin)      0.83383
 Rotational constant (GHZ):          17.374276
    2 imaginary frequencies ignored.
 Zero-point vibrational energy       8407.0 (Joules/Mol)
                                    2.00932 (Kcal/Mol)
 Vibrational temperatures:   1011.13  1011.13
          (Kelvin)

 Zero-point correction=                           0.003202 (Hartree/Particle)
 Thermal correction to Energy=                    0.005786
 Thermal correction to Enthalpy=                  0.006730
 Thermal correction to Gibbs Free Energy=        -0.017370
 Sum of electronic and zero-point Energies=           -100.781322
 Sum of electronic and thermal Energies=              -100.778739
 Sum of electronic and thermal Enthalpies=            -100.777795
 Sum of electronic and thermal Free Energies=         -100.801894

                     E (Thermal)             CV                S
                      KCal/Mol        Cal/Mol-Kelvin    Cal/Mol-Kelvin
 Total                    3.631              6.616             50.722
 Electronic               0.000              0.000              1.377
 Translational            0.889              2.981             35.068
 Rotational               0.592              1.987             13.671
 Vibrational              2.149              1.648              0.606

 Normal termination of Gaussian 16 at Fri Aug 22 19:17:08 2025.
