 Gaussian 16, Revision C.01,
 Gaussian 16:  ES64L-G16RevC.01  3-Jul-2019

 -----------------------------------------
 # sp b3lyp/6-311g** Force nosymm scf=(qc)
 -----------------------------------------

 -------------------
 Title Card Required
 -------------------
 Symbolic Z-matrix:
 Charge =  0 Multiplicity = 2

                          Input orientation:
 ---------------------------------------------------------------------
 Center     Atomic      Atomic             Coordinates (Angstroms)
 Number     Number       Type             X           Y           Z
 ---------------------------------------------------------------------
      1          1           0        0.000000    0.000000    0.000000
      2          1           0       -2.300000    0.000000    0.000000
      3          9           0        3.250000    0.000000    0.000000
 ---------------------------------------------------------------------

 SCF Done:  E(UB3LYP) =  -100.766444619     a.u. after   33 cycles

 Alpha  occ. eigenvalues --  -24.74974  -1.20966  -0.54094  -0.45419  -0.45419
 Alpha  occ. eigenvalues --   -0.33018
 Alpha virt. eigenvalues --   -0.10558   0.25695   0.33287   0.88547   0.91733
 Alpha virt. eigenvalues --    0.91733   1.02628   1.24746   1.24746   1.25177
 Alpha virt. eigenvalues --    1.39413   1.39413   1.43378   2.14556   2.35710

  Beta  occ. eigenvalues --  -24.71889  -1.12110  -0.42329  -0.42329  -0.33356
  Beta virt. eigenvalues --   -0.25291  -0.09896   0.25661   0.34151   0.93213
  Beta virt. eigenvalues --    0.93213   0.97550   1.06608   1.24318   1.24318
  Beta virt. eigenvalues --    1.24689   1.40452   1.40452   1.44355   2.15506

 Mulliken charges and spin densities:
               1          2
     1  H    0.013962  -0.923529
     2  H    0.005761   0.945697
     3  F   -0.019723   0.977832
 Sum of Mulliken charges =  -0.00000   1.00000

 Dipole moment (field-independent basis, Debye):
    X=             -0.3920    Y=             -0.0000    Z=             -0.0000  Tot=              0.3920
 Quadrupole moment (field-independent basis, Debye-Ang):
   XX=             -7.3145   YY=             -7.6811   ZZ=             -7.6811
   XY=             -0.0000   XZ=              0.0000   YZ=              0.0000

  Exact polarizability:      45.234      -0.000       2.014       0.000       0.000       2.014
 Approx polarizability:      36.329      -0.000       1.926       0.000      -0.000       1.926

 ******    2 imaginary frequencies (negative Signs) ******

                      1                      2                      3
                      A                      A                      A
 Frequencies --   -897.0514              -186.3628               339.6116
 Red. masses --      1.0081                 1.1082                 1.0143
 Frc consts  --      0.4779                 0.0227                 0.0689
 IR Inten    --     13.7020                14.3290                 0.1180

                      4
                      A
 Frequencies --    339.6116
 Red. masses --      1.0143
 Frc consts  --      0.0689
 IR Inten    --      0.1180

 - Thermochemistry -
 -------------------
 Temperature   298.150 Kelvin.  Pressure   1.00000 Atm.
 Atom     1 has atomic number  1 and mass   1.00783

 Molecular mass:    21.01405 amu.
 Principal axes and moments of inertia in atomic units:
                           1         2         3
     Eigenvalues --     0.00000 135.50631 135.50631
           X            1.00000  -0.00000   0.00000
           Y            0.00000   1.00000   0.00000
           Z            0.00000   0.00000   1.00000
 This molecule is a prolate symmetric top.
 Rotational symmetry number  1.
 Rotational temperature (Kelvin)      0.63919
 Rotational constant (GHZ):          13.318503
    2 imaginary frequencies ignored.
 Zero-point vibrational energy       4062.7 (Joules/Mol)
                                    0.97100 (Kcal/Mol)
 Warning -- explicit consideration of   2 degrees of freedom as
           vibrations may cause significant error
 Vibrational temperatures:    488.63   488.63
          (Kelvin)

 Zero-point correction=                           0.001547 (Hartree/Particle)
 Thermal correction to Energy=                    0.004654
 Thermal correction to Enthalpy=                  0.005598
 Thermal correction to Gibbs Free Energy=        -0.019618
 Sum of electronic and zero-point Energies=           -100.764897
 Sum of electronic and thermal Energies=              -100.761791
 Sum of electronic and thermal Enthalpies=            -100.760847
 Sum of electronic and thermal Free Energies=         -100.786063

                     E (Thermal)             CV                S
                      KCal/Mol        Cal/Mol-Kelvin    Cal/Mol-Kelvin
 Total                    2.920              8.161             53.072
 Electronic               0.000              0.000              1.377
 Translational            0.889              2.981             35.068
 Rotational               0.592              1.987             14.199
 Vibrational              1.439              3.193              2.428
 Vibration     1          0.720              1.596              1.214
 Vibration     2          0.720              1.596              1.214

 Normal termination of Gaussian 16 at Fri Aug 22 20:34:48 2025.
