 Gaussian 16, Revision C.01,
 Gaussian 16:  ES64L-G16RevC.01  3-Jul-2019

 -----------------------------------------
 # sp b3lyp/6-311g** Force nosymm scf=(qc)
 -----------------------------------------

 -------------------
 Title Card Required
 -------------------
 Symbolic Z-matrix:
 Charge =  0 Multiplicity = 2

                          Input orientation:
 ---------------------------------------------------------------------
 Center     Atomic      Atomic             Coordinates (Angstroms)
 Number     Number       Type             X           Y           Z
 ---------------------------------------------------------------------
      1          1           0        0.000000    0.000000    0.000000
      2          1           0       -3.600000    0.000000    0.000000
      3          9           0        3.700000    0.000000    0.000000
 ---------------------------------------------------------------------

 SCF Done:  E(UB3LYP) =  -100.758767763     a.u. after   30 cycles

 Alpha  occ. eigenvalues --  -24.75656  -1.21599  -0.54780  -0.45994  -0.45994
 Alpha  occ. eigenvalues --   -0.32285
 Alpha virt. eigenvalues --   -0.06641   0.24267   0.37433   0.87060   0.91312
 Alpha virt. eigenvalues --    0.91312   1.01404   1.25216   1.25216   1.25321
 Alpha virt. eigenvalues --    1.45602   1.45750   1.45750   2.14932   2.41502

  Beta  occ. eigenvalues --  -24.72525  -1.12598  -0.42855  -0.42855  -0.32620
  Beta virt. eigenvalues --   -0.25620  -0.06299   0.24057   0.38055   0.92807
  Beta virt. eigenvalues --    0.92807   0.96315   1.05476   1.24840   1.24840
  Beta virt. eigenvalues --    1.24927   1.46099   1.46309   1.46309   2.15013

 Mulliken charges and spin densities:
               1          2
     1  H    0.006399  -0.991170
     2  H    0.000092   0.998334
     3  F   -0.006491   0.992836
 Sum of Mulliken charges =   0.00000   1.00000

 Dipole moment (field-independent basis, Debye):
    X=             -0.1254    Y=              0.0000    Z=             -0.0000  Tot=              0.1254
 Quadrupole moment (field-independent basis, Debye-Ang):
   XX=             -7.1502   YY=             -7.6218   ZZ=             -7.6218
   XY=             -0.0000   XZ=              0.0000   YZ=             -0.0000

  Exact polarizability:      17.917      -0.000       2.028      -0.000      -0.000       2.028
 Approx polarizability:      13.388      -0.000       1.935       0.000       0.000       1.935

 ******    2 imaginary frequencies (negative Signs) ******

                      1                      2                      3
                      A                      A                      A
 Frequencies --   -202.9585               -86.6477                67.2483
 Red. masses --      1.0223                 1.0915                 1.0176
 Frc consts  --      0.0248                 0.0048                 0.0027
 IR Inten    --      4.4627                 0.8230                 0.0413

                      4
                      A
 Frequencies --     67.2483
 Red. masses --      1.0176
 Frc consts  --      0.0027
 IR Inten    --      0.0413

 - Thermochemistry -
 -------------------
 Temperature   298.150 Kelvin.  Pressure   1.00000 Atm.
 Atom     1 has atomic number  1 and mass   1.00783

 Molecular mass:    21.01405 amu.
 Principal axes and moments of inertia in atomic units:
                           1         2         3
     Eigenvalues --     0.00000 220.17616 220.17616
           X            1.00000  -0.00000   0.00000
           Y            0.00000   1.00000   0.00000
           Z            0.00000   0.00000   1.00000
 This molecule is a prolate symmetric top.
 Rotational symmetry number  1.
 Rotational temperature (Kelvin)      0.39338
 Rotational constant (GHZ):           8.196806
    2 imaginary frequencies ignored.
 Zero-point vibrational energy        804.5 (Joules/Mol)
                                    0.19227 (Kcal/Mol)
 Warning -- explicit consideration of   2 degrees of freedom as
           vibrations may cause significant error
 Vibrational temperatures:     96.76    96.76
          (Kelvin)

 Zero-point correction=                           0.000306 (Hartree/Particle)
 Thermal correction to Energy=                    0.004265
 Thermal correction to Enthalpy=                  0.005210
 Thermal correction to Gibbs Free Energy=        -0.023333
 Sum of electronic and zero-point Energies=           -100.758461
 Sum of electronic and thermal Energies=              -100.754502
 Sum of electronic and thermal Enthalpies=            -100.753558
 Sum of electronic and thermal Free Energies=         -100.782101

                     E (Thermal)             CV                S
                      KCal/Mol        Cal/Mol-Kelvin    Cal/Mol-Kelvin
 Total                    2.677              8.908             60.074
 Electronic               0.000              0.000              1.377
 Translational            0.889              2.981             35.068
 Rotational               0.592              1.987             15.163
 Vibrational              1.195              3.940              8.465
 Vibration     1          0.598              1.970              4.232
 Vibration     2          0.598              1.970              4.232

 Normal termination of Gaussian 16 at Sat Aug 23 00:05:02 2025.
