 Gaussian 16, Revision C.01,
 Gaussian 16:  ES64L-G16RevC.01  3-Jul-2019

 -----------------------------------------
 # sp b3lyp/6-311g** Force nosymm scf=(qc)
 -----------------------------------------

 -------------------
 Title Card Required
 -------------------
 Symbolic Z-matrix:
 Charge =  0 Multiplicity = 2

                          Input orientation:
 ---------------------------------------------------------------------
 Center     Atomic      Atomic             Coordinates (Angstroms)
 Number     Number       Type             X           Y           Z
 ---------------------------------------------------------------------
      1          1           0        0.000000    0.000000    0.000000
      2          1           0       -1.850000    0.000000    0.000000
      3          9           0        2.550000    0.000000    0.000000
 ---------------------------------------------------------------------

 SCF Done:  E(UB3LYP) =  -100.788743670     a.u. after   20 cycles

 Alpha  occ. eigenvalues --  -24.72401  -1.18567  -0.51522  -0.43255  -0.43255
 Alpha  occ. eigenvalues --   -0.35006
 Alpha virt. eigenvalues --   -0.12555   0.24692   0.31438   0.89818   0.93254
 Alpha virt. eigenvalues --    0.93254   1.04755   1.15702   1.22738   1.22738
 Alpha virt. eigenvalues --    1.35129   1.35129   1.56287   2.12135   2.37514

  Beta  occ. eigenvalues --  -24.69511  -1.10324  -0.40370  -0.40370  -0.34990
  Beta virt. eigenvalues --   -0.23999  -0.11776   0.26441   0.31112   0.94647
  Beta virt. eigenvalues --    0.94647   0.96760   1.07541   1.18596   1.22903
  Beta virt. eigenvalues --    1.22903   1.36219   1.36219   1.56965   2.13059

 Mulliken charges and spin densities:
               1          2
     1  H    0.041422  -0.701177
     2  H    0.032579   0.787260
     3  F   -0.074001   0.913918
 Sum of Mulliken charges =  -0.00000   1.00000

 Dipole moment (field-independent basis, Debye):
    X=             -1.2504    Y=              0.0000    Z=             -0.0000  Tot=              1.2504
 Quadrupole moment (field-independent basis, Debye-Ang):
   XX=             -7.7870   YY=             -7.6837   ZZ=             -7.6837
   XY=              0.0000   XZ=             -0.0000   YZ=              0.0000

  Exact polarizability:      62.530       0.000       2.011      -0.000       0.000       2.011
 Approx polarizability:      70.729      -0.000       1.944       0.000      -0.000       1.944

 ******    2 imaginary frequencies (negative Signs) ******

                      1                      2                      3
                      A                      A                      A
 Frequencies --  -1659.0874              -366.8127               700.8022
 Red. masses --      1.0085                 1.1077                 1.0145
 Frc consts  --      1.6355                 0.0878                 0.2936
 IR Inten    --    126.4728                49.6615                 0.6394

                      4
                      A
 Frequencies --    700.8022
 Red. masses --      1.0145
 Frc consts  --      0.2936
 IR Inten    --      0.6394

 - Thermochemistry -
 -------------------
 Temperature   298.150 Kelvin.  Pressure   1.00000 Atm.
 Atom     1 has atomic number  1 and mass   1.00783

 Molecular mass:    21.01405 amu.
 Principal axes and moments of inertia in atomic units:
                           1         2         3
     Eigenvalues --     0.00000  84.74201  84.74201
           X            1.00000  -0.00000   0.00000
           Y            0.00000   1.00000   0.00000
           Z            0.00000   0.00000   1.00000
 This molecule is a prolate symmetric top.
 Rotational symmetry number  1.
 Rotational temperature (Kelvin)      1.02209
 Rotational constant (GHZ):          21.296889
    2 imaginary frequencies ignored.
 Zero-point vibrational energy       8383.5 (Joules/Mol)
                                    2.00369 (Kcal/Mol)
 Vibrational temperatures:   1008.30  1008.30
          (Kelvin)

 Zero-point correction=                           0.003193 (Hartree/Particle)
 Thermal correction to Energy=                    0.005778
 Thermal correction to Enthalpy=                  0.006722
 Thermal correction to Gibbs Free Energy=        -0.017187
 Sum of electronic and zero-point Energies=           -100.785551
 Sum of electronic and thermal Energies=              -100.782965
 Sum of electronic and thermal Enthalpies=            -100.782021
 Sum of electronic and thermal Free Energies=         -100.805931

                     E (Thermal)             CV                S
                      KCal/Mol        Cal/Mol-Kelvin    Cal/Mol-Kelvin
 Total                    3.626              6.623             50.322
 Electronic               0.000              0.000              1.377
 Translational            0.889              2.981             35.068
 Rotational               0.592              1.987             13.266
 Vibrational              2.145              1.655              0.610

 Normal termination of Gaussian 16 at Fri Aug 22 17:53:40 2025.
