 Gaussian 16, Revision C.01,
 Gaussian 16:  ES64L-G16RevC.01  3-Jul-2019

 -----------------------------------------
 # sp b3lyp/6-311g** Force nosymm scf=(qc)
 -----------------------------------------

 -------------------
 Title Card Required
 -------------------
 Symbolic Z-matrix:
 Charge =  0 Multiplicity = 2

                          Input orientation:
 ---------------------------------------------------------------------
 Center     Atomic      Atomic             Coordinates (Angstroms)
 Number     Number       Type             X           Y           Z
 ---------------------------------------------------------------------
      1          1           0        0.000000    0.000000    0.000000
      2          1           0       -2.200000    0.000000    0.000000
      3          9           0        3.300000    0.000000    0.000000
 ---------------------------------------------------------------------

 SCF Done:  E(UB3LYP) =  -100.768419262     a.u. after   26 cycles

 Alpha  occ. eigenvalues --  -24.75128  -1.21108  -0.54248  -0.45550  -0.45550
 Alpha  occ. eigenvalues --   -0.33072
 Alpha virt. eigenvalues --   -0.10777   0.25764   0.32983   0.88348   0.91636
 Alpha virt. eigenvalues --    0.91636   1.02410   1.23357   1.24769   1.24769
 Alpha virt. eigenvalues --    1.38829   1.38829   1.44986   2.13856   2.35592

  Beta  occ. eigenvalues --  -24.72034  -1.12223  -0.42450  -0.42450  -0.33311
  Beta virt. eigenvalues --   -0.25380  -0.10246   0.25724   0.33711   0.93118
  Beta virt. eigenvalues --    0.93118   0.97389   1.06406   1.23072   1.24458
  Beta virt. eigenvalues --    1.24458   1.39644   1.39644   1.45690   2.14752

 Mulliken charges and spin densities:
               1          2
     1  H    0.010530  -0.906512
     2  H    0.006401   0.925671
     3  F   -0.016931   0.980841
 Sum of Mulliken charges =   0.00000   1.00000

 Dipole moment (field-independent basis, Debye):
    X=             -0.3537    Y=              0.0000    Z=             -0.0000  Tot=              0.3537
 Quadrupole moment (field-independent basis, Debye-Ang):
   XX=             -7.1272   YY=             -7.6945   ZZ=             -7.6945
   XY=              0.0000   XZ=             -0.0000   YZ=             -0.0000

  Exact polarizability:      46.551       0.000       2.013      -0.000      -0.000       2.013
 Approx polarizability:      37.374       0.000       1.928      -0.000      -0.000       1.928

 ******    2 imaginary frequencies (negative Signs) ******

                      1                      2                      3
                      A                      A                      A
 Frequencies --  -1030.7466              -177.0029               397.0392
 Red. masses --      1.0079                 1.1084                 1.0138
 Frc consts  --      0.6309                 0.0205                 0.0942
 IR Inten    --     13.4468                13.2151                 0.0541

                      4
                      A
 Frequencies --    397.0392
 Red. masses --      1.0138
 Frc consts  --      0.0942
 IR Inten    --      0.0541

 - Thermochemistry -
 -------------------
 Temperature   298.150 Kelvin.  Pressure   1.00000 Atm.
 Atom     1 has atomic number  1 and mass   1.00783

 Molecular mass:    21.01405 amu.
 Principal axes and moments of inertia in atomic units:
                           1         2         3
     Eigenvalues --     0.00000 134.69653 134.69653
           X            1.00000  -0.00000   0.00000
           Y            0.00000   1.00000   0.00000
           Z            0.00000   0.00000   1.00000
 This molecule is a prolate symmetric top.
 Rotational symmetry number  1.
 Rotational temperature (Kelvin)      0.64303
 Rotational constant (GHZ):          13.398572
    2 imaginary frequencies ignored.
 Zero-point vibrational energy       4749.6 (Joules/Mol)
                                    1.13519 (Kcal/Mol)
 Warning -- explicit consideration of   2 degrees of freedom as
           vibrations may cause significant error
 Vibrational temperatures:    571.25   571.25
          (Kelvin)

 Zero-point correction=                           0.001809 (Hartree/Particle)
 Thermal correction to Energy=                    0.004794
 Thermal correction to Enthalpy=                  0.005738
 Thermal correction to Gibbs Free Energy=        -0.019244
 Sum of electronic and zero-point Energies=           -100.766610
 Sum of electronic and thermal Energies=              -100.763625
 Sum of electronic and thermal Enthalpies=            -100.762681
 Sum of electronic and thermal Free Energies=         -100.787663

                     E (Thermal)             CV                S
                      KCal/Mol        Cal/Mol-Kelvin    Cal/Mol-Kelvin
 Total                    3.008              7.921             52.580
 Electronic               0.000              0.000              1.377
 Translational            0.889              2.981             35.068
 Rotational               0.592              1.987             14.187
 Vibrational              1.527              2.953              1.947
 Vibration     1          0.764              1.476              0.974
 Vibration     2          0.764              1.476              0.974

 Normal termination of Gaussian 16 at Fri Aug 22 20:48:25 2025.
