 Gaussian 16, Revision C.01,
 Gaussian 16:  ES64L-G16RevC.01  3-Jul-2019

 -----------------------------------------
 # sp b3lyp/6-311g** Force nosymm scf=(qc)
 -----------------------------------------

 -------------------
 Title Card Required
 -------------------
 Symbolic Z-matrix:
 Charge =  0 Multiplicity = 2

                          Input orientation:
 ---------------------------------------------------------------------
 Center     Atomic      Atomic             Coordinates (Angstroms)
 Number     Number       Type             X           Y           Z
 ---------------------------------------------------------------------
      1          1           0        0.000000    0.000000    0.000000
      2          1           0       -2.600000    0.000000    0.000000
      3          9           0        3.950000    0.000000    0.000000
 ---------------------------------------------------------------------

 SCF Done:  E(UB3LYP) =  -100.761574228     a.u. after   37 cycles

 Alpha  occ. eigenvalues --  -24.75882  -1.21810  -0.55007  -0.46187  -0.46187
 Alpha  occ. eigenvalues --   -0.32480
 Alpha virt. eigenvalues --   -0.08850   0.25680   0.35152   0.86609   0.91165
 Alpha virt. eigenvalues --    0.91165   1.01096   1.25135   1.25135   1.26633
 Alpha virt. eigenvalues --    1.42443   1.42443   1.43469   2.16055   2.37494

  Beta  occ. eigenvalues --  -24.72738  -1.12767  -0.43034  -0.43034  -0.32628
  Beta virt. eigenvalues --   -0.25741  -0.08640   0.25525   0.35427   0.92664
  Beta virt. eigenvalues --    0.92664   0.95985   1.05224   1.24973   1.24973
  Beta virt. eigenvalues --    1.26452   1.42746   1.42746   1.43769   2.16135

 Mulliken charges and spin densities:
               1          2
     1  H    0.001861  -0.974230
     2  H    0.000741   0.977188
     3  F   -0.002602   0.997042
 Sum of Mulliken charges =   0.00000   1.00000

 Dipole moment (field-independent basis, Debye):
    X=             -0.0622    Y=             -0.0000    Z=             -0.0000  Tot=              0.0622
 Quadrupole moment (field-independent basis, Debye-Ang):
   XX=             -6.7451   YY=             -7.6589   ZZ=             -7.6589
   XY=             -0.0000   XZ=             -0.0000   YZ=              0.0000

  Exact polarizability:      18.493      -0.000       2.023       0.000       0.000       2.023
 Approx polarizability:      14.046      -0.000       1.932      -0.000      -0.000       1.932

 ******    2 imaginary frequencies (negative Signs) ******

                      1                      2                      3
                      A                      A                      A
 Frequencies --   -572.5260               -77.0769               210.2463
 Red. masses --      1.0079                 1.1085                 1.0137
 Frc consts  --      0.1946                 0.0039                 0.0264
 IR Inten    --      0.6671                 0.7761                 0.0024

                      4
                      A
 Frequencies --    210.2463
 Red. masses --      1.0137
 Frc consts  --      0.0264
 IR Inten    --      0.0024

 - Thermochemistry -
 -------------------
 Temperature   298.150 Kelvin.  Pressure   1.00000 Atm.
 Atom     1 has atomic number  1 and mass   1.00783

 Molecular mass:    21.01405 amu.
 Principal axes and moments of inertia in atomic units:
                           1         2         3
     Eigenvalues --     0.00000 191.53008 191.53008
           X            1.00000  -0.00000   0.00000
           Y            0.00000   1.00000   0.00000
           Z            0.00000   0.00000   1.00000
 This molecule is a prolate symmetric top.
 Rotational symmetry number  1.
 Rotational temperature (Kelvin)      0.45222
 Rotational constant (GHZ):           9.422756
    2 imaginary frequencies ignored.
 Zero-point vibrational energy       2515.1 (Joules/Mol)
                                    0.60112 (Kcal/Mol)
 Warning -- explicit consideration of   2 degrees of freedom as
           vibrations may cause significant error
 Vibrational temperatures:    302.50   302.50
          (Kelvin)

 Zero-point correction=                           0.000958 (Hartree/Particle)
 Thermal correction to Energy=                    0.004408
 Thermal correction to Enthalpy=                  0.005352
 Thermal correction to Gibbs Free Energy=        -0.020977
 Sum of electronic and zero-point Energies=           -100.760616
 Sum of electronic and thermal Energies=              -100.757166
 Sum of electronic and thermal Enthalpies=            -100.756222
 Sum of electronic and thermal Free Energies=         -100.782551

                     E (Thermal)             CV                S
                      KCal/Mol        Cal/Mol-Kelvin    Cal/Mol-Kelvin
 Total                    2.766              8.618             55.415
 Electronic               0.000              0.000              1.377
 Translational            0.889              2.981             35.068
 Rotational               0.592              1.987             14.887
 Vibrational              1.285              3.650              4.083
 Vibration     1          0.642              1.825              2.042
 Vibration     2          0.642              1.825              2.042

 Normal termination of Gaussian 16 at Sat Aug 23 01:39:46 2025.
