 Gaussian 16, Revision C.01,
 Gaussian 16:  ES64L-G16RevC.01  3-Jul-2019

 -----------------------------------------
 # sp b3lyp/6-311g** Force nosymm scf=(qc)
 -----------------------------------------

 -------------------
 Title Card Required
 -------------------
 Symbolic Z-matrix:
 Charge =  0 Multiplicity = 2

                          Input orientation:
 ---------------------------------------------------------------------
 Center     Atomic      Atomic             Coordinates (Angstroms)
 Number     Number       Type             X           Y           Z
 ---------------------------------------------------------------------
      1          1           0        0.000000    0.000000    0.000000
      2          1           0       -1.150000    0.000000    0.000000
      3          9           0        3.000000    0.000000    0.000000
 ---------------------------------------------------------------------

 SCF Done:  E(UB3LYP) =  -100.881290911     a.u. after  186 cycles

 Alpha  occ. eigenvalues --  -24.76682  -1.22501  -0.55691  -0.46942  -0.46841
 Alpha  occ. eigenvalues --   -0.36747
 Alpha virt. eigenvalues --   -0.02749   0.22659   0.35550   0.85768   0.90640
 Alpha virt. eigenvalues --    0.93424   1.04109   1.11922   1.11929   1.25987
 Alpha virt. eigenvalues --    1.57223   1.57230   2.13200   2.33689   2.55765

  Beta  occ. eigenvalues --  -24.73521  -1.13416  -0.43785  -0.43672  -0.36732
  Beta virt. eigenvalues --   -0.26315  -0.02729   0.22681   0.35629   0.92139
  Beta virt. eigenvalues --    0.95127   0.95225   1.07951   1.11922   1.11928
  Beta virt. eigenvalues --    1.25992   1.57222   1.57229   2.13210   2.33693

 Mulliken charges and spin densities:
               1          2
     1  H   -0.001775  -0.000416
     2  H   -0.006263  -0.000645
     3  F    0.008038   1.001062
 Sum of Mulliken charges =   0.00000   1.00000

 Dipole moment (field-independent basis, Debye):
    X=              0.1042    Y=             -0.0000    Z=              0.0000  Tot=              0.1042
 Quadrupole moment (field-independent basis, Debye-Ang):
   XX=             -6.1460   YY=             -6.7819   ZZ=             -7.2543
   XY=             -0.0000   XZ=              0.0000   YZ=             -0.3615

  Exact polarizability:      15.486      -0.000       2.437       0.000      -0.193       2.186
 Approx polarizability:      22.184      -0.000       2.564       0.000      -0.242       2.247

                      1                      2                      3
                      A                      A                      A
 Frequencies --     43.2674               584.3098              1500.8880
 Red. masses --      1.1085                 1.0078                 1.0104
 Frc consts  --      0.0012                 0.2027                 1.3410
 IR Inten    --      0.5006                 0.9490                 0.0012

                      4
                      A
 Frequencies --   1502.2715
 Red. masses --      1.0104
 Frc consts  --      1.3435
 IR Inten    --      0.0013

 - Thermochemistry -
 -------------------
 Temperature   298.150 Kelvin.  Pressure   1.00000 Atm.
 Atom     1 has atomic number  1 and mass   1.00783

 Molecular mass:    21.01405 amu.
 Principal axes and moments of inertia in atomic units:
                           1         2         3
     Eigenvalues --     0.00000  85.55090  85.55090
           X            1.00000  -0.00000   0.00000
           Y            0.00000   1.00000   0.00000
           Z            0.00000   0.00000   1.00000
 This molecule is a prolate symmetric top.
 Rotational symmetry number  1.
 Rotational temperature (Kelvin)      1.01243
 Rotational constant (GHZ):          21.095525
 Zero-point vibrational energy      21716.6 (Joules/Mol)
                                    5.19040 (Kcal/Mol)
 Warning -- explicit consideration of   2 degrees of freedom as
           vibrations may cause significant error
 Vibrational temperatures:     62.25   840.69  2159.44  2161.43
          (Kelvin)

 Zero-point correction=                           0.008271 (Hartree/Particle)
 Thermal correction to Energy=                    0.011659
 Thermal correction to Enthalpy=                  0.012604
 Thermal correction to Gibbs Free Energy=        -0.013688
 Sum of electronic and zero-point Energies=           -100.873019
 Sum of electronic and thermal Energies=              -100.869631
 Sum of electronic and thermal Enthalpies=            -100.868687
 Sum of electronic and thermal Free Energies=         -100.894979

                     E (Thermal)             CV                S
                      KCal/Mol        Cal/Mol-Kelvin    Cal/Mol-Kelvin
 Total                    7.316              8.162             55.335
 Electronic               0.000              0.000              1.377
 Translational            0.889              2.981             35.068
 Rotational               0.592              1.987             13.285
 Vibrational              5.835              3.194              5.604
 Vibration     1          0.595              1.980              5.104
 Vibration     2          0.941              1.065              0.477

 Normal termination of Gaussian 16 at Fri Aug 22 19:26:39 2025.
