 Gaussian 16, Revision C.01,
 Gaussian 16:  ES64L-G16RevC.01  3-Jul-2019

 -----------------------------------------
 # sp b3lyp/6-311g** Force nosymm scf=(qc)
 -----------------------------------------

 -------------------
 Title Card Required
 -------------------
 Symbolic Z-matrix:
 Charge =  0 Multiplicity = 2

                          Input orientation:
 ---------------------------------------------------------------------
 Center     Atomic      Atomic             Coordinates (Angstroms)
 Number     Number       Type             X           Y           Z
 ---------------------------------------------------------------------
      1          1           0        0.000000    0.000000    0.000000
      2          1           0       -2.900000    0.000000    0.000000
      3          9           0        1.600000    0.000000    0.000000
 ---------------------------------------------------------------------

 SCF Done:  E(UB3LYP) =  -100.834728970     a.u. after   10 cycles

 Alpha  occ. eigenvalues --  -24.64802  -1.10493  -0.43378  -0.36741  -0.36741
 Alpha  occ. eigenvalues --   -0.34819
 Alpha virt. eigenvalues --   -0.15016   0.21819   0.28028   0.94251   0.94251
 Alpha virt. eigenvalues --    1.00631   1.07426   1.22713   1.22713   1.23539
 Alpha virt. eigenvalues --    1.32263   1.32263   1.74710   2.13535   2.21421

  Beta  occ. eigenvalues --  -24.63932  -1.08158  -0.41286  -0.35906  -0.35906
  Beta virt. eigenvalues --   -0.17296  -0.08170   0.23270   0.36586   0.93947
  Beta virt. eigenvalues --    0.93947   1.01685   1.07688   1.27746   1.27746
  Beta virt. eigenvalues --    1.43795   1.43975   1.43975   1.72787   2.14763

 Mulliken charges and spin densities:
               1          2
     1  H    0.321292  -0.264474
     2  H    0.008883   0.989663
     3  F   -0.330176   0.274810
 Sum of Mulliken charges =  -0.00000   1.00000

 Dipole moment (field-independent basis, Debye):
    X=             -2.7034    Y=             -0.0000    Z=             -0.0000  Tot=              2.7034
 Quadrupole moment (field-independent basis, Debye-Ang):
   XX=             -9.8376   YY=             -7.3766   ZZ=             -7.3766
   XY=             -0.0000   XZ=             -0.0000   YZ=              0.0000

  Exact polarizability:      23.457      -0.000       2.152       0.000       0.000       2.152
 Approx polarizability:      37.106      -0.000       2.066       0.000      -0.000       2.066

 ******    2 imaginary frequencies (negative Signs) ******

                      1                      2                      3
                      A                      A                      A
 Frequencies --  -1887.9468              -201.0777               896.4806
 Red. masses --      1.0555                 1.0560                 1.0265
 Frc consts  --      2.2167                 0.0252                 0.4860
 IR Inten    --     39.6369                 2.7403                93.3883

                      4
                      A
 Frequencies --    896.4806
 Red. masses --      1.0265
 Frc consts  --      0.4860
 IR Inten    --     93.3883

 - Thermochemistry -
 -------------------
 Temperature   298.150 Kelvin.  Pressure   1.00000 Atm.
 Atom     1 has atomic number  1 and mass   1.00783

 Molecular mass:    21.01405 amu.
 Principal axes and moments of inertia in atomic units:
                           1         2         3
     Eigenvalues --     0.00000  75.67068  75.67068
           X            1.00000  -0.00000   0.00000
           Y            0.00000   1.00000   0.00000
           Z            0.00000   0.00000   1.00000
 This molecule is a prolate symmetric top.
 Rotational symmetry number  1.
 Rotational temperature (Kelvin)      1.14462
 Rotational constant (GHZ):          23.849940
    2 imaginary frequencies ignored.
 Zero-point vibrational energy      10724.3 (Joules/Mol)
                                    2.56317 (Kcal/Mol)
 Vibrational temperatures:   1289.84  1289.84
          (Kelvin)

 Zero-point correction=                           0.004085 (Hartree/Particle)
 Thermal correction to Energy=                    0.006555
 Thermal correction to Enthalpy=                  0.007499
 Thermal correction to Gibbs Free Energy=        -0.016148
 Sum of electronic and zero-point Energies=           -100.830644
 Sum of electronic and thermal Energies=              -100.828174
 Sum of electronic and thermal Enthalpies=            -100.827230
 Sum of electronic and thermal Free Energies=         -100.850877

                     E (Thermal)             CV                S
                      KCal/Mol        Cal/Mol-Kelvin    Cal/Mol-Kelvin
 Total                    4.113              5.978             49.770
 Electronic               0.000              0.000              1.377
 Translational            0.889              2.981             35.068
 Rotational               0.592              1.987             13.041
 Vibrational              2.632              1.010              0.283

 Normal termination of Gaussian 16 at Fri Aug 22 16:31:58 2025.
