 Gaussian 16, Revision C.01,
 Gaussian 16:  ES64L-G16RevC.01  3-Jul-2019

 -----------------------------------------
 # sp b3lyp/6-311g** Force nosymm scf=(qc)
 -----------------------------------------

 -------------------
 Title Card Required
 -------------------
 Symbolic Z-matrix:
 Charge =  0 Multiplicity = 2

                          Input orientation:
 ---------------------------------------------------------------------
 Center     Atomic      Atomic             Coordinates (Angstroms)
 Number     Number       Type             X           Y           Z
 ---------------------------------------------------------------------
      1          1           0        0.000000    0.000000    0.000000
      2          1           0       -2.850000    0.000000    0.000000
      3          9           0        0.500000    0.000000    0.000000
 ---------------------------------------------------------------------

 SCF Done:  E(UB3LYP) =  -100.269045381     a.u. after    6 cycles

 Alpha  occ. eigenvalues --  -24.63020  -1.42334  -0.63501  -0.44319  -0.44319
 Alpha  occ. eigenvalues --   -0.33767
 Alpha virt. eigenvalues --    0.08652   0.25710   0.62570   0.89023   0.90171
 Alpha virt. eigenvalues --    0.90171   1.21616   1.23764   1.23764   1.42648
 Alpha virt. eigenvalues --    1.58529   1.58529   2.00431   2.14944   3.76647

  Beta  occ. eigenvalues --  -24.63017  -1.42327  -0.63498  -0.44318  -0.44318
  Beta virt. eigenvalues --   -0.06419   0.09696   0.39055   0.62376   0.89055
  Beta virt. eigenvalues --    0.90162   0.90162   1.35224   1.48974   1.48974
  Beta virt. eigenvalues --    1.53925   1.58533   1.58533   2.00015   2.45118

 Mulliken charges and spin densities:
               1          2
     1  H    0.122368   0.001515
     2  H    0.002544   0.996988
     3  F   -0.124912   0.001496
 Sum of Mulliken charges =   0.00000   1.00000

 Dipole moment (field-independent basis, Debye):
    X=             -1.3235    Y=             -0.0000    Z=             -0.0000  Tot=              1.3235
 Quadrupole moment (field-independent basis, Debye-Ang):
   XX=             -6.5613   YY=             -6.4373   ZZ=             -6.4373
   XY=             -0.0000   XZ=             -0.0000   YZ=              0.0000

  Exact polarizability:       3.767      -0.000       2.424      -0.000      -0.000       2.424
 Approx polarizability:       3.825       0.000       2.403      -0.000      -0.000       2.403

 ******    2 imaginary frequencies (negative Signs) ******

                      1                      2                      3
                      A                      A                      A
 Frequencies --  -9567.0552             -9567.0552                53.5209
 Red. masses --      1.0436                 1.0436                 1.0532
 Frc consts  --     56.2781                56.2781                 0.0018
 IR Inten    --    275.0936               275.0936                 0.0908

                      4
                      A
 Frequencies --  19159.1258
 Red. masses --      1.0583
 Frc consts  --    228.8836
 IR Inten    --     80.9214

 - Thermochemistry -
 -------------------
 Temperature   298.150 Kelvin.  Pressure   1.00000 Atm.
 Atom     1 has atomic number  1 and mass   1.00783

 Molecular mass:    21.01405 amu.
 Principal axes and moments of inertia in atomic units:
                           1         2         3
     Eigenvalues --     0.00000  38.73116  38.73116
           X            1.00000  -0.00000   0.00000
           Y            0.00000   1.00000   0.00000
           Z            0.00000   0.00000   1.00000
 This molecule is a prolate symmetric top.
 Rotational symmetry number  1.
 Rotational temperature (Kelvin)      2.23629
 Rotational constant (GHZ):          46.596622
    2 imaginary frequencies ignored.
 Zero-point vibrational energy     114917.1 (Joules/Mol)
                                   27.46586 (Kcal/Mol)
 Warning -- explicit consideration of   1 degrees of freedom as
           vibrations may cause significant error
 Vibrational temperatures:     77.00 27565.71
          (Kelvin)

 Zero-point correction=                           0.043770 (Hartree/Particle)
 Thermal correction to Energy=                    0.046958
 Thermal correction to Enthalpy=                  0.047902
 Thermal correction to Gibbs Free Energy=         0.022797
 Sum of electronic and zero-point Energies=           -100.225276
 Sum of electronic and thermal Energies=              -100.222088
 Sum of electronic and thermal Enthalpies=            -100.221144
 Sum of electronic and thermal Free Energies=         -100.246249

                     E (Thermal)             CV                S
                      KCal/Mol        Cal/Mol-Kelvin    Cal/Mol-Kelvin
 Total                   29.466              6.944             52.838
 Electronic               0.000              0.000              1.377
 Translational            0.889              2.981             35.068
 Rotational               0.592              1.987             11.710
 Vibrational             27.985              1.976              4.683
 Vibration     1          0.596              1.976              4.683

 Normal termination of Gaussian 16 at Fri Aug 22 15:37:30 2025.
