 Gaussian 16, Revision C.01,
 Gaussian 16:  ES64L-G16RevC.01  3-Jul-2019

 -----------------------------------------
 # sp b3lyp/6-311g** Force nosymm scf=(qc)
 -----------------------------------------

 -------------------
 Title Card Required
 -------------------
 Symbolic Z-matrix:
 Charge =  0 Multiplicity = 2

                          Input orientation:
 ---------------------------------------------------------------------
 Center     Atomic      Atomic             Coordinates (Angstroms)
 Number     Number       Type             X           Y           Z
 ---------------------------------------------------------------------
      1          1           0        0.000000    0.000000    0.000000
      2          1           0       -3.050000    0.000000    0.000000
      3          9           0        2.900000    0.000000    0.000000
 ---------------------------------------------------------------------

 SCF Done:  E(UB3LYP) =  -100.762547644     a.u. after   22 cycles

 Alpha  occ. eigenvalues --  -24.73721  -1.19806  -0.52838  -0.44369  -0.44369
 Alpha  occ. eigenvalues --   -0.32769
 Alpha virt. eigenvalues --   -0.09232   0.24498   0.35111   0.89752   0.92494
 Alpha virt. eigenvalues --    0.92494   1.04534   1.24765   1.24765   1.25485
 Alpha virt. eigenvalues --    1.42314   1.42314   1.42916   2.15361   2.38549

  Beta  occ. eigenvalues --  -24.70720  -1.11214  -0.41367  -0.41367  -0.34015
  Beta virt. eigenvalues --   -0.24568  -0.07546   0.24612   0.36850   0.93946
  Beta virt. eigenvalues --    0.93946   0.98302   1.08221   1.23338   1.23338
  Beta virt. eigenvalues --    1.24549   1.44732   1.44822   1.44822   2.15606

 Mulliken charges and spin densities:
               1          2
     1  H    0.043072  -0.944144
     2  H    0.001656   0.993536
     3  F   -0.044728   0.950608
 Sum of Mulliken charges =  -0.00000   1.00000

 Dipole moment (field-independent basis, Debye):
    X=             -0.6898    Y=             -0.0000    Z=              0.0000  Tot=              0.6898
 Quadrupole moment (field-independent basis, Debye-Ang):
   XX=             -8.4107   YY=             -7.6151   ZZ=             -7.6151
   XY=             -0.0000   XZ=              0.0000   YZ=             -0.0000

  Exact polarizability:      35.028      -0.000       2.021       0.000       0.000       2.021
 Approx polarizability:      36.097      -0.000       1.923       0.000       0.000       1.923

 ******    2 imaginary frequencies (negative Signs) ******

                      1                      2                      3
                      A                      A                      A
 Frequencies --   -463.1313              -186.5459               171.3686
 Red. masses --      1.0324                 1.0802                 1.0186
 Frc consts  --      0.1305                 0.0221                 0.0176
 IR Inten    --     43.1158                 4.3030                 1.6739

                      4
                      A
 Frequencies --    171.3686
 Red. masses --      1.0186
 Frc consts  --      0.0176
 IR Inten    --      1.6739

 - Thermochemistry -
 -------------------
 Temperature   298.150 Kelvin.  Pressure   1.00000 Atm.
 Atom     1 has atomic number  1 and mass   1.00783

 Molecular mass:    21.01405 amu.
 Principal axes and moments of inertia in atomic units:
                           1         2         3
     Eigenvalues --     0.00000 144.16256 144.16256
           X            1.00000  -0.00000   0.00000
           Y            0.00000   1.00000   0.00000
           Z            0.00000   0.00000   1.00000
 This molecule is a prolate symmetric top.
 Rotational symmetry number  1.
 Rotational temperature (Kelvin)      0.60081
 Rotational constant (GHZ):          12.518793
    2 imaginary frequencies ignored.
 Zero-point vibrational energy       2050.0 (Joules/Mol)
                                    0.48997 (Kcal/Mol)
 Warning -- explicit consideration of   2 degrees of freedom as
           vibrations may cause significant error
 Vibrational temperatures:    246.56   246.56
          (Kelvin)

 Zero-point correction=                           0.000781 (Hartree/Particle)
 Thermal correction to Energy=                    0.004355
 Thermal correction to Enthalpy=                  0.005299
 Thermal correction to Gibbs Free Energy=        -0.021122
 Sum of electronic and zero-point Energies=           -100.761767
 Sum of electronic and thermal Energies=              -100.758192
 Sum of electronic and thermal Enthalpies=            -100.757248
 Sum of electronic and thermal Free Energies=         -100.783669

                     E (Thermal)             CV                S
                      KCal/Mol        Cal/Mol-Kelvin    Cal/Mol-Kelvin
 Total                    2.733              8.723             55.608
 Electronic               0.000              0.000              1.377
 Translational            0.889              2.981             35.068
 Rotational               0.592              1.987             14.322
 Vibrational              1.252              3.755              4.841
 Vibration     1          0.626              1.878              2.420
 Vibration     2          0.626              1.878              2.420

 Normal termination of Gaussian 16 at Fri Aug 22 19:04:19 2025.
