 Gaussian 16, Revision C.01,
 Gaussian 16:  ES64L-G16RevC.01  3-Jul-2019

 -----------------------------------------
 # sp b3lyp/6-311g** Force nosymm scf=(qc)
 -----------------------------------------

 -------------------
 Title Card Required
 -------------------
 Symbolic Z-matrix:
 Charge =  0 Multiplicity = 2

                          Input orientation:
 ---------------------------------------------------------------------
 Center     Atomic      Atomic             Coordinates (Angstroms)
 Number     Number       Type             X           Y           Z
 ---------------------------------------------------------------------
      1          1           0        0.000000    0.000000    0.000000
      2          1           0       -1.650000    0.000000    0.000000
      3          9           0        2.350000    0.000000    0.000000
 ---------------------------------------------------------------------

 SCF Done:  E(UB3LYP) =  -100.808429275     a.u. after   19 cycles

 Alpha  occ. eigenvalues --  -24.71704  -1.17921  -0.50876  -0.42683  -0.42683
 Alpha  occ. eigenvalues --   -0.36103
 Alpha virt. eigenvalues --   -0.12047   0.23788   0.31177   0.87607   0.93535
 Alpha virt. eigenvalues --    0.93535   1.02844   1.17862   1.20198   1.20198
 Alpha virt. eigenvalues --    1.36132   1.36132   1.68797   2.15450   2.41266

  Beta  occ. eigenvalues --  -24.68889  -1.09919  -0.39879  -0.39879  -0.35718
  Beta virt. eigenvalues --   -0.23909  -0.11197   0.25739   0.30689   0.92833
  Beta virt. eigenvalues --    0.94856   0.94856   1.06310   1.21046   1.21046
  Beta virt. eigenvalues --    1.21841   1.36834   1.36834   1.69513   2.16412

 Mulliken charges and spin densities:
               1          2
     1  H    0.047159  -0.514906
     2  H    0.045719   0.626416
     3  F   -0.092878   0.888490
 Sum of Mulliken charges =  -0.00000   1.00000

 Dipole moment (field-independent basis, Debye):
    X=             -1.4651    Y=             -0.0000    Z=              0.0000  Tot=              1.4651
 Quadrupole moment (field-independent basis, Debye-Ang):
   XX=             -7.5949   YY=             -7.6537   ZZ=             -7.6537
   XY=             -0.0000   XZ=              0.0000   YZ=              0.0000

  Exact polarizability:      60.594      -0.000       2.038       0.000       0.000       2.038
 Approx polarizability:      81.298       0.000       1.989      -0.000      -0.000       1.989

 ******    2 imaginary frequencies (negative Signs) ******

                      1                      2                      3
                      A                      A                      A
 Frequencies --  -1995.6101              -406.7548               930.0571
 Red. masses --      1.0089                 1.1073                 1.0142
 Frc consts  --      2.3672                 0.1079                 0.5169
 IR Inten    --    362.3443                45.0342                 0.5362

                      4
                      A
 Frequencies --    930.0571
 Red. masses --      1.0142
 Frc consts  --      0.5169
 IR Inten    --      0.5362

 - Thermochemistry -
 -------------------
 Temperature   298.150 Kelvin.  Pressure   1.00000 Atm.
 Atom     1 has atomic number  1 and mass   1.00783

 Molecular mass:    21.01405 amu.
 Principal axes and moments of inertia in atomic units:
                           1         2         3
     Eigenvalues --     0.00000  70.49972  70.49972
           X            1.00000  -0.00000   0.00000
           Y            0.00000   1.00000   0.00000
           Z            0.00000   0.00000   1.00000
 This molecule is a prolate symmetric top.
 Rotational symmetry number  1.
 Rotational temperature (Kelvin)      1.22857
 Rotational constant (GHZ):          25.599268
    2 imaginary frequencies ignored.
 Zero-point vibrational energy      11126.0 (Joules/Mol)
                                    2.65917 (Kcal/Mol)
 Vibrational temperatures:   1338.14  1338.14
          (Kelvin)

 Zero-point correction=                           0.004238 (Hartree/Particle)
 Thermal correction to Energy=                    0.006694
 Thermal correction to Enthalpy=                  0.007639
 Thermal correction to Gibbs Free Energy=        -0.015925
 Sum of electronic and zero-point Energies=           -100.804192
 Sum of electronic and thermal Energies=              -100.801735
 Sum of electronic and thermal Enthalpies=            -100.800791
 Sum of electronic and thermal Free Energies=         -100.824354

                     E (Thermal)             CV                S
                      KCal/Mol        Cal/Mol-Kelvin    Cal/Mol-Kelvin
 Total                    4.201              5.889             49.594
 Electronic               0.000              0.000              1.377
 Translational            0.889              2.981             35.068
 Rotational               0.592              1.987             12.900
 Vibrational              2.720              0.921              0.248

 Normal termination of Gaussian 16 at Fri Aug 22 17:25:59 2025.
