 Gaussian 16, Revision C.01,
 Gaussian 16:  ES64L-G16RevC.01  3-Jul-2019

 -----------------------------------------
 # sp b3lyp/6-311g** Force nosymm scf=(qc)
 -----------------------------------------

 -------------------
 Title Card Required
 -------------------
 Symbolic Z-matrix:
 Charge =  0 Multiplicity = 2

                          Input orientation:
 ---------------------------------------------------------------------
 Center     Atomic      Atomic             Coordinates (Angstroms)
 Number     Number       Type             X           Y           Z
 ---------------------------------------------------------------------
      1          1           0        0.000000    0.000000    0.000000
      2          1           0       -1.650000    0.000000    0.000000
      3          9           0        2.400000    0.000000    0.000000
 ---------------------------------------------------------------------

 SCF Done:  E(UB3LYP) =  -100.807402190     a.u. after   16 cycles

 Alpha  occ. eigenvalues --  -24.72037  -1.18233  -0.51200  -0.42962  -0.42962
 Alpha  occ. eigenvalues --   -0.35917
 Alpha virt. eigenvalues --   -0.12012   0.23902   0.31129   0.88137   0.93375
 Alpha virt. eigenvalues --    0.93375   1.02913   1.16471   1.20379   1.20379
 Alpha virt. eigenvalues --    1.36255   1.36255   1.68704   2.15513   2.41509

  Beta  occ. eigenvalues --  -24.69191  -1.10134  -0.40125  -0.40125  -0.35537
  Beta virt. eigenvalues --   -0.24060  -0.11225   0.25754   0.30676   0.93706
  Beta virt. eigenvalues --    0.94724   0.94724   1.06186   1.20315   1.21128
  Beta virt. eigenvalues --    1.21128   1.36927   1.36927   1.69404   2.16492

 Mulliken charges and spin densities:
               1          2
     1  H    0.041502  -0.517816
     2  H    0.043435   0.619183
     3  F   -0.084937   0.898633
 Sum of Mulliken charges =  -0.00000   1.00000

 Dipole moment (field-independent basis, Debye):
    X=             -1.3758    Y=             -0.0000    Z=              0.0000  Tot=              1.3758
 Quadrupole moment (field-independent basis, Debye-Ang):
   XX=             -7.5193   YY=             -7.6649   ZZ=             -7.6649
   XY=             -0.0000   XZ=              0.0000   YZ=              0.0000

  Exact polarizability:      61.230      -0.000       2.035       0.000       0.000       2.035
 Approx polarizability:      81.246      -0.000       1.987       0.000      -0.000       1.987

 ******    2 imaginary frequencies (negative Signs) ******

                      1                      2                      3
                      A                      A                      A
 Frequencies --  -1993.3541              -387.6762               932.7995
 Red. masses --      1.0087                 1.1075                 1.0140
 Frc consts  --      2.3614                 0.0981                 0.5199
 IR Inten    --    347.3383                45.3679                 0.3735

                      4
                      A
 Frequencies --    932.7995
 Red. masses --      1.0140
 Frc consts  --      0.5199
 IR Inten    --      0.3735

 - Thermochemistry -
 -------------------
 Temperature   298.150 Kelvin.  Pressure   1.00000 Atm.
 Atom     1 has atomic number  1 and mass   1.00783

 Molecular mass:    21.01405 amu.
 Principal axes and moments of inertia in atomic units:
                           1         2         3
     Eigenvalues --     0.00000  72.58215  72.58215
           X            1.00000  -0.00000   0.00000
           Y            0.00000   1.00000   0.00000
           Z            0.00000   0.00000   1.00000
 This molecule is a prolate symmetric top.
 Rotational symmetry number  1.
 Rotational temperature (Kelvin)      1.19332
 Rotational constant (GHZ):          24.864809
    2 imaginary frequencies ignored.
 Zero-point vibrational energy      11158.8 (Joules/Mol)
                                    2.66701 (Kcal/Mol)
 Vibrational temperatures:   1342.09  1342.09
          (Kelvin)

 Zero-point correction=                           0.004250 (Hartree/Particle)
 Thermal correction to Energy=                    0.006706
 Thermal correction to Enthalpy=                  0.007650
 Thermal correction to Gibbs Free Energy=        -0.015940
 Sum of electronic and zero-point Energies=           -100.803152
 Sum of electronic and thermal Energies=              -100.800696
 Sum of electronic and thermal Enthalpies=            -100.799752
 Sum of electronic and thermal Free Energies=         -100.823342

                     E (Thermal)             CV                S
                      KCal/Mol        Cal/Mol-Kelvin    Cal/Mol-Kelvin
 Total                    4.208              5.882             49.649
 Electronic               0.000              0.000              1.377
 Translational            0.889              2.981             35.068
 Rotational               0.592              1.987             12.958
 Vibrational              2.727              0.914              0.245

 Normal termination of Gaussian 16 at Fri Aug 22 17:31:48 2025.
