 Gaussian 16, Revision C.01,
 Gaussian 16:  ES64L-G16RevC.01  3-Jul-2019

 -----------------------------------------
 # sp b3lyp/6-311g** Force nosymm scf=(qc)
 -----------------------------------------

 -------------------
 Title Card Required
 -------------------
 Symbolic Z-matrix:
 Charge =  0 Multiplicity = 2

                          Input orientation:
 ---------------------------------------------------------------------
 Center     Atomic      Atomic             Coordinates (Angstroms)
 Number     Number       Type             X           Y           Z
 ---------------------------------------------------------------------
      1          1           0        0.000000    0.000000    0.000000
      2          1           0       -1.450000    0.000000    0.000000
      3          9           0        2.200000    0.000000    0.000000
 ---------------------------------------------------------------------

 SCF Done:  E(UB3LYP) =  -100.835624840     a.u. after   14 cycles

 Alpha  occ. eigenvalues --  -24.71802  -1.18041  -0.51127  -0.42798  -0.42798
 Alpha  occ. eigenvalues --   -0.37215
 Alpha virt. eigenvalues --   -0.09979   0.22883   0.31698   0.86487   0.93201
 Alpha virt. eigenvalues --    0.93201   1.03438   1.16083   1.16083   1.23276
 Alpha virt. eigenvalues --    1.40779   1.40779   1.84328   2.21206   2.46967

  Beta  occ. eigenvalues --  -24.69005  -1.10104  -0.40016  -0.40016  -0.36634
  Beta virt. eigenvalues --   -0.24365  -0.08716   0.24305   0.31758   0.91846
  Beta virt. eigenvalues --    0.94477   0.94477   1.06962   1.17254   1.17254
  Beta virt. eigenvalues --    1.27112   1.41534   1.41534   1.85471   2.22344

 Mulliken charges and spin densities:
               1          2
     1  H    0.044309  -0.285264
     2  H    0.051829   0.404331
     3  F   -0.096138   0.880933
 Sum of Mulliken charges =  -0.00000   1.00000

 Dipole moment (field-independent basis, Debye):
    X=             -1.4163    Y=             -0.0000    Z=             -0.0000  Tot=              1.4163
 Quadrupole moment (field-independent basis, Debye-Ang):
   XX=             -7.2286   YY=             -7.5789   ZZ=             -7.5789
   XY=             -0.0000   XZ=             -0.0000   YZ=             -0.0000

  Exact polarizability:      54.362      -0.000       2.091      -0.000       0.000       2.091
 Approx polarizability:      81.117       0.000       2.062       0.000      -0.000       2.062

 ******    2 imaginary frequencies (negative Signs) ******

                      1                      2                      3
                      A                      A                      A
 Frequencies --  -2032.6115              -377.4939              1167.6329
 Red. masses --      1.0101                 1.1058                 1.0137
 Frc consts  --      2.4587                 0.0928                 0.8143
 IR Inten    --    897.9406                22.5093                 0.2313

                      4
                      A
 Frequencies --   1167.6329
 Red. masses --      1.0137
 Frc consts  --      0.8143
 IR Inten    --      0.2313

 - Thermochemistry -
 -------------------
 Temperature   298.150 Kelvin.  Pressure   1.00000 Atm.
 Atom     1 has atomic number  1 and mass   1.00783

 Molecular mass:    21.01405 amu.
 Principal axes and moments of inertia in atomic units:
                           1         2         3
     Eigenvalues --     0.00000  59.45995  59.45995
           X            1.00000  -0.00000   0.00000
           Y            0.00000   1.00000   0.00000
           Z            0.00000   0.00000   1.00000
 This molecule is a prolate symmetric top.
 Rotational symmetry number  1.
 Rotational temperature (Kelvin)      1.45668
 Rotational constant (GHZ):          30.352214
    2 imaginary frequencies ignored.
 Zero-point vibrational energy      13968.0 (Joules/Mol)
                                    3.33843 (Kcal/Mol)
 Vibrational temperatures:   1679.96  1679.96
          (Kelvin)

 Zero-point correction=                           0.005320 (Hartree/Particle)
 Thermal correction to Energy=                    0.007719
 Thermal correction to Enthalpy=                  0.008663
 Thermal correction to Gibbs Free Energy=        -0.014667
 Sum of electronic and zero-point Energies=           -100.830305
 Sum of electronic and thermal Energies=              -100.827906
 Sum of electronic and thermal Enthalpies=            -100.826962
 Sum of electronic and thermal Free Energies=         -100.850292

                     E (Thermal)             CV                S
                      KCal/Mol        Cal/Mol-Kelvin    Cal/Mol-Kelvin
 Total                    4.844              5.422             49.102
 Electronic               0.000              0.000              1.377
 Translational            0.889              2.981             35.068
 Rotational               0.592              1.987             12.562
 Vibrational              3.362              0.454              0.095

 Normal termination of Gaussian 16 at Fri Aug 22 17:11:08 2025.
