 Gaussian 16, Revision C.01,
 Gaussian 16:  ES64L-G16RevC.01  3-Jul-2019

 -----------------------------------------
 # sp b3lyp/6-311g** Force nosymm scf=(qc)
 -----------------------------------------

 -------------------
 Title Card Required
 -------------------
 Symbolic Z-matrix:
 Charge =  0 Multiplicity = 2

                          Input orientation:
 ---------------------------------------------------------------------
 Center     Atomic      Atomic             Coordinates (Angstroms)
 Number     Number       Type             X           Y           Z
 ---------------------------------------------------------------------
      1          1           0        0.000000    0.000000    0.000000
      2          1           0       -1.700000    0.000000    0.000000
      3          9           0        1.900000    0.000000    0.000000
 ---------------------------------------------------------------------

 SCF Done:  E(UB3LYP) =  -100.822220958     a.u. after   14 cycles

 Alpha  occ. eigenvalues --  -24.67866  -1.14242  -0.47260  -0.39466  -0.39466
 Alpha  occ. eigenvalues --   -0.37737
 Alpha virt. eigenvalues --   -0.12088   0.22794   0.30345   0.86047   0.94618
 Alpha virt. eigenvalues --    0.94618   1.03306   1.19164   1.19164   1.30495
 Alpha virt. eigenvalues --    1.35173   1.35173   1.73007   2.15155   2.37068

  Beta  occ. eigenvalues --  -24.65552  -1.07794  -0.37918  -0.37190  -0.37190
  Beta virt. eigenvalues --   -0.22179  -0.10323   0.25462   0.30216   0.89117
  Beta virt. eigenvalues --    0.95244   0.95244   1.07452   1.22328   1.22328
  Beta virt. eigenvalues --    1.35812   1.35812   1.36638   1.73872   2.15896

 Mulliken charges and spin densities:
               1          2
     1  H    0.137248  -0.478544
     2  H    0.062547   0.752517
     3  F   -0.199794   0.726027
 Sum of Mulliken charges =  -0.00000   1.00000

 Dipole moment (field-independent basis, Debye):
    X=             -2.3857    Y=              0.0000    Z=             -0.0000  Tot=              2.3857
 Quadrupole moment (field-independent basis, Debye-Ang):
   XX=             -8.2628   YY=             -7.5092   ZZ=             -7.5092
   XY=              0.0000   XZ=             -0.0000   YZ=              0.0000

  Exact polarizability:      50.619      -0.000       2.109       0.000      -0.000       2.109
 Approx polarizability:      70.141       0.000       2.034      -0.000      -0.000       2.034

 ******    2 imaginary frequencies (negative Signs) ******

                      1                      2                      3
                      A                      A                      A
 Frequencies --  -2059.4469              -592.7914               876.0440
 Red. masses --      1.0154                 1.0995                 1.0167
 Frc consts  --      2.5374                 0.2276                 0.4597
 IR Inten    --    353.9937                19.1690                 8.5299

                      4
                      A
 Frequencies --    876.0440
 Red. masses --      1.0167
 Frc consts  --      0.4597
 IR Inten    --      8.5299

 - Thermochemistry -
 -------------------
 Temperature   298.150 Kelvin.  Pressure   1.00000 Atm.
 Atom     1 has atomic number  1 and mass   1.00783

 Molecular mass:    21.01405 amu.
 Principal axes and moments of inertia in atomic units:
                           1         2         3
     Eigenvalues --     0.00000  54.41421  54.41421
           X            1.00000  -0.00000   0.00000
           Y            0.00000   1.00000   0.00000
           Z            0.00000   0.00000   1.00000
 This molecule is a prolate symmetric top.
 Rotational symmetry number  1.
 Rotational temperature (Kelvin)      1.59175
 Rotational constant (GHZ):          33.166725
    2 imaginary frequencies ignored.
 Zero-point vibrational energy      10479.8 (Joules/Mol)
                                    2.50474 (Kcal/Mol)
 Vibrational temperatures:   1260.43  1260.43
          (Kelvin)

 Zero-point correction=                           0.003992 (Hartree/Particle)
 Thermal correction to Energy=                    0.006470
 Thermal correction to Enthalpy=                  0.007414
 Thermal correction to Gibbs Free Energy=        -0.015933
 Sum of electronic and zero-point Energies=           -100.818229
 Sum of electronic and thermal Energies=              -100.815751
 Sum of electronic and thermal Enthalpies=            -100.814807
 Sum of electronic and thermal Free Energies=         -100.838154

                     E (Thermal)             CV                S
                      KCal/Mol        Cal/Mol-Kelvin    Cal/Mol-Kelvin
 Total                    4.060              6.035             49.138
 Electronic               0.000              0.000              1.377
 Translational            0.889              2.981             35.068
 Rotational               0.592              1.987             12.386
 Vibrational              2.579              1.067              0.307

 Normal termination of Gaussian 16 at Fri Aug 22 16:49:45 2025.
