 Gaussian 16, Revision C.01,
 Gaussian 16:  ES64L-G16RevC.01  3-Jul-2019

 -----------------------------------------
 # sp b3lyp/6-311g** Force nosymm scf=(qc)
 -----------------------------------------

 -------------------
 Title Card Required
 -------------------
 Symbolic Z-matrix:
 Charge =  0 Multiplicity = 2

                          Input orientation:
 ---------------------------------------------------------------------
 Center     Atomic      Atomic             Coordinates (Angstroms)
 Number     Number       Type             X           Y           Z
 ---------------------------------------------------------------------
      1          1           0        0.000000    0.000000    0.000000
      2          1           0       -1.350000    0.000000    0.000000
      3          9           0        2.100000    0.000000    0.000000
 ---------------------------------------------------------------------

 SCF Done:  E(UB3LYP) =  -100.852482072     a.u. after   11 cycles

 Alpha  occ. eigenvalues --  -24.71802  -1.18066  -0.51282  -0.42822  -0.42822
 Alpha  occ. eigenvalues --   -0.38017
 Alpha virt. eigenvalues --   -0.08113   0.22380   0.32356   0.86848   0.92905
 Alpha virt. eigenvalues --    0.92905   1.04314   1.13624   1.13624   1.28926
 Alpha virt. eigenvalues --    1.44536   1.44536   1.93299   2.24294   2.49967

  Beta  occ. eigenvalues --  -24.69023  -1.10192  -0.40060  -0.40060  -0.37495
  Beta virt. eigenvalues --   -0.24537  -0.06606   0.23610   0.32637   0.92530
  Beta virt. eigenvalues --    0.94144   0.94144   1.07724   1.14920   1.14920
  Beta virt. eigenvalues --    1.32569   1.45389   1.45389   1.94709   2.25490

 Mulliken charges and spin densities:
               1          2
     1  H    0.046539  -0.200156
     2  H    0.053458   0.326364
     3  F   -0.099996   0.873791
 Sum of Mulliken charges =  -0.00000   1.00000

 Dipole moment (field-independent basis, Debye):
    X=             -1.3846    Y=             -0.0000    Z=              0.0000  Tot=              1.3846
 Quadrupole moment (field-independent basis, Debye-Ang):
   XX=             -7.1106   YY=             -7.5041   ZZ=             -7.5041
   XY=             -0.0000   XZ=              0.0000   YZ=              0.0000

  Exact polarizability:      49.338      -0.000       2.129       0.000      -0.000       2.129
 Approx polarizability:      74.154       0.000       2.108      -0.000      -0.000       2.108

 ******    2 imaginary frequencies (negative Signs) ******

                      1                      2                      3
                      A                      A                      A
 Frequencies --  -1864.4934              -344.7098              1261.7542
 Red. masses --      1.0118                 1.1037                 1.0135
 Frc consts  --      2.0724                 0.0773                 0.9506
 IR Inten    --   1057.7808                 9.3354                 0.2023

                      4
                      A
 Frequencies --   1261.7542
 Red. masses --      1.0135
 Frc consts  --      0.9506
 IR Inten    --      0.2023

 - Thermochemistry -
 -------------------
 Temperature   298.150 Kelvin.  Pressure   1.00000 Atm.
 Atom     1 has atomic number  1 and mass   1.00783

 Molecular mass:    21.01405 amu.
 Principal axes and moments of inertia in atomic units:
                           1         2         3
     Eigenvalues --     0.00000  53.39210  53.39210
           X            1.00000  -0.00000   0.00000
           Y            0.00000   1.00000   0.00000
           Z            0.00000   0.00000   1.00000
 This molecule is a prolate symmetric top.
 Rotational symmetry number  1.
 Rotational temperature (Kelvin)      1.62222
 Rotational constant (GHZ):          33.801651
    2 imaginary frequencies ignored.
 Zero-point vibrational energy      15093.9 (Joules/Mol)
                                    3.60754 (Kcal/Mol)
 Vibrational temperatures:   1815.38  1815.38
          (Kelvin)

 Zero-point correction=                           0.005749 (Hartree/Particle)
 Thermal correction to Energy=                    0.008136
 Thermal correction to Enthalpy=                  0.009080
 Thermal correction to Gibbs Free Energy=        -0.014134
 Sum of electronic and zero-point Energies=           -100.846733
 Sum of electronic and thermal Energies=              -100.844346
 Sum of electronic and thermal Enthalpies=            -100.843402
 Sum of electronic and thermal Free Energies=         -100.866616

                     E (Thermal)             CV                S
                      KCal/Mol        Cal/Mol-Kelvin    Cal/Mol-Kelvin
 Total                    5.105              5.304             48.858
 Electronic               0.000              0.000              1.377
 Translational            0.889              2.981             35.068
 Rotational               0.592              1.987             12.348
 Vibrational              3.624              0.336              0.064

 Normal termination of Gaussian 16 at Fri Aug 22 17:03:14 2025.
