 Gaussian 16, Revision C.01,
 Gaussian 16:  ES64L-G16RevC.01  3-Jul-2019

 -----------------------------------------
 # sp b3lyp/6-311g** Force nosymm scf=(qc)
 -----------------------------------------

 -------------------
 Title Card Required
 -------------------
 Symbolic Z-matrix:
 Charge =  0 Multiplicity = 2

                          Input orientation:
 ---------------------------------------------------------------------
 Center     Atomic      Atomic             Coordinates (Angstroms)
 Number     Number       Type             X           Y           Z
 ---------------------------------------------------------------------
      1          1           0        0.000000    0.000000    0.000000
      2          1           0       -3.550000    0.000000    0.000000
      3          9           0        2.700000    0.000000    0.000000
 ---------------------------------------------------------------------

 SCF Done:  E(UB3LYP) =  -100.763999311     a.u. after   22 cycles

 Alpha  occ. eigenvalues --  -24.72811  -1.18960  -0.51924  -0.43608  -0.43608
 Alpha  occ. eigenvalues --   -0.32721
 Alpha virt. eigenvalues --   -0.09256   0.23715   0.35737   0.89955   0.93024
 Alpha virt. eigenvalues --    0.93024   1.05589   1.24786   1.24786   1.24924
 Alpha virt. eigenvalues --    1.42284   1.42284   1.43794   2.14569   2.38363

  Beta  occ. eigenvalues --  -24.69878  -1.10584  -0.40678  -0.40678  -0.34609
  Beta virt. eigenvalues --   -0.24019  -0.06584   0.23955   0.37928   0.94447
  Beta virt. eigenvalues --    0.94447   0.97764   1.08666   1.22721   1.22721
  Beta virt. eigenvalues --    1.25575   1.45854   1.46119   1.46119   2.13819

 Mulliken charges and spin densities:
               1          2
     1  H    0.064198  -0.926314
     2  H    0.000607   0.998184
     3  F   -0.064805   0.928130
 Sum of Mulliken charges =  -0.00000   1.00000

 Dipole moment (field-independent basis, Debye):
    X=             -0.9055    Y=             -0.0000    Z=             -0.0000  Tot=              0.9055
 Quadrupole moment (field-independent basis, Debye-Ang):
   XX=             -8.9235   YY=             -7.5902   ZZ=             -7.5902
   XY=             -0.0000   XZ=             -0.0000   YZ=              0.0000

  Exact polarizability:      31.901       0.000       2.024      -0.000      -0.000       2.024
 Approx polarizability:      37.387      -0.000       1.922      -0.000       0.000       1.922

 ******    2 imaginary frequencies (negative Signs) ******

                      1                      2                      3
                      A                      A                      A
 Frequencies --   -504.7970              -113.7869               187.9888
 Red. masses --      1.0526                 1.0589                 1.0216
 Frc consts  --      0.1580                 0.0081                 0.0213
 IR Inten    --     62.9376                 0.3099                 3.9318

                      4
                      A
 Frequencies --    187.9888
 Red. masses --      1.0216
 Frc consts  --      0.0213
 IR Inten    --      3.9318

 - Thermochemistry -
 -------------------
 Temperature   298.150 Kelvin.  Pressure   1.00000 Atm.
 Atom     1 has atomic number  1 and mass   1.00783

 Molecular mass:    21.01405 amu.
 Principal axes and moments of inertia in atomic units:
                           1         2         3
     Eigenvalues --     0.00000 152.99680 152.99680
           X            1.00000  -0.00000   0.00000
           Y            0.00000   1.00000   0.00000
           Z            0.00000   0.00000   1.00000
 This molecule is a prolate symmetric top.
 Rotational symmetry number  1.
 Rotational temperature (Kelvin)      0.56612
 Rotational constant (GHZ):          11.795941
    2 imaginary frequencies ignored.
 Zero-point vibrational energy       2248.8 (Joules/Mol)
                                    0.53749 (Kcal/Mol)
 Warning -- explicit consideration of   2 degrees of freedom as
           vibrations may cause significant error
 Vibrational temperatures:    270.47   270.47
          (Kelvin)

 Zero-point correction=                           0.000857 (Hartree/Particle)
 Thermal correction to Energy=                    0.004377
 Thermal correction to Enthalpy=                  0.005321
 Thermal correction to Gibbs Free Energy=        -0.020992
 Sum of electronic and zero-point Energies=           -100.763143
 Sum of electronic and thermal Energies=              -100.759623
 Sum of electronic and thermal Enthalpies=            -100.758679
 Sum of electronic and thermal Free Energies=         -100.784992

                     E (Thermal)             CV                S
                      KCal/Mol        Cal/Mol-Kelvin    Cal/Mol-Kelvin
 Total                    2.746              8.681             55.381
 Electronic               0.000              0.000              1.377
 Translational            0.889              2.981             35.068
 Rotational               0.592              1.987             14.440
 Vibrational              1.265              3.713              4.495
 Vibration     1          0.633              1.856              2.248
 Vibration     2          0.633              1.856              2.248

 Normal termination of Gaussian 16 at Fri Aug 22 18:26:57 2025.
