 Gaussian 16, Revision C.01,
 Gaussian 16:  ES64L-G16RevC.01  3-Jul-2019

 -----------------------------------------
 # sp b3lyp/6-311g** Force nosymm scf=(qc)
 -----------------------------------------

 -------------------
 Title Card Required
 -------------------
 Symbolic Z-matrix:
 Charge =  0 Multiplicity = 2

                          Input orientation:
 ---------------------------------------------------------------------
 Center     Atomic      Atomic             Coordinates (Angstroms)
 Number     Number       Type             X           Y           Z
 ---------------------------------------------------------------------
      1          1           0        0.000000    0.000000    0.000000
      2          1           0       -2.250000    0.000000    0.000000
      3          9           0        1.150000    0.000000    0.000000
 ---------------------------------------------------------------------

 SCF Done:  E(UB3LYP) =  -100.938469939     a.u. after    6 cycles

 Alpha  occ. eigenvalues --  -24.63989  -1.12762  -0.48614  -0.37520  -0.37520
 Alpha  occ. eigenvalues --   -0.35829
 Alpha virt. eigenvalues --   -0.02407   0.24553   0.29544   0.93620   0.93620
 Alpha virt. eigenvalues --    1.00262   1.17368   1.21667   1.21667   1.35269
 Alpha virt. eigenvalues --    1.35269   1.39551   1.76049   2.12523   2.31764

  Beta  occ. eigenvalues --  -24.63918  -1.12584  -0.48273  -0.37456  -0.37456
  Beta virt. eigenvalues --   -0.12415   0.00245   0.29501   0.35639   0.93620
  Beta virt. eigenvalues --    0.93620   1.00480   1.25818   1.35055   1.35055
  Beta virt. eigenvalues --    1.42067   1.42067   1.50546   1.76157   2.29523

 Mulliken charges and spin densities:
               1          2
     1  H    0.336558  -0.000426
     2  H    0.015285   0.979284
     3  F   -0.351844   0.021143
 Sum of Mulliken charges =  -0.00000   1.00000

 Dipole moment (field-independent basis, Debye):
    X=             -2.4068    Y=              0.0000    Z=              0.0000  Tot=              2.4068
 Quadrupole moment (field-independent basis, Debye-Ang):
   XX=             -8.2716   YY=             -7.0718   ZZ=             -7.0718
   XY=              0.0000   XZ=              0.0000   YZ=              0.0000

  Exact polarizability:      12.835       0.000       2.383      -0.000      -0.000       2.383
 Approx polarizability:      15.598       0.000       2.348      -0.000      -0.000       2.348

 ******    1 imaginary frequencies (negative Signs) ******

                      1                      2                      3
                      A                      A                      A
 Frequencies --   -203.5362              1173.2721              1173.2721
 Red. masses --      1.0475                 1.0277                 1.0277
 Frc consts  --      0.0256                 0.8335                 0.8335
 IR Inten    --      7.1456               127.6028               127.6028

                      4
                      A
 Frequencies --   1387.5208
 Red. masses --      1.0642
 Frc consts  --      1.2071
 IR Inten    --    155.3025

 - Thermochemistry -
 -------------------
 Temperature   298.150 Kelvin.  Pressure   1.00000 Atm.
 Atom     1 has atomic number  1 and mass   1.00783

 Molecular mass:    21.01405 amu.
 Principal axes and moments of inertia in atomic units:
                           1         2         3
     Eigenvalues --     0.00000  42.79083  42.79083
           X            1.00000  -0.00000   0.00000
           Y            0.00000   1.00000   0.00000
           Z            0.00000   0.00000   1.00000
 This molecule is a prolate symmetric top.
 Rotational symmetry number  1.
 Rotational temperature (Kelvin)      2.02412
 Rotational constant (GHZ):          42.175884
    1 imaginary frequencies ignored.
 Zero-point vibrational energy      22334.7 (Joules/Mol)
                                    5.33811 (Kcal/Mol)
 Vibrational temperatures:   1688.08  1688.08  1996.33
          (Kelvin)

 Zero-point correction=                           0.008507 (Hartree/Particle)
 Thermal correction to Energy=                    0.010912
 Thermal correction to Enthalpy=                  0.011857
 Thermal correction to Gibbs Free Energy=        -0.011171
 Sum of electronic and zero-point Energies=           -100.929963
 Sum of electronic and thermal Energies=              -100.927558
 Sum of electronic and thermal Enthalpies=            -100.926613
 Sum of electronic and thermal Free Energies=         -100.949641

                     E (Thermal)             CV                S
                      KCal/Mol        Cal/Mol-Kelvin    Cal/Mol-Kelvin
 Total                    6.848              5.524             48.465
 Electronic               0.000              0.000              1.377
 Translational            0.889              2.981             35.068
 Rotational               0.592              1.987             11.908
 Vibrational              5.366              0.556              0.111

 Normal termination of Gaussian 16 at Fri Aug 22 16:07:54 2025.
