 Gaussian 16, Revision C.01,
 Gaussian 16:  ES64L-G16RevC.01  3-Jul-2019

 -----------------------------------------
 # sp b3lyp/6-311g** Force nosymm scf=(qc)
 -----------------------------------------

 -------------------
 Title Card Required
 -------------------
 Symbolic Z-matrix:
 Charge =  0 Multiplicity = 2

                          Input orientation:
 ---------------------------------------------------------------------
 Center     Atomic      Atomic             Coordinates (Angstroms)
 Number     Number       Type             X           Y           Z
 ---------------------------------------------------------------------
      1          1           0        0.000000    0.000000    0.000000
      2          1           0       -0.750000    0.000000    0.000000
      3          9           0        1.200000    0.000000    0.000000
 ---------------------------------------------------------------------

 SCF Done:  E(UB3LYP) =  -100.940381805     a.u. after    6 cycles

 Alpha  occ. eigenvalues --  -24.67989  -1.17341  -0.59672  -0.41029  -0.41029
 Alpha  occ. eigenvalues --   -0.38686
 Alpha virt. eigenvalues --    0.11401   0.18980   0.47896   0.87813   0.87813
 Alpha virt. eigenvalues --    0.96468   1.09387   1.09387   1.44841   1.64709
 Alpha virt. eigenvalues --    1.78229   1.78229   2.02161   2.36634   3.22792

  Beta  occ. eigenvalues --  -24.65945  -1.12034  -0.51386  -0.39119  -0.39119
  Beta virt. eigenvalues --   -0.20712   0.13162   0.20116   0.52183   0.89306
  Beta virt. eigenvalues --    0.89306   1.00839   1.13031   1.13031   1.47950
  Beta virt. eigenvalues --    1.70226   1.81062   1.81062   2.02846   2.42843

 Mulliken charges and spin densities:
               1          2
     1  H    0.243637  -0.033306
     2  H   -0.006023   0.457535
     3  F   -0.237613   0.575772
 Sum of Mulliken charges =   0.00000   1.00000

 Dipole moment (field-independent basis, Debye):
    X=             -1.5703    Y=             -0.0000    Z=             -0.0000  Tot=              1.5703
 Quadrupole moment (field-independent basis, Debye-Ang):
   XX=             -7.3223   YY=             -6.6443   ZZ=             -6.6443
   XY=              0.0000   XZ=             -0.0000   YZ=             -0.0000

  Exact polarizability:      17.146       0.000       2.467       0.000      -0.000       2.467
 Approx polarizability:      22.163       0.000       2.504       0.000      -0.000       2.504

 ******    2 imaginary frequencies (negative Signs) ******

                      1                      2                      3
                      A                      A                      A
 Frequencies --  -1366.5224             -1366.5224               554.6654
 Red. masses --      1.0133                 1.0133                 1.1049
 Frc consts  --      1.1148                 1.1148                 0.2003
 IR Inten    --     10.8073                10.8073                56.0244

                      4
                      A
 Frequencies --   3634.2476
 Red. masses --      1.0108
 Frc consts  --      7.8659
 IR Inten    --    455.9595

 - Thermochemistry -
 -------------------
 Temperature   298.150 Kelvin.  Pressure   1.00000 Atm.
 Atom     1 has atomic number  1 and mass   1.00783

 Molecular mass:    21.01405 amu.
 Principal axes and moments of inertia in atomic units:
                           1         2         3
     Eigenvalues --     0.00000  17.15511  17.15511
           X            1.00000  -0.00000   0.00000
           Y            0.00000   1.00000   0.00000
           Z            0.00000   0.00000   1.00000
 This molecule is a prolate symmetric top.
 Rotational symmetry number  1.
 Rotational temperature (Kelvin)      5.04887
 Rotational constant (GHZ):         105.201377
    2 imaginary frequencies ignored.
 Zero-point vibrational energy      25055.3 (Joules/Mol)
                                    5.98835 (Kcal/Mol)
 Warning -- explicit consideration of   1 degrees of freedom as
           vibrations may cause significant error
 Vibrational temperatures:    798.04  5228.87
          (Kelvin)

 Zero-point correction=                           0.009543 (Hartree/Particle)
 Thermal correction to Energy=                    0.012090
 Thermal correction to Enthalpy=                  0.013034
 Thermal correction to Gibbs Free Energy=        -0.009331
 Sum of electronic and zero-point Energies=           -100.930839
 Sum of electronic and thermal Energies=              -100.928292
 Sum of electronic and thermal Enthalpies=            -100.927347
 Sum of electronic and thermal Free Energies=         -100.949713

                     E (Thermal)             CV                S
                      KCal/Mol        Cal/Mol-Kelvin    Cal/Mol-Kelvin
 Total                    7.587              6.098             47.072
 Electronic               0.000              0.000              1.377
 Translational            0.889              2.981             35.068
 Rotational               0.592              1.987             10.092
 Vibrational              6.106              1.130              0.535
 Vibration     1          0.910              1.129              0.535

 Normal termination of Gaussian 16 at Fri Aug 22 16:09:15 2025.
