 Gaussian 16, Revision C.01,
 Gaussian 16:  ES64L-G16RevC.01  3-Jul-2019

 -----------------------------------------
 # sp b3lyp/6-311g** Force nosymm scf=(qc)
 -----------------------------------------

 -------------------
 Title Card Required
 -------------------
 Symbolic Z-matrix:
 Charge =  0 Multiplicity = 2

                          Input orientation:
 ---------------------------------------------------------------------
 Center     Atomic      Atomic             Coordinates (Angstroms)
 Number     Number       Type             X           Y           Z
 ---------------------------------------------------------------------
      1          1           0        0.000000    0.000000    0.000000
      2          1           0       -2.700000    0.000000    0.000000
      3          9           0        0.750000    0.000000    0.000000
 ---------------------------------------------------------------------

 SCF Done:  E(UB3LYP) =  -100.922114205     a.u. after    6 cycles

 Alpha  occ. eigenvalues --  -24.63416  -1.25435  -0.57366  -0.41154  -0.41154
 Alpha  occ. eigenvalues --   -0.34268
 Alpha virt. eigenvalues --    0.06705   0.25516   0.49230   0.93961   0.93961
 Alpha virt. eigenvalues --    0.96464   1.20160   1.23273   1.23273   1.38108
 Alpha virt. eigenvalues --    1.41747   1.41747   2.00800   2.14395   2.67766

  Beta  occ. eigenvalues --  -24.63410  -1.25418  -0.57345  -0.41150  -0.41150
  Beta virt. eigenvalues --   -0.07672   0.08019   0.38328   0.49429   0.93960
  Beta virt. eigenvalues --    0.93960   0.96506   1.30029   1.41742   1.41742
  Beta virt. eigenvalues --    1.47765   1.47765   1.52944   2.00646   2.43219

 Mulliken charges and spin densities:
               1          2
     1  H    0.264890   0.002435
     2  H    0.003427   0.995092
     3  F   -0.268317   0.002473
 Sum of Mulliken charges =   0.00000   1.00000

 Dipole moment (field-independent basis, Debye):
    X=             -1.7040    Y=              0.0000    Z=             -0.0000  Tot=              1.7040
 Quadrupole moment (field-independent basis, Debye-Ang):
   XX=             -7.3074   YY=             -6.7134   ZZ=             -6.7134
   XY=              0.0000   XZ=             -0.0000   YZ=              0.0000

  Exact polarizability:       5.466       0.000       2.466      -0.000      -0.000       2.466
 Approx polarizability:       5.745      -0.000       2.450      -0.000      -0.000       2.450

 ******    2 imaginary frequencies (negative Signs) ******

                      1                      2                      3
                      A                      A                      A
 Frequencies --  -2687.2335             -2687.2335                41.8760
 Red. masses --      1.0374                 1.0374                 1.0532
 Frc consts  --      4.4137                 4.4137                 0.0011
 IR Inten    --    194.7141               194.7141                 0.2159

                      4
                      A
 Frequencies --   7585.6915
 Red. masses --      1.0583
 Frc consts  --     35.8805
 IR Inten    --    119.1559

 - Thermochemistry -
 -------------------
 Temperature   298.150 Kelvin.  Pressure   1.00000 Atm.
 Atom     1 has atomic number  1 and mass   1.00783

 Molecular mass:    21.01405 amu.
 Principal axes and moments of inertia in atomic units:
                           1         2         3
     Eigenvalues --     0.00000  41.81686  41.81686
           X            1.00000  -0.00000   0.00000
           Y            0.00000   1.00000   0.00000
           Z            0.00000   0.00000   1.00000
 This molecule is a prolate symmetric top.
 Rotational symmetry number  1.
 Rotational temperature (Kelvin)      2.07127
 Rotational constant (GHZ):          43.158224
    2 imaginary frequencies ignored.
 Zero-point vibrational energy      45623.0 (Joules/Mol)
                                   10.90416 (Kcal/Mol)
 Warning -- explicit consideration of   1 degrees of freedom as
           vibrations may cause significant error
 Vibrational temperatures:     60.25 10914.12
          (Kelvin)

 Zero-point correction=                           0.017377 (Hartree/Particle)
 Thermal correction to Energy=                    0.020589
 Thermal correction to Enthalpy=                  0.021534
 Thermal correction to Gibbs Free Energy=        -0.003875
 Sum of electronic and zero-point Energies=           -100.904737
 Sum of electronic and thermal Energies=              -100.901525
 Sum of electronic and thermal Enthalpies=            -100.900581
 Sum of electronic and thermal Free Energies=         -100.925989

                     E (Thermal)             CV                S
                      KCal/Mol        Cal/Mol-Kelvin    Cal/Mol-Kelvin
 Total                   12.920              6.948             53.476
 Electronic               0.000              0.000              1.377
 Translational            0.889              2.981             35.068
 Rotational               0.592              1.987             11.862
 Vibrational             11.439              1.980              5.168
 Vibration     1          0.594              1.980              5.168

 Normal termination of Gaussian 16 at Fri Aug 22 15:49:13 2025.
