 Gaussian 16, Revision C.01,
 Gaussian 16:  ES64L-G16RevC.01  3-Jul-2019

 -----------------------------------------
 # sp b3lyp/6-311g** Force nosymm scf=(qc)
 -----------------------------------------

 -------------------
 Title Card Required
 -------------------
 Symbolic Z-matrix:
 Charge =  0 Multiplicity = 2

                          Input orientation:
 ---------------------------------------------------------------------
 Center     Atomic      Atomic             Coordinates (Angstroms)
 Number     Number       Type             X           Y           Z
 ---------------------------------------------------------------------
      1          1           0        0.000000    0.000000    0.000000
      2          1           0       -0.950000    0.000000    0.000000
      3          9           0        0.550000    0.000000    0.000000
 ---------------------------------------------------------------------

 SCF Done:  E(UB3LYP) =  -100.456626784     a.u. after    7 cycles

 Alpha  occ. eigenvalues --  -24.65508  -1.43216  -0.67437  -0.46394  -0.46394
 Alpha  occ. eigenvalues --   -0.32673
 Alpha virt. eigenvalues --    0.16566   0.20361   0.82842   0.86443   0.86443
 Alpha virt. eigenvalues --    0.89237   1.10701   1.10701   1.50277   1.71410
 Alpha virt. eigenvalues --    1.80761   1.80761   2.29085   2.47711   3.74582

  Beta  occ. eigenvalues --  -24.65124  -1.41884  -0.65700  -0.46097  -0.46097
  Beta virt. eigenvalues --   -0.11080   0.17283   0.27553   0.85832   0.87696
  Beta virt. eigenvalues --    0.87696   0.92656   1.18862   1.18862   1.50976
  Beta virt. eigenvalues --    1.77688   1.86437   1.86437   2.42624   2.59266

 Mulliken charges and spin densities:
               1          2
     1  H    0.231080  -0.013506
     2  H   -0.056436   0.984439
     3  F   -0.174644   0.029067
 Sum of Mulliken charges =   0.00000   1.00000

 Dipole moment (field-independent basis, Debye):
    X=             -0.8248    Y=              0.0000    Z=              0.0000  Tot=              0.8248
 Quadrupole moment (field-independent basis, Debye-Ang):
   XX=             -7.2410   YY=             -6.3750   ZZ=             -6.3750
   XY=              0.0000   XZ=              0.0000   YZ=              0.0000

  Exact polarizability:       6.466      -0.000       2.484      -0.000      -0.000       2.484
 Approx polarizability:       6.162       0.000       2.553      -0.000      -0.000       2.553

 ******    2 imaginary frequencies (negative Signs) ******

                      1                      2                      3
                      A                      A                      A
 Frequencies --  -7291.0383             -7291.0383              2497.0754
 Red. masses --      1.0257                 1.0257                 1.0546
 Frc consts  --     32.1257                32.1257                 3.8745
 IR Inten    --    165.4656               165.4656               131.8286

                      4
                      A
 Frequencies --  15804.3715
 Red. masses --      1.0569
 Frc consts  --    155.5414
 IR Inten    --     32.0071

 - Thermochemistry -
 -------------------
 Temperature   298.150 Kelvin.  Pressure   1.00000 Atm.
 Atom     1 has atomic number  1 and mass   1.00783

 Molecular mass:    21.01405 amu.
 Principal axes and moments of inertia in atomic units:
                           1         2         3
     Eigenvalues --     0.00000   8.46109   8.46109
           X            1.00000  -0.00000   0.00000
           Y            0.00000   1.00000   0.00000
           Z            0.00000   0.00000   1.00000
 This molecule is a prolate symmetric top.
 Rotational symmetry number  1.
 Rotational temperature (Kelvin)     10.23673
 Rotational constant (GHZ):         213.298933
    2 imaginary frequencies ignored.
 Zero-point vibrational energy     109467.0 (Joules/Mol)
                                   26.16323 (Kcal/Mol)
 Vibrational temperatures:   3592.73 22738.97
          (Kelvin)

 Zero-point correction=                           0.041694 (Hartree/Particle)
 Thermal correction to Energy=                    0.044054
 Thermal correction to Enthalpy=                  0.044998
 Thermal correction to Gibbs Free Energy=         0.023554
 Sum of electronic and zero-point Energies=           -100.414933
 Sum of electronic and thermal Energies=              -100.412572
 Sum of electronic and thermal Enthalpies=            -100.411628
 Sum of electronic and thermal Free Energies=         -100.433072

                     E (Thermal)             CV                S
                      KCal/Mol        Cal/Mol-Kelvin    Cal/Mol-Kelvin
 Total                   27.644              4.970             45.133
 Electronic               0.000              0.000              1.377
 Translational            0.889              2.981             35.068
 Rotational               0.592              1.987              8.687
 Vibrational             26.163              0.002              0.000

 Normal termination of Gaussian 16 at Fri Aug 22 15:38:36 2025.
