 Gaussian 16, Revision C.01,
 Gaussian 16:  ES64L-G16RevC.01  3-Jul-2019

 -----------------------------------------
 # sp b3lyp/6-311g** Force nosymm scf=(qc)
 -----------------------------------------

 -------------------
 Title Card Required
 -------------------
 Symbolic Z-matrix:
 Charge =  0 Multiplicity = 2

                          Input orientation:
 ---------------------------------------------------------------------
 Center     Atomic      Atomic             Coordinates (Angstroms)
 Number     Number       Type             X           Y           Z
 ---------------------------------------------------------------------
      1          1           0        0.000000    0.000000    0.000000
      2          1           0       -0.500000    0.000000    0.000000
      3          9           0        3.750000    0.000000    0.000000
 ---------------------------------------------------------------------

 SCF Done:  E(UB3LYP) =  -100.861571391     a.u. after  302 cycles

 Alpha  occ. eigenvalues --  -24.76232  -1.22104  -0.55307  -0.49300  -0.46481
 Alpha  occ. eigenvalues --   -0.46462
 Alpha virt. eigenvalues --    0.09941   0.18298   0.55713   0.86084   0.90961
 Alpha virt. eigenvalues --    0.92637   1.01717   1.12037   1.12039   1.61079
 Alpha virt. eigenvalues --    1.84625   1.99565   1.99568   2.36102   3.64917

  Beta  occ. eigenvalues --  -24.73075  -1.13027  -0.49298  -0.43317  -0.43297
  Beta virt. eigenvalues --   -0.25950   0.09957   0.18305   0.55776   0.92461
  Beta virt. eigenvalues --    0.94141   0.95549   1.05780   1.12037   1.12039
  Beta virt. eigenvalues --    1.61086   1.84642   1.99565   1.99568   2.36102

 Mulliken charges and spin densities:
               1          2
     1  H   -0.001753  -0.000442
     2  H   -0.001135   0.000123
     3  F    0.002888   1.000319
 Sum of Mulliken charges =   0.00000   1.00000

 Dipole moment (field-independent basis, Debye):
    X=              0.0339    Y=             -0.0000    Z=              0.0000  Tot=              0.0339
 Quadrupole moment (field-independent basis, Debye-Ang):
   XX=             -6.1485   YY=             -6.5876   ZZ=             -5.7233
   XY=             -0.0000   XZ=              0.0000   YZ=             -0.0076

  Exact polarizability:       5.367      -0.000       1.799       0.000      -0.004       2.264
 Approx polarizability:       5.682      -0.000       1.880       0.000      -0.005       2.462

 ******    3 imaginary frequencies (negative Signs) ******

                      1                      2                      3
                      A                      A                      A
 Frequencies --  -4833.6090             -4833.3065               -45.0142
 Red. masses --      1.0082                 1.0082                 1.1085
 Frc consts  --     13.8787                13.8769                 0.0013
 IR Inten    --      0.0031                 0.0027                 0.0884

                      4
                      A
 Frequencies --   9960.5729
 Red. masses --      1.0078
 Frc consts  --     58.9120
 IR Inten    --      0.0349

 - Thermochemistry -
 -------------------
 Temperature   298.150 Kelvin.  Pressure   1.00000 Atm.
 Atom     1 has atomic number  1 and mass   1.00783

 Molecular mass:    21.01405 amu.
 Principal axes and moments of inertia in atomic units:
                           1         2         3
     Eigenvalues --     0.00000 104.57131 104.57131
           X            1.00000  -0.00000   0.00000
           Y            0.00000   1.00000   0.00000
           Z            0.00000   0.00000   1.00000
 This molecule is a prolate symmetric top.
 Rotational symmetry number  1.
 Rotational temperature (Kelvin)      0.82828
 Rotational constant (GHZ):          17.258474
    3 imaginary frequencies ignored.
 Zero-point vibrational energy      59577.5 (Joules/Mol)
                                   14.23935 (Kcal/Mol)
 Vibrational temperatures:  14331.04
          (Kelvin)

 Zero-point correction=                           0.022692 (Hartree/Particle)
 Thermal correction to Energy=                    0.025052
 Thermal correction to Enthalpy=                  0.025997
 Thermal correction to Gibbs Free Energy=         0.002178
 Sum of electronic and zero-point Energies=           -100.838880
 Sum of electronic and thermal Energies=              -100.836519
 Sum of electronic and thermal Enthalpies=            -100.835575
 Sum of electronic and thermal Free Energies=         -100.859393

                     E (Thermal)             CV                S
                      KCal/Mol        Cal/Mol-Kelvin    Cal/Mol-Kelvin
 Total                   15.721              4.968             50.129
 Electronic               0.000              0.000              1.377
 Translational            0.889              2.981             35.068
 Rotational               0.592              1.987             13.684
 Vibrational             14.239              0.000              0.000

 Normal termination of Gaussian 16 at Sat Aug 23 00:06:28 2025.
