 Gaussian 16, Revision C.01,
 Gaussian 16:  ES64L-G16RevC.01  3-Jul-2019

 -----------------------------------------
 # sp b3lyp/6-311g** Force nosymm scf=(qc)
 -----------------------------------------

 -------------------
 Title Card Required
 -------------------
 Symbolic Z-matrix:
 Charge =  0 Multiplicity = 2

                          Input orientation:
 ---------------------------------------------------------------------
 Center     Atomic      Atomic             Coordinates (Angstroms)
 Number     Number       Type             X           Y           Z
 ---------------------------------------------------------------------
      1          1           0        0.000000    0.000000    0.000000
      2          1           0       -1.550000    0.000000    0.000000
      3          9           0        3.000000    0.000000    0.000000
 ---------------------------------------------------------------------

 SCF Done:  E(UB3LYP) =  -100.813499241     a.u. after   25 cycles

 Alpha  occ. eigenvalues --  -24.75181  -1.21164  -0.54315  -0.45610  -0.45610
 Alpha  occ. eigenvalues --   -0.34410
 Alpha virt. eigenvalues --   -0.10718   0.24597   0.30101   0.89454   0.91558
 Alpha virt. eigenvalues --    0.91558   1.03936   1.06106   1.20448   1.20448
 Alpha virt. eigenvalues --    1.39537   1.39537   1.77607   2.19999   2.45516

  Beta  occ. eigenvalues --  -24.72100  -1.12317  -0.42523  -0.42523  -0.34218
  Beta virt. eigenvalues --   -0.25612  -0.10449   0.24986   0.30384   0.93031
  Beta virt. eigenvalues --    0.93031   0.98172   1.06140   1.08251   1.20659
  Beta virt. eigenvalues --    1.20659   1.39735   1.39735   1.77961   2.20663

 Mulliken charges and spin densities:
               1          2
     1  H    0.000293  -0.361044
     2  H    0.018666   0.384515
     3  F   -0.018959   0.976528
 Sum of Mulliken charges =   0.00000   1.00000

 Dipole moment (field-independent basis, Debye):
    X=             -0.4269    Y=             -0.0000    Z=              0.0000  Tot=              0.4269
 Quadrupole moment (field-independent basis, Debye-Ang):
   XX=             -6.2311   YY=             -7.7398   ZZ=             -7.7398
   XY=             -0.0000   XZ=              0.0000   YZ=              0.0000

  Exact polarizability:      52.568       0.000       2.005      -0.000      -0.000       2.005
 Approx polarizability:      66.439      -0.000       2.015       0.000       0.000       2.015

 ******    2 imaginary frequencies (negative Signs) ******

                      1                      2                      3
                      A                      A                      A
 Frequencies --  -2099.8404              -188.7179              1114.1765
 Red. masses --      1.0079                 1.1084                 1.0119
 Frc consts  --      2.6184                 0.0233                 0.7401
 IR Inten    --    214.0056                16.8706                 0.0703

                      4
                      A
 Frequencies --   1114.1765
 Red. masses --      1.0119
 Frc consts  --      0.7401
 IR Inten    --      0.0703

 - Thermochemistry -
 -------------------
 Temperature   298.150 Kelvin.  Pressure   1.00000 Atm.
 Atom     1 has atomic number  1 and mass   1.00783

 Molecular mass:    21.01405 amu.
 Principal axes and moments of inertia in atomic units:
                           1         2         3
     Eigenvalues --     0.00000  97.06053  97.06053
           X            1.00000  -0.00000   0.00000
           Y            0.00000   1.00000   0.00000
           Z            0.00000   0.00000   1.00000
 This molecule is a prolate symmetric top.
 Rotational symmetry number  1.
 Rotational temperature (Kelvin)      0.89237
 Rotational constant (GHZ):          18.593977
    2 imaginary frequencies ignored.
 Zero-point vibrational energy      13328.5 (Joules/Mol)
                                    3.18559 (Kcal/Mol)
 Vibrational temperatures:   1603.05  1603.05
          (Kelvin)

 Zero-point correction=                           0.005077 (Hartree/Particle)
 Thermal correction to Energy=                    0.007484
 Thermal correction to Enthalpy=                  0.008428
 Thermal correction to Gibbs Free Energy=        -0.015375
 Sum of electronic and zero-point Energies=           -100.808423
 Sum of electronic and thermal Energies=              -100.806015
 Sum of electronic and thermal Enthalpies=            -100.805071
 Sum of electronic and thermal Free Energies=         -100.828874

                     E (Thermal)             CV                S
                      KCal/Mol        Cal/Mol-Kelvin    Cal/Mol-Kelvin
 Total                    4.696              5.504             50.099
 Electronic               0.000              0.000              1.377
 Translational            0.889              2.981             35.068
 Rotational               0.592              1.987             13.536
 Vibrational              3.215              0.536              0.118

 Normal termination of Gaussian 16 at Fri Aug 22 19:30:44 2025.
