 Gaussian 16, Revision C.01,
 Gaussian 16:  ES64L-G16RevC.01  3-Jul-2019

 -----------------------------------------
 # sp b3lyp/6-311g** Force nosymm scf=(qc)
 -----------------------------------------

 -------------------
 Title Card Required
 -------------------
 Symbolic Z-matrix:
 Charge =  0 Multiplicity = 2

                          Input orientation:
 ---------------------------------------------------------------------
 Center     Atomic      Atomic             Coordinates (Angstroms)
 Number     Number       Type             X           Y           Z
 ---------------------------------------------------------------------
      1          1           0        0.000000    0.000000    0.000000
      2          1           0       -1.750000    0.000000    0.000000
      3          9           0        1.350000    0.000000    0.000000
 ---------------------------------------------------------------------

 SCF Done:  E(UB3LYP) =  -100.896111628     a.u. after    9 cycles

 Alpha  occ. eigenvalues --  -24.63505  -1.10409  -0.46411  -0.37556  -0.36240
 Alpha  occ. eigenvalues --   -0.36240
 Alpha virt. eigenvalues --   -0.06156   0.22125   0.27973   0.93778   0.93778
 Alpha virt. eigenvalues --    1.01650   1.03743   1.18363   1.18363   1.36194
 Alpha virt. eigenvalues --    1.36194   1.47080   1.72922   2.14129   2.33785

  Beta  occ. eigenvalues --  -24.62970  -1.09023  -0.43840  -0.35741  -0.35741
  Beta virt. eigenvalues --   -0.18383  -0.02328   0.26223   0.31343   0.93742
  Beta virt. eigenvalues --    0.93742   1.04057   1.09150   1.29830   1.29830
  Beta virt. eigenvalues --    1.39403   1.39403   1.53951   1.76200   2.22371

 Mulliken charges and spin densities:
               1          2
     1  H    0.311856  -0.074085
     2  H    0.052532   0.910289
     3  F   -0.364388   0.163796
 Sum of Mulliken charges =   0.00000   1.00000

 Dipole moment (field-independent basis, Debye):
    X=             -2.9343    Y=             -0.0000    Z=              0.0000  Tot=              2.9343
 Quadrupole moment (field-independent basis, Debye-Ang):
   XX=             -8.3644   YY=             -7.1600   ZZ=             -7.1600
   XY=             -0.0000   XZ=              0.0000   YZ=             -0.0000

  Exact polarizability:      23.704      -0.000       2.331       0.000       0.000       2.331
 Approx polarizability:      31.874      -0.000       2.282       0.000       0.000       2.282

 ******    2 imaginary frequencies (negative Signs) ******

                      1                      2                      3
                      A                      A                      A
 Frequencies --  -1737.8311              -239.4552              1085.2970
 Red. masses --      1.0266                 1.0866                 1.0214
 Frc consts  --      1.8267                 0.0367                 0.7088
 IR Inten    --    105.8592                 5.9977                70.0576

                      4
                      A
 Frequencies --   1085.2970
 Red. masses --      1.0214
 Frc consts  --      0.7088
 IR Inten    --     70.0576

 - Thermochemistry -
 -------------------
 Temperature   298.150 Kelvin.  Pressure   1.00000 Atm.
 Atom     1 has atomic number  1 and mass   1.00783

 Molecular mass:    21.01405 amu.
 Principal axes and moments of inertia in atomic units:
                           1         2         3
     Eigenvalues --     0.00000  37.72762  37.72762
           X            1.00000  -0.00000   0.00000
           Y            0.00000   1.00000   0.00000
           Z            0.00000   0.00000   1.00000
 This molecule is a prolate symmetric top.
 Rotational symmetry number  1.
 Rotational temperature (Kelvin)      2.29577
 Rotational constant (GHZ):          47.836078
    2 imaginary frequencies ignored.
 Zero-point vibrational energy      12983.0 (Joules/Mol)
                                    3.10302 (Kcal/Mol)
 Vibrational temperatures:   1561.50  1561.50
          (Kelvin)

 Zero-point correction=                           0.004945 (Hartree/Particle)
 Thermal correction to Energy=                    0.007358
 Thermal correction to Enthalpy=                  0.008302
 Thermal correction to Gibbs Free Energy=        -0.014616
 Sum of electronic and zero-point Energies=           -100.891167
 Sum of electronic and thermal Energies=              -100.888753
 Sum of electronic and thermal Enthalpies=            -100.887809
 Sum of electronic and thermal Free Energies=         -100.910728

                     E (Thermal)             CV                S
                      KCal/Mol        Cal/Mol-Kelvin    Cal/Mol-Kelvin
 Total                    4.617              5.554             48.236
 Electronic               0.000              0.000              1.377
 Translational            0.889              2.981             35.068
 Rotational               0.592              1.987             11.658
 Vibrational              3.136              0.586              0.132

 Normal termination of Gaussian 16 at Fri Aug 22 16:17:25 2025.
