 Gaussian 16, Revision C.01,
 Gaussian 16:  ES64L-G16RevC.01  3-Jul-2019

 -----------------------------------------
 # sp b3lyp/6-311g** Force nosymm scf=(qc)
 -----------------------------------------

 -------------------
 Title Card Required
 -------------------
 Symbolic Z-matrix:
 Charge =  0 Multiplicity = 2

                          Input orientation:
 ---------------------------------------------------------------------
 Center     Atomic      Atomic             Coordinates (Angstroms)
 Number     Number       Type             X           Y           Z
 ---------------------------------------------------------------------
      1          1           0        0.000000    0.000000    0.000000
      2          1           0       -0.700000    0.000000    0.000000
      3          9           0        2.250000    0.000000    0.000000
 ---------------------------------------------------------------------

 SCF Done:  E(UB3LYP) =  -100.932568998     a.u. after    6 cycles

 Alpha  occ. eigenvalues --  -24.75748  -1.21699  -0.55194  -0.46089  -0.46089
 Alpha  occ. eigenvalues --   -0.45108
 Alpha virt. eigenvalues --    0.07597   0.19958   0.48168   0.90197   0.90905
 Alpha virt. eigenvalues --    0.90905   1.08015   1.08015   1.14255   1.58573
 Alpha virt. eigenvalues --    1.84894   1.84894   1.89316   2.39701   3.54851

  Beta  occ. eigenvalues --  -24.72645  -1.12803  -0.45207  -0.42984  -0.42984
  Beta virt. eigenvalues --   -0.26043   0.08186   0.20385   0.48404   0.92354
  Beta virt. eigenvalues --    0.92354   0.98441   1.08290   1.08290   1.18354
  Beta virt. eigenvalues --    1.59115   1.85030   1.85030   1.89548   2.40025

 Mulliken charges and spin densities:
               1          2
     1  H   -0.012403  -0.013091
     2  H    0.022644   0.034171
     3  F   -0.010241   0.978919
 Sum of Mulliken charges =   0.00000   1.00000

 Dipole moment (field-independent basis, Debye):
    X=             -0.1879    Y=             -0.0000    Z=              0.0000  Tot=              0.1879
 Quadrupole moment (field-independent basis, Debye-Ang):
   XX=             -5.6935   YY=             -6.8681   ZZ=             -6.8681
   XY=             -0.0000   XZ=              0.0000   YZ=              0.0000

  Exact polarizability:      13.121      -0.000       1.983       0.000      -0.000       1.983
 Approx polarizability:      13.914      -0.000       2.075       0.000      -0.000       2.075

 ******    3 imaginary frequencies (negative Signs) ******

                      1                      2                      3
                      A                      A                      A
 Frequencies --  -1069.9900             -1069.9900              -119.1119
 Red. masses --      1.0096                 1.0096                 1.1085
 Frc consts  --      0.6810                 0.6810                 0.0093
 IR Inten    --      1.2375                 1.2375                 7.2688

                      4
                      A
 Frequencies --   5058.1974
 Red. masses --      1.0078
 Frc consts  --     15.1924
 IR Inten    --     71.9945

 - Thermochemistry -
 -------------------
 Temperature   298.150 Kelvin.  Pressure   1.00000 Atm.
 Atom     1 has atomic number  1 and mass   1.00783

 Molecular mass:    21.01405 amu.
 Principal axes and moments of inertia in atomic units:
                           1         2         3
     Eigenvalues --     0.00000  44.87306  44.87306
           X            1.00000  -0.00000   0.00000
           Y            0.00000   1.00000   0.00000
           Z            0.00000   0.00000   1.00000
 This molecule is a prolate symmetric top.
 Rotational symmetry number  1.
 Rotational temperature (Kelvin)      1.93020
 Rotational constant (GHZ):          40.218811
    3 imaginary frequencies ignored.
 Zero-point vibrational energy      30254.7 (Joules/Mol)
                                    7.23106 (Kcal/Mol)
 Vibrational temperatures:   7277.62
          (Kelvin)

 Zero-point correction=                           0.011523 (Hartree/Particle)
 Thermal correction to Energy=                    0.013884
 Thermal correction to Enthalpy=                  0.014828
 Thermal correction to Gibbs Free Energy=        -0.008191
 Sum of electronic and zero-point Energies=           -100.921046
 Sum of electronic and thermal Energies=              -100.918685
 Sum of electronic and thermal Enthalpies=            -100.917741
 Sum of electronic and thermal Free Energies=         -100.940760

                     E (Thermal)             CV                S
                      KCal/Mol        Cal/Mol-Kelvin    Cal/Mol-Kelvin
 Total                    8.712              4.968             48.448
 Electronic               0.000              0.000              1.377
 Translational            0.889              2.981             35.068
 Rotational               0.592              1.987             12.003
 Vibrational              7.231              0.000              0.000

 Normal termination of Gaussian 16 at Fri Aug 22 17:15:15 2025.
