 Gaussian 16, Revision C.01,
 Gaussian 16:  ES64L-G16RevC.01  3-Jul-2019

 -----------------------------------------
 # sp b3lyp/6-311g** Force nosymm scf=(qc)
 -----------------------------------------

 -------------------
 Title Card Required
 -------------------
 Symbolic Z-matrix:
 Charge =  0 Multiplicity = 2

                          Input orientation:
 ---------------------------------------------------------------------
 Center     Atomic      Atomic             Coordinates (Angstroms)
 Number     Number       Type             X           Y           Z
 ---------------------------------------------------------------------
      1          1           0        0.000000    0.000000    0.000000
      2          1           0       -3.650000    0.000000    0.000000
      3          9           0        2.900000    0.000000    0.000000
 ---------------------------------------------------------------------

 SCF Done:  E(UB3LYP) =  -100.761734232     a.u. after   21 cycles

 Alpha  occ. eigenvalues --  -24.73699  -1.19788  -0.52818  -0.44351  -0.44351
 Alpha  occ. eigenvalues --   -0.32564
 Alpha virt. eigenvalues --   -0.08359   0.23852   0.36052   0.89653   0.92506
 Alpha virt. eigenvalues --    0.92506   1.04464   1.24939   1.24939   1.25029
 Alpha virt. eigenvalues --    1.43651   1.43651   1.44190   2.14575   2.39792

  Beta  occ. eigenvalues --  -24.70699  -1.11198  -0.41350  -0.41350  -0.33991
  Beta virt. eigenvalues --   -0.24551  -0.06363   0.23867   0.38019   0.93958
  Beta virt. eigenvalues --    0.93958   0.98153   1.08053   1.23325   1.23325
  Beta virt. eigenvalues --    1.24149   1.46090   1.46324   1.46324   2.14482

 Mulliken charges and spin densities:
               1          2
     1  H    0.044852  -0.948896
     2  H    0.000354   0.998579
     3  F   -0.045206   0.950317
 Sum of Mulliken charges =  -0.00000   1.00000

 Dipole moment (field-independent basis, Debye):
    X=             -0.6789    Y=             -0.0000    Z=              0.0000  Tot=              0.6789
 Quadrupole moment (field-independent basis, Debye-Ang):
   XX=             -8.5282   YY=             -7.6025   ZZ=             -7.6025
   XY=             -0.0000   XZ=              0.0000   YZ=              0.0000

  Exact polarizability:      31.809      -0.000       2.025       0.000       0.000       2.025
 Approx polarizability:      34.192      -0.000       1.925       0.000      -0.000       1.925

 ******    2 imaginary frequencies (negative Signs) ******

                      1                      2                      3
                      A                      A                      A
 Frequencies --   -410.0055              -101.6118               146.3948
 Red. masses --      1.0513                 1.0602                 1.0210
 Frc consts  --      0.1041                 0.0064                 0.0129
 IR Inten    --     46.8919                 0.2818                 1.9147

                      4
                      A
 Frequencies --    146.3948
 Red. masses --      1.0210
 Frc consts  --      0.0129
 IR Inten    --      1.9147

 - Thermochemistry -
 -------------------
 Temperature   298.150 Kelvin.  Pressure   1.00000 Atm.
 Atom     1 has atomic number  1 and mass   1.00783

 Molecular mass:    21.01405 amu.
 Principal axes and moments of inertia in atomic units:
                           1         2         3
     Eigenvalues --     0.00000 169.25990 169.25990
           X            1.00000  -0.00000   0.00000
           Y            0.00000   1.00000   0.00000
           Z            0.00000   0.00000   1.00000
 This molecule is a prolate symmetric top.
 Rotational symmetry number  1.
 Rotational temperature (Kelvin)      0.51172
 Rotational constant (GHZ):          10.662545
    2 imaginary frequencies ignored.
 Zero-point vibrational energy       1751.3 (Joules/Mol)
                                    0.41856 (Kcal/Mol)
 Warning -- explicit consideration of   2 degrees of freedom as
           vibrations may cause significant error
 Vibrational temperatures:    210.63   210.63
          (Kelvin)

 Zero-point correction=                           0.000667 (Hartree/Particle)
 Thermal correction to Energy=                    0.004327
 Thermal correction to Enthalpy=                  0.005271
 Thermal correction to Gibbs Free Energy=        -0.021585
 Sum of electronic and zero-point Energies=           -100.761067
 Sum of electronic and thermal Energies=              -100.757408
 Sum of electronic and thermal Enthalpies=            -100.756463
 Sum of electronic and thermal Free Energies=         -100.783319

                     E (Thermal)             CV                S
                      KCal/Mol        Cal/Mol-Kelvin    Cal/Mol-Kelvin
 Total                    2.715              8.781             56.523
 Electronic               0.000              0.000              1.377
 Translational            0.889              2.981             35.068
 Rotational               0.592              1.987             14.641
 Vibrational              1.234              3.813              5.437
 Vibration     1          0.617              1.907              2.719
 Vibration     2          0.617              1.907              2.719

 Normal termination of Gaussian 16 at Fri Aug 22 19:04:56 2025.
