 Gaussian 16, Revision C.01,
 Gaussian 16:  ES64L-G16RevC.01  3-Jul-2019

 -----------------------------------------
 # sp b3lyp/6-311g** Force nosymm scf=(qc)
 -----------------------------------------

 -------------------
 Title Card Required
 -------------------
 Symbolic Z-matrix:
 Charge =  0 Multiplicity = 2

                          Input orientation:
 ---------------------------------------------------------------------
 Center     Atomic      Atomic             Coordinates (Angstroms)
 Number     Number       Type             X           Y           Z
 ---------------------------------------------------------------------
      1          1           0        0.000000    0.000000    0.000000
      2          1           0       -3.550000    0.000000    0.000000
      3          9           0        0.750000    0.000000    0.000000
 ---------------------------------------------------------------------

 SCF Done:  E(UB3LYP) =  -100.921944910     a.u. after    6 cycles

 Alpha  occ. eigenvalues --  -24.63454  -1.25476  -0.57383  -0.41194  -0.41194
 Alpha  occ. eigenvalues --   -0.33437
 Alpha virt. eigenvalues --    0.05831   0.24746   0.49208   0.93922   0.93922
 Alpha virt. eigenvalues --    0.96512   1.23842   1.24073   1.24073   1.30478
 Alpha virt. eigenvalues --    1.41705   1.41705   2.00350   2.14500   2.67714

  Beta  occ. eigenvalues --  -24.63453  -1.25474  -0.57382  -0.41193  -0.41193
  Beta virt. eigenvalues --   -0.05296   0.06276   0.39401   0.49177   0.93922
  Beta virt. eigenvalues --    0.93922   0.96504   1.30049   1.41706   1.41706
  Beta virt. eigenvalues --    1.50876   1.50900   1.50900   2.00380   2.44660

 Mulliken charges and spin densities:
               1          2
     1  H    0.267641   0.000562
     2  H    0.000711   0.999134
     3  F   -0.268352   0.000303
 Sum of Mulliken charges =   0.00000   1.00000

 Dipole moment (field-independent basis, Debye):
    X=             -1.6660    Y=             -0.0000    Z=             -0.0000  Tot=              1.6660
 Quadrupole moment (field-independent basis, Debye-Ang):
   XX=             -7.4464   YY=             -6.7168   ZZ=             -6.7168
   XY=             -0.0000   XZ=             -0.0000   YZ=              0.0000

  Exact polarizability:       4.280      -0.000       2.446       0.000       0.000       2.446
 Approx polarizability:       4.728       0.000       2.427      -0.000       0.000       2.427

 ******    3 imaginary frequencies (negative Signs) ******

                      1                      2                      3
                      A                      A                      A
 Frequencies --  -2707.6387             -2707.6387               -39.0466
 Red. masses --      1.0413                 1.0413                 1.0532
 Frc consts  --      4.4977                 4.4977                 0.0009
 IR Inten    --    204.8670               204.8670                 0.0261

                      4
                      A
 Frequencies --   7586.7258
 Red. masses --      1.0583
 Frc consts  --     35.8900
 IR Inten    --    106.3449

 - Thermochemistry -
 -------------------
 Temperature   298.150 Kelvin.  Pressure   1.00000 Atm.
 Atom     1 has atomic number  1 and mass   1.00783

 Molecular mass:    21.01405 amu.
 Principal axes and moments of inertia in atomic units:
                           1         2         3
     Eigenvalues --     0.00000  64.16820  64.16820
           X            1.00000  -0.00000   0.00000
           Y            0.00000   1.00000   0.00000
           Z            0.00000   0.00000   1.00000
 This molecule is a prolate symmetric top.
 Rotational symmetry number  1.
 Rotational temperature (Kelvin)      1.34980
 Rotational constant (GHZ):          28.125164
    3 imaginary frequencies ignored.
 Zero-point vibrational energy      45378.7 (Joules/Mol)
                                   10.84577 (Kcal/Mol)
 Vibrational temperatures:  10915.61
          (Kelvin)

 Zero-point correction=                           0.017284 (Hartree/Particle)
 Thermal correction to Energy=                    0.019644
 Thermal correction to Enthalpy=                  0.020588
 Thermal correction to Gibbs Free Energy=        -0.002768
 Sum of electronic and zero-point Energies=           -100.904661
 Sum of electronic and thermal Energies=              -100.902301
 Sum of electronic and thermal Enthalpies=            -100.901356
 Sum of electronic and thermal Free Energies=         -100.924713

                     E (Thermal)             CV                S
                      KCal/Mol        Cal/Mol-Kelvin    Cal/Mol-Kelvin
 Total                   12.327              4.968             49.159
 Electronic               0.000              0.000              1.377
 Translational            0.889              2.981             35.068
 Rotational               0.592              1.987             12.713
 Vibrational             10.846              0.000              0.000

 Normal termination of Gaussian 16 at Fri Aug 22 15:49:44 2025.
