 Gaussian 16, Revision C.01,
 Gaussian 16:  ES64L-G16RevC.01  3-Jul-2019

 -----------------------------------------
 # sp b3lyp/6-311g** Force nosymm scf=(qc)
 -----------------------------------------

 -------------------
 Title Card Required
 -------------------
 Symbolic Z-matrix:
 Charge =  0 Multiplicity = 2

                          Input orientation:
 ---------------------------------------------------------------------
 Center     Atomic      Atomic             Coordinates (Angstroms)
 Number     Number       Type             X           Y           Z
 ---------------------------------------------------------------------
      1          1           0        0.000000    0.000000    0.000000
      2          1           0       -2.700000    0.000000    0.000000
      3          9           0        2.750000    0.000000    0.000000
 ---------------------------------------------------------------------

 SCF Done:  E(UB3LYP) =  -100.765497349     a.u. after   20 cycles

 Alpha  occ. eigenvalues --  -24.73086  -1.19213  -0.52198  -0.43834  -0.43834
 Alpha  occ. eigenvalues --   -0.33165
 Alpha virt. eigenvalues --   -0.10567   0.24886   0.33933   0.90149   0.92870
 Alpha virt. eigenvalues --    0.92870   1.05488   1.24424   1.24424   1.26206
 Alpha virt. eigenvalues --    1.40128   1.40128   1.41857   2.15428   2.36480

  Beta  occ. eigenvalues --  -24.70133  -1.10771  -0.40883  -0.40883  -0.34462
  Beta virt. eigenvalues --   -0.24200  -0.08665   0.25329   0.35560   0.94303
  Beta virt. eigenvalues --    0.94303   0.98367   1.09047   1.22958   1.22958
  Beta virt. eigenvalues --    1.25822   1.43099   1.43099   1.43817   2.15674

 Mulliken charges and spin densities:
               1          2
     1  H    0.053400  -0.918258
     2  H    0.004946   0.983409
     3  F   -0.058347   0.934850
 Sum of Mulliken charges =  -0.00000   1.00000

 Dipole moment (field-independent basis, Debye):
    X=             -0.8853    Y=             -0.0000    Z=             -0.0000  Tot=              0.8853
 Quadrupole moment (field-independent basis, Debye-Ang):
   XX=             -8.5448   YY=             -7.6219   ZZ=             -7.6219
   XY=             -0.0000   XZ=             -0.0000   YZ=              0.0000

  Exact polarizability:      40.060      -0.000       2.016      -0.000      -0.000       2.016
 Approx polarizability:      41.538      -0.000       1.919      -0.000       0.000       1.919

 ******    2 imaginary frequencies (negative Signs) ******

                      1                      2                      3
                      A                      A                      A
 Frequencies --   -621.4138              -261.2825               237.6921
 Red. masses --      1.0209                 1.0931                 1.0177
 Frc consts  --      0.2323                 0.0440                 0.0339
 IR Inten    --     44.7566                14.2838                 2.4401

                      4
                      A
 Frequencies --    237.6921
 Red. masses --      1.0177
 Frc consts  --      0.0339
 IR Inten    --      2.4401

 - Thermochemistry -
 -------------------
 Temperature   298.150 Kelvin.  Pressure   1.00000 Atm.
 Atom     1 has atomic number  1 and mass   1.00783

 Molecular mass:    21.01405 amu.
 Principal axes and moments of inertia in atomic units:
                           1         2         3
     Eigenvalues --     0.00000 122.51096 122.51096
           X            1.00000  -0.00000   0.00000
           Y            0.00000   1.00000   0.00000
           Z            0.00000   0.00000   1.00000
 This molecule is a prolate symmetric top.
 Rotational symmetry number  1.
 Rotational temperature (Kelvin)      0.70699
 Rotational constant (GHZ):          14.731263
    2 imaginary frequencies ignored.
 Zero-point vibrational energy       2843.4 (Joules/Mol)
                                    0.67960 (Kcal/Mol)
 Warning -- explicit consideration of   2 degrees of freedom as
           vibrations may cause significant error
 Vibrational temperatures:    341.99   341.99
          (Kelvin)

 Zero-point correction=                           0.001083 (Hartree/Particle)
 Thermal correction to Energy=                    0.004451
 Thermal correction to Enthalpy=                  0.005396
 Thermal correction to Gibbs Free Energy=        -0.020301
 Sum of electronic and zero-point Energies=           -100.764414
 Sum of electronic and thermal Energies=              -100.761046
 Sum of electronic and thermal Enthalpies=            -100.760102
 Sum of electronic and thermal Free Energies=         -100.785799

                     E (Thermal)             CV                S
                      KCal/Mol        Cal/Mol-Kelvin    Cal/Mol-Kelvin
 Total                    2.793              8.534             54.084
 Electronic               0.000              0.000              1.377
 Translational            0.889              2.981             35.068
 Rotational               0.592              1.987             13.999
 Vibrational              1.312              3.566              3.640
 Vibration     1          0.656              1.783              1.820
 Vibration     2          0.656              1.783              1.820

 Normal termination of Gaussian 16 at Fri Aug 22 18:34:22 2025.
