 Gaussian 16, Revision C.01,
 Gaussian 16:  ES64L-G16RevC.01  3-Jul-2019

 -----------------------------------------
 # sp b3lyp/6-311g** Force nosymm scf=(qc)
 -----------------------------------------

 -------------------
 Title Card Required
 -------------------
 Symbolic Z-matrix:
 Charge =  0 Multiplicity = 2

                          Input orientation:
 ---------------------------------------------------------------------
 Center     Atomic      Atomic             Coordinates (Angstroms)
 Number     Number       Type             X           Y           Z
 ---------------------------------------------------------------------
      1          1           0        0.000000    0.000000    0.000000
      2          1           0       -2.350000    0.000000    0.000000
      3          9           0        3.250000    0.000000    0.000000
 ---------------------------------------------------------------------

 SCF Done:  E(UB3LYP) =  -100.765583190     a.u. after   26 cycles

 Alpha  occ. eigenvalues --  -24.74961  -1.20953  -0.54081  -0.45408  -0.45408
 Alpha  occ. eigenvalues --   -0.32970
 Alpha virt. eigenvalues --   -0.10402   0.25668   0.33451   0.88543   0.91742
 Alpha virt. eigenvalues --    0.91742   1.02631   1.24761   1.24761   1.25753
 Alpha virt. eigenvalues --    1.39757   1.39757   1.42925   2.14893   2.35898

  Beta  occ. eigenvalues --  -24.71877  -1.12100  -0.42318  -0.42318  -0.33344
  Beta virt. eigenvalues --   -0.25281  -0.09704   0.25616   0.34362   0.93221
  Beta virt. eigenvalues --    0.93221   0.97546   1.06608   1.24292   1.24292
  Beta virt. eigenvalues --    1.25189   1.40856   1.40856   1.43989   2.15822

 Mulliken charges and spin densities:
               1          2
     1  H    0.014748  -0.931059
     2  H    0.005181   0.953408
     3  F   -0.019929   0.977651
 Sum of Mulliken charges =  -0.00000   1.00000

 Dipole moment (field-independent basis, Debye):
    X=             -0.3904    Y=              0.0000    Z=             -0.0000  Tot=              0.3904
 Quadrupole moment (field-independent basis, Debye-Ang):
   XX=             -7.3629   YY=             -7.6755   ZZ=             -7.6755
   XY=              0.0000   XZ=             -0.0000   YZ=             -0.0000

  Exact polarizability:      43.853       0.000       2.015      -0.000       0.000       2.015
 Approx polarizability:      35.194       0.000       1.926      -0.000      -0.000       1.926

 ******    2 imaginary frequencies (negative Signs) ******

                      1                      2                      3
                      A                      A                      A
 Frequencies --   -836.7206              -186.1238               314.4417
 Red. masses --      1.0081                 1.1081                 1.0145
 Frc consts  --      0.4158                 0.0226                 0.0591
 IR Inten    --     13.3357                13.9086                 0.1402

                      4
                      A
 Frequencies --    314.4417
 Red. masses --      1.0145
 Frc consts  --      0.0591
 IR Inten    --      0.1402

 - Thermochemistry -
 -------------------
 Temperature   298.150 Kelvin.  Pressure   1.00000 Atm.
 Atom     1 has atomic number  1 and mass   1.00783

 Molecular mass:    21.01405 amu.
 Principal axes and moments of inertia in atomic units:
                           1         2         3
     Eigenvalues --     0.00000 137.36043 137.36043
           X            1.00000  -0.00000   0.00000
           Y            0.00000   1.00000   0.00000
           Z            0.00000   0.00000   1.00000
 This molecule is a prolate symmetric top.
 Rotational symmetry number  1.
 Rotational temperature (Kelvin)      0.63056
 Rotational constant (GHZ):          13.138727
    2 imaginary frequencies ignored.
 Zero-point vibrational energy       3761.6 (Joules/Mol)
                                    0.89903 (Kcal/Mol)
 Warning -- explicit consideration of   2 degrees of freedom as
           vibrations may cause significant error
 Vibrational temperatures:    452.41   452.41
          (Kelvin)

 Zero-point correction=                           0.001433 (Hartree/Particle)
 Thermal correction to Energy=                    0.004598
 Thermal correction to Enthalpy=                  0.005542
 Thermal correction to Gibbs Free Energy=        -0.019806
 Sum of electronic and zero-point Energies=           -100.764150
 Sum of electronic and thermal Energies=              -100.760985
 Sum of electronic and thermal Enthalpies=            -100.760041
 Sum of electronic and thermal Free Energies=         -100.785389

                     E (Thermal)             CV                S
                      KCal/Mol        Cal/Mol-Kelvin    Cal/Mol-Kelvin
 Total                    2.885              8.260             53.349
 Electronic               0.000              0.000              1.377
 Translational            0.889              2.981             35.068
 Rotational               0.592              1.987             14.226
 Vibrational              1.404              3.292              2.678
 Vibration     1          0.702              1.646              1.339
 Vibration     2          0.702              1.646              1.339

 Normal termination of Gaussian 16 at Fri Aug 22 20:34:52 2025.
