 Gaussian 16, Revision C.01,
 Gaussian 16:  ES64L-G16RevC.01  3-Jul-2019

 -----------------------------------------
 # sp b3lyp/6-311g** Force nosymm scf=(qc)
 -----------------------------------------

 -------------------
 Title Card Required
 -------------------
 Symbolic Z-matrix:
 Charge =  0 Multiplicity = 2

                          Input orientation:
 ---------------------------------------------------------------------
 Center     Atomic      Atomic             Coordinates (Angstroms)
 Number     Number       Type             X           Y           Z
 ---------------------------------------------------------------------
      1          1           0        0.000000    0.000000    0.000000
      2          1           0       -3.800000    0.000000    0.000000
      3          9           0        1.450000    0.000000    0.000000
 ---------------------------------------------------------------------

 SCF Done:  E(UB3LYP) =  -100.865763884     a.u. after    8 cycles

 Alpha  occ. eigenvalues --  -24.64373  -1.09960  -0.43878  -0.36569  -0.36569
 Alpha  occ. eigenvalues --   -0.33710
 Alpha virt. eigenvalues --   -0.13262   0.20560   0.27391   0.93264   0.93264
 Alpha virt. eigenvalues --    1.03520   1.12082   1.23771   1.23799   1.23799
 Alpha virt. eigenvalues --    1.31882   1.31882   1.72230   2.12981   2.20005

  Beta  occ. eigenvalues --  -24.64364  -1.09936  -0.43856  -0.36560  -0.36560
  Beta virt. eigenvalues --   -0.13426  -0.06164   0.23425   0.38356   0.93261
  Beta virt. eigenvalues --    0.93261   1.03543   1.12093   1.31842   1.31842
  Beta virt. eigenvalues --    1.46423   1.46786   1.46786   1.72240   2.19007

 Mulliken charges and spin densities:
               1          2
     1  H    0.353622  -0.002065
     2  H    0.000840   0.999113
     3  F   -0.354462   0.002952
 Sum of Mulliken charges =   0.00000   1.00000

 Dipole moment (field-independent basis, Debye):
    X=             -2.5526    Y=             -0.0000    Z=              0.0000  Tot=              2.5526
 Quadrupole moment (field-independent basis, Debye-Ang):
   XX=             -9.7677   YY=             -7.2932   ZZ=             -7.2932
   XY=             -0.0000   XZ=              0.0000   YZ=             -0.0000

  Exact polarizability:      13.816      -0.000       2.209      -0.000      -0.000       2.209
 Approx polarizability:      25.094      -0.000       2.138       0.000       0.000       2.138

 ******    2 imaginary frequencies (negative Signs) ******

                      1                      2                      3
                      A                      A                      A
 Frequencies --  -1097.0019               -54.1670              1059.0036
 Red. masses --      1.0579                 1.0536                 1.0324
 Frc consts  --      0.7501                 0.0018                 0.6822
 IR Inten    --     43.0764                 0.0548               123.6877

                      4
                      A
 Frequencies --   1059.0036
 Red. masses --      1.0324
 Frc consts  --      0.6822
 IR Inten    --    123.6877

 - Thermochemistry -
 -------------------
 Temperature   298.150 Kelvin.  Pressure   1.00000 Atm.
 Atom     1 has atomic number  1 and mass   1.00783

 Molecular mass:    21.01405 amu.
 Principal axes and moments of inertia in atomic units:
                           1         2         3
     Eigenvalues --     0.00000  99.01626  99.01626
           X            1.00000  -0.00000   0.00000
           Y            0.00000   1.00000   0.00000
           Z            0.00000   0.00000   1.00000
 This molecule is a prolate symmetric top.
 Rotational symmetry number  1.
 Rotational temperature (Kelvin)      0.87474
 Rotational constant (GHZ):          18.226715
    2 imaginary frequencies ignored.
 Zero-point vibrational energy      12668.5 (Joules/Mol)
                                    3.02784 (Kcal/Mol)
 Vibrational temperatures:   1523.67  1523.67
          (Kelvin)

 Zero-point correction=                           0.004825 (Hartree/Particle)
 Thermal correction to Energy=                    0.007244
 Thermal correction to Enthalpy=                  0.008188
 Thermal correction to Gibbs Free Energy=        -0.015648
 Sum of electronic and zero-point Energies=           -100.860939
 Sum of electronic and thermal Energies=              -100.858520
 Sum of electronic and thermal Enthalpies=            -100.857575
 Sum of electronic and thermal Free Energies=         -100.881412

                     E (Thermal)             CV                S
                      KCal/Mol        Cal/Mol-Kelvin    Cal/Mol-Kelvin
 Total                    4.546              5.602             50.168
 Electronic               0.000              0.000              1.377
 Translational            0.889              2.981             35.068
 Rotational               0.592              1.987             13.575
 Vibrational              3.065              0.634              0.147

 Normal termination of Gaussian 16 at Fri Aug 22 16:24:04 2025.
