 Gaussian 16, Revision C.01,
 Gaussian 16:  ES64L-G16RevC.01  3-Jul-2019

 -----------------------------------------
 # sp b3lyp/6-311g** Force nosymm scf=(qc)
 -----------------------------------------

 -------------------
 Title Card Required
 -------------------
 Symbolic Z-matrix:
 Charge =  0 Multiplicity = 2

                          Input orientation:
 ---------------------------------------------------------------------
 Center     Atomic      Atomic             Coordinates (Angstroms)
 Number     Number       Type             X           Y           Z
 ---------------------------------------------------------------------
      1          1           0        0.000000    0.000000    0.000000
      2          1           0       -2.450000    0.000000    0.000000
      3          9           0        3.550000    0.000000    0.000000
 ---------------------------------------------------------------------

 SCF Done:  E(UB3LYP) =  -100.763456856     a.u. after   27 cycles

 Alpha  occ. eigenvalues --  -24.75534  -1.21486  -0.54657  -0.45892  -0.45892
 Alpha  occ. eigenvalues --   -0.32685
 Alpha virt. eigenvalues --   -0.09647   0.25747   0.34211   0.87449   0.91385
 Alpha virt. eigenvalues --    0.91385   1.01653   1.24990   1.24990   1.26454
 Alpha virt. eigenvalues --    1.41054   1.41054   1.43064   2.15605   2.36463

  Beta  occ. eigenvalues --  -24.72412  -1.12514  -0.42763  -0.42763  -0.32941
  Beta virt. eigenvalues --   -0.25574  -0.09223   0.25559   0.34840   0.92877
  Beta virt. eigenvalues --    0.92877   0.96652   1.05709   1.24685   1.24685
  Beta virt. eigenvalues --    1.26094   1.41704   1.41704   1.43704   2.16075

 Mulliken charges and spin densities:
               1          2
     1  H    0.006759  -0.954862
     2  H    0.002329   0.965099
     3  F   -0.009088   0.989763
 Sum of Mulliken charges =   0.00000   1.00000

 Dipole moment (field-independent basis, Debye):
    X=             -0.1928    Y=             -0.0000    Z=             -0.0000  Tot=              0.1928
 Quadrupole moment (field-independent basis, Debye-Ang):
   XX=             -7.0109   YY=             -7.6702   ZZ=             -7.6702
   XY=             -0.0000   XZ=             -0.0000   YZ=             -0.0000

  Exact polarizability:      32.577      -0.000       2.039      -0.000       0.000       2.039
 Approx polarizability:      24.390      -0.000       1.929      -0.000      -0.000       1.929

 ******    2 imaginary frequencies (negative Signs) ******

                      1                      2                      3
                      A                      A                      A
 Frequencies --   -717.2139              -132.9393               263.3862
 Red. masses --      1.0080                 1.1083                 1.0141
 Frc consts  --      0.3055                 0.0115                 0.0414
 IR Inten    --      5.0352                 5.2576                 0.0213

                      4
                      A
 Frequencies --    263.3862
 Red. masses --      1.0141
 Frc consts  --      0.0414
 IR Inten    --      0.0213

 - Thermochemistry -
 -------------------
 Temperature   298.150 Kelvin.  Pressure   1.00000 Atm.
 Atom     1 has atomic number  1 and mass   1.00783

 Molecular mass:    21.01405 amu.
 Principal axes and moments of inertia in atomic units:
                           1         2         3
     Eigenvalues --     0.00000 159.17863 159.17863
           X            1.00000  -0.00000   0.00000
           Y            0.00000   1.00000   0.00000
           Z            0.00000   0.00000   1.00000
 This molecule is a prolate symmetric top.
 Rotational symmetry number  1.
 Rotational temperature (Kelvin)      0.54413
 Rotational constant (GHZ):          11.337836
    2 imaginary frequencies ignored.
 Zero-point vibrational energy       3150.8 (Joules/Mol)
                                    0.75306 (Kcal/Mol)
 Warning -- explicit consideration of   2 degrees of freedom as
           vibrations may cause significant error
 Vibrational temperatures:    378.95   378.95
          (Kelvin)

 Zero-point correction=                           0.001200 (Hartree/Particle)
 Thermal correction to Energy=                    0.004496
 Thermal correction to Enthalpy=                  0.005441
 Thermal correction to Gibbs Free Energy=        -0.020332
 Sum of electronic and zero-point Energies=           -100.762257
 Sum of electronic and thermal Energies=              -100.758960
 Sum of electronic and thermal Enthalpies=            -100.758016
 Sum of electronic and thermal Free Energies=         -100.783789

                     E (Thermal)             CV                S
                      KCal/Mol        Cal/Mol-Kelvin    Cal/Mol-Kelvin
 Total                    2.822              8.448             54.243
 Electronic               0.000              0.000              1.377
 Translational            0.889              2.981             35.068
 Rotational               0.592              1.987             14.519
 Vibrational              1.340              3.480              3.278
 Vibration     1          0.670              1.740              1.639
 Vibration     2          0.670              1.740              1.639

 Normal termination of Gaussian 16 at Fri Aug 22 22:39:43 2025.
