 Gaussian 16, Revision C.01,
 Gaussian 16:  ES64L-G16RevC.01  3-Jul-2019

 -----------------------------------------
 # sp b3lyp/6-311g** Force nosymm scf=(qc)
 -----------------------------------------

 -------------------
 Title Card Required
 -------------------
 Symbolic Z-matrix:
 Charge =  0 Multiplicity = 2

                          Input orientation:
 ---------------------------------------------------------------------
 Center     Atomic      Atomic             Coordinates (Angstroms)
 Number     Number       Type             X           Y           Z
 ---------------------------------------------------------------------
      1          1           0        0.000000    0.000000    0.000000
      2          1           0       -0.550000    0.000000    0.000000
      3          9           0        2.750000    0.000000    0.000000
 ---------------------------------------------------------------------

 SCF Done:  E(UB3LYP) =  -100.894780757     a.u. after    6 cycles

 Alpha  occ. eigenvalues --  -24.76689  -1.22470  -0.55658  -0.48066  -0.46806
 Alpha  occ. eigenvalues --   -0.46478
 Alpha virt. eigenvalues --    0.10012   0.19052   0.54958   0.85823   0.90692
 Alpha virt. eigenvalues --    0.93821   1.10419   1.11288   1.11300   1.61917
 Alpha virt. eigenvalues --    1.83271   1.96418   1.96433   2.37932   3.64615

  Beta  occ. eigenvalues --  -24.73525  -1.13379  -0.47790  -0.43634  -0.43579
  Beta virt. eigenvalues --   -0.26274   0.10096   0.19107   0.55078   0.92190
  Beta virt. eigenvalues --    0.95275   0.95758   1.11289   1.11299   1.13919
  Beta virt. eigenvalues --    1.61937   1.83294   1.96417   1.96432   2.37942

 Mulliken charges and spin densities:
               1          2
     1  H   -0.010616  -0.002301
     2  H   -0.002414   0.000378
     3  F    0.013030   1.001923
 Sum of Mulliken charges =   0.00000   1.00000

 Dipole moment (field-independent basis, Debye):
    X=              0.1123    Y=             -0.0000    Z=              0.0000  Tot=              0.1123
 Quadrupole moment (field-independent basis, Debye-Ang):
   XX=             -5.9641   YY=             -5.8168   ZZ=             -6.6671
   XY=             -0.0000   XZ=              0.0000   YZ=              0.0747

  Exact polarizability:       6.416       0.000       2.302       0.000       0.039       1.856
 Approx polarizability:       6.772       0.000       2.501       0.000       0.049       1.940

 ******    2 imaginary frequencies (negative Signs) ******

                      1                      2                      3
                      A                      A                      A
 Frequencies --  -3685.7770             -3684.7421               120.1177
 Red. masses --      1.0087                 1.0087                 1.1085
 Frc consts  --      8.0733                 8.0688                 0.0094
 IR Inten    --      0.0860                 0.0897                 0.2098

                      4
                      A
 Frequencies --   8342.7942
 Red. masses --      1.0078
 Frc consts  --     41.3293
 IR Inten    --      0.7415

 - Thermochemistry -
 -------------------
 Temperature   298.150 Kelvin.  Pressure   1.00000 Atm.
 Atom     1 has atomic number  1 and mass   1.00783

 Molecular mass:    21.01405 amu.
 Principal axes and moments of inertia in atomic units:
                           1         2         3
     Eigenvalues --     0.00000  60.09286  60.09286
           X            1.00000  -0.00000   0.00000
           Y            0.00000   1.00000   0.00000
           Z            0.00000   0.00000   1.00000
 This molecule is a prolate symmetric top.
 Rotational symmetry number  1.
 Rotational temperature (Kelvin)      1.44133
 Rotational constant (GHZ):          30.032539
    2 imaginary frequencies ignored.
 Zero-point vibrational energy      50619.5 (Joules/Mol)
                                   12.09834 (Kcal/Mol)
 Warning -- explicit consideration of   1 degrees of freedom as
           vibrations may cause significant error
 Vibrational temperatures:    172.82 12003.42
          (Kelvin)

 Zero-point correction=                           0.019280 (Hartree/Particle)
 Thermal correction to Energy=                    0.022337
 Thermal correction to Enthalpy=                  0.023281
 Thermal correction to Gibbs Free Energy=        -0.001486
 Sum of electronic and zero-point Energies=           -100.875501
 Sum of electronic and thermal Energies=              -100.872444
 Sum of electronic and thermal Enthalpies=            -100.871499
 Sum of electronic and thermal Free Energies=         -100.896267

                     E (Thermal)             CV                S
                      KCal/Mol        Cal/Mol-Kelvin    Cal/Mol-Kelvin
 Total                   14.017              6.900             52.127
 Electronic               0.000              0.000              1.377
 Translational            0.889              2.981             35.068
 Rotational               0.592              1.987             12.583
 Vibrational             12.536              1.932              3.098
 Vibration     1          0.609              1.932              3.098

 Normal termination of Gaussian 16 at Fri Aug 22 18:27:49 2025.
