 Gaussian 16, Revision C.01,
 Gaussian 16:  ES64L-G16RevC.01  3-Jul-2019

 -----------------------------------------
 # sp b3lyp/6-311g** Force nosymm scf=(qc)
 -----------------------------------------

 -------------------
 Title Card Required
 -------------------
 Symbolic Z-matrix:
 Charge =  0 Multiplicity = 2

                          Input orientation:
 ---------------------------------------------------------------------
 Center     Atomic      Atomic             Coordinates (Angstroms)
 Number     Number       Type             X           Y           Z
 ---------------------------------------------------------------------
      1          1           0        0.000000    0.000000    0.000000
      2          1           0       -1.500000    0.000000    0.000000
      3          9           0        1.600000    0.000000    0.000000
 ---------------------------------------------------------------------

 SCF Done:  E(UB3LYP) =  -100.864327475     a.u. after   14 cycles

 Alpha  occ. eigenvalues --  -24.65907  -1.12482  -0.47126  -0.38813  -0.37960
 Alpha  occ. eigenvalues --   -0.37960
 Alpha virt. eigenvalues --   -0.08100   0.21155   0.29409   0.92916   0.93623
 Alpha virt. eigenvalues --    0.93623   1.03384   1.15353   1.15353   1.39919
 Alpha virt. eigenvalues --    1.39919   1.43889   1.86912   2.18562   2.42712

  Beta  occ. eigenvalues --  -24.64139  -1.07676  -0.40483  -0.36250  -0.36250
  Beta virt. eigenvalues --   -0.22219  -0.05115   0.24098   0.30136   0.93804
  Beta virt. eigenvalues --    0.93804   0.97203   1.06871   1.20823   1.20823
  Beta virt. eigenvalues --    1.41147   1.41147   1.49078   1.90247   2.21043

 Mulliken charges and spin densities:
               1          2
     1  H    0.206084  -0.269536
     2  H    0.072751   0.719505
     3  F   -0.278835   0.550031
 Sum of Mulliken charges =   0.00000   1.00000

 Dipole moment (field-independent basis, Debye):
    X=             -2.7055    Y=              0.0000    Z=              0.0000  Tot=              2.7055
 Quadrupole moment (field-independent basis, Debye-Ang):
   XX=             -8.1411   YY=             -7.3057   ZZ=             -7.3057
   XY=             -0.0000   XZ=             -0.0000   YZ=              0.0000

  Exact polarizability:      39.787      -0.000       2.253      -0.000       0.000       2.253
 Approx polarizability:      59.117       0.000       2.191       0.000      -0.000       2.191

 ******    2 imaginary frequencies (negative Signs) ******

                      1                      2                      3
                      A                      A                      A
 Frequencies --  -2549.7561              -496.2498              1055.3994
 Red. masses --      1.0215                 1.0925                 1.0172
 Frc consts  --      3.9127                 0.1585                 0.6675
 IR Inten    --    521.5235                 1.2663                18.4004

                      4
                      A
 Frequencies --   1055.3994
 Red. masses --      1.0172
 Frc consts  --      0.6675
 IR Inten    --     18.4004

 - Thermochemistry -
 -------------------
 Temperature   298.150 Kelvin.  Pressure   1.00000 Atm.
 Atom     1 has atomic number  1 and mass   1.00783

 Molecular mass:    21.01405 amu.
 Principal axes and moments of inertia in atomic units:
                           1         2         3
     Eigenvalues --     0.00000  39.98705  39.98705
           X            1.00000  -0.00000   0.00000
           Y            0.00000   1.00000   0.00000
           Z            0.00000   0.00000   1.00000
 This molecule is a prolate symmetric top.
 Rotational symmetry number  1.
 Rotational temperature (Kelvin)      2.16605
 Rotational constant (GHZ):          45.133145
    2 imaginary frequencies ignored.
 Zero-point vibrational energy      12625.4 (Joules/Mol)
                                    3.01754 (Kcal/Mol)
 Vibrational temperatures:   1518.48  1518.48
          (Kelvin)

 Zero-point correction=                           0.004809 (Hartree/Particle)
 Thermal correction to Energy=                    0.007229
 Thermal correction to Enthalpy=                  0.008173
 Thermal correction to Gibbs Free Energy=        -0.014809
 Sum of electronic and zero-point Energies=           -100.859519
 Sum of electronic and thermal Energies=              -100.857099
 Sum of electronic and thermal Enthalpies=            -100.856155
 Sum of electronic and thermal Free Energies=         -100.879136

                     E (Thermal)             CV                S
                      KCal/Mol        Cal/Mol-Kelvin    Cal/Mol-Kelvin
 Total                    4.536              5.609             48.369
 Electronic               0.000              0.000              1.377
 Translational            0.889              2.981             35.068
 Rotational               0.592              1.987             11.774
 Vibrational              3.055              0.641              0.150

 Normal termination of Gaussian 16 at Fri Aug 22 16:30:42 2025.
