 Gaussian 16, Revision C.01,
 Gaussian 16:  ES64L-G16RevC.01  3-Jul-2019

 -----------------------------------------
 # sp b3lyp/6-311g** Force nosymm scf=(qc)
 -----------------------------------------

 -------------------
 Title Card Required
 -------------------
 Symbolic Z-matrix:
 Charge =  0 Multiplicity = 2

                          Input orientation:
 ---------------------------------------------------------------------
 Center     Atomic      Atomic             Coordinates (Angstroms)
 Number     Number       Type             X           Y           Z
 ---------------------------------------------------------------------
      1          1           0        0.000000    0.000000    0.000000
      2          1           0       -3.400000    0.000000    0.000000
      3          9           0        3.550000    0.000000    0.000000
 ---------------------------------------------------------------------

 SCF Done:  E(UB3LYP) =  -100.759149626     a.u. after   30 cycles

 Alpha  occ. eigenvalues --  -24.75467  -1.21424  -0.54590  -0.45834  -0.45834
 Alpha  occ. eigenvalues --   -0.32343
 Alpha virt. eigenvalues --   -0.07127   0.24402   0.36952   0.87452   0.91431
 Alpha virt. eigenvalues --    0.91431   1.01694   1.25165   1.25165   1.25380
 Alpha virt. eigenvalues --    1.44984   1.45135   1.45135   2.15172   2.40897

  Beta  occ. eigenvalues --  -24.72348  -1.12460  -0.42708  -0.42708  -0.32777
  Beta virt. eigenvalues --   -0.25525  -0.06642   0.24177   0.37781   0.92922
  Beta virt. eigenvalues --    0.92922   0.96623   1.05722   1.24669   1.24669
  Beta virt. eigenvalues --    1.24862   1.45681   1.45919   1.45919   2.15360

 Mulliken charges and spin densities:
               1          2
     1  H    0.009814  -0.986236
     2  H    0.000213   0.997283
     3  F   -0.010028   0.988953
 Sum of Mulliken charges =  -0.00000   1.00000

 Dipole moment (field-independent basis, Debye):
    X=             -0.1867    Y=             -0.0000    Z=             -0.0000  Tot=              0.1867
 Quadrupole moment (field-independent basis, Debye-Ang):
   XX=             -7.3147   YY=             -7.6239   ZZ=             -7.6239
   XY=             -0.0000   XZ=             -0.0000   YZ=             -0.0000

  Exact polarizability:      22.648      -0.000       2.036       0.000      -0.000       2.036
 Approx polarizability:      17.561      -0.000       1.933      -0.000       0.000       1.933

 ******    2 imaginary frequencies (negative Signs) ******

                      1                      2                      3
                      A                      A                      A
 Frequencies --   -253.2684              -107.8372                78.4777
 Red. masses --      1.0211                 1.0929                 1.0174
 Frc consts  --      0.0386                 0.0075                 0.0037
 IR Inten    --      8.1321                 1.6652                 0.0816

                      4
                      A
 Frequencies --     78.4777
 Red. masses --      1.0174
 Frc consts  --      0.0037
 IR Inten    --      0.0816

 - Thermochemistry -
 -------------------
 Temperature   298.150 Kelvin.  Pressure   1.00000 Atm.
 Atom     1 has atomic number  1 and mass   1.00783

 Molecular mass:    21.01405 amu.
 Principal axes and moments of inertia in atomic units:
                           1         2         3
     Eigenvalues --     0.00000 200.16770 200.16770
           X            1.00000  -0.00000   0.00000
           Y            0.00000   1.00000   0.00000
           Z            0.00000   0.00000   1.00000
 This molecule is a prolate symmetric top.
 Rotational symmetry number  1.
 Rotational temperature (Kelvin)      0.43271
 Rotational constant (GHZ):           9.016146
    2 imaginary frequencies ignored.
 Zero-point vibrational energy        938.8 (Joules/Mol)
                                    0.22438 (Kcal/Mol)
 Warning -- explicit consideration of   2 degrees of freedom as
           vibrations may cause significant error
 Vibrational temperatures:    112.91   112.91
          (Kelvin)

 Zero-point correction=                           0.000358 (Hartree/Particle)
 Thermal correction to Energy=                    0.004271
 Thermal correction to Enthalpy=                  0.005216
 Thermal correction to Gibbs Free Energy=        -0.022949
 Sum of electronic and zero-point Energies=           -100.758792
 Sum of electronic and thermal Energies=              -100.754878
 Sum of electronic and thermal Enthalpies=            -100.753934
 Sum of electronic and thermal Free Energies=         -100.782098

                     E (Thermal)             CV                S
                      KCal/Mol        Cal/Mol-Kelvin    Cal/Mol-Kelvin
 Total                    2.680              8.895             59.277
 Electronic               0.000              0.000              1.377
 Translational            0.889              2.981             35.068
 Rotational               0.592              1.987             14.974
 Vibrational              1.199              3.927              7.857
 Vibration     1          0.600              1.964              3.929
 Vibration     2          0.600              1.964              3.929

 Normal termination of Gaussian 16 at Fri Aug 22 22:41:15 2025.
