 Gaussian 16, Revision C.01,
 Gaussian 16:  ES64L-G16RevC.01  3-Jul-2019

 -----------------------------------------
 # sp b3lyp/6-311g** Force nosymm scf=(qc)
 -----------------------------------------

 -------------------
 Title Card Required
 -------------------
 Symbolic Z-matrix:
 Charge =  0 Multiplicity = 2

                          Input orientation:
 ---------------------------------------------------------------------
 Center     Atomic      Atomic             Coordinates (Angstroms)
 Number     Number       Type             X           Y           Z
 ---------------------------------------------------------------------
      1          1           0        0.000000    0.000000    0.000000
      2          1           0       -3.000000    0.000000    0.000000
      3          9           0        3.350000    0.000000    0.000000
 ---------------------------------------------------------------------

 SCF Done:  E(UB3LYP) =  -100.760339609     a.u. after   29 cycles

 Alpha  occ. eigenvalues --  -24.75115  -1.21097  -0.54236  -0.45538  -0.45538
 Alpha  occ. eigenvalues --   -0.32508
 Alpha virt. eigenvalues --   -0.08274   0.24889   0.35647   0.88127   0.91649
 Alpha virt. eigenvalues --    0.91649   1.02270   1.25029   1.25029   1.25765
 Alpha virt. eigenvalues --    1.43528   1.43528   1.43581   2.15667   2.39484

  Beta  occ. eigenvalues --  -24.72019  -1.12206  -0.42436  -0.42436  -0.33076
  Beta virt. eigenvalues --   -0.25345  -0.07539   0.24685   0.36744   0.93132
  Beta virt. eigenvalues --    0.93132   0.97175   1.06235   1.24364   1.24364
  Beta virt. eigenvalues --    1.25050   1.44671   1.44707   1.44707   2.16107

 Mulliken charges and spin densities:
               1          2
     1  H    0.015857  -0.974037
     2  H    0.000885   0.992511
     3  F   -0.016742   0.981525
 Sum of Mulliken charges =  -0.00000   1.00000

 Dipole moment (field-independent basis, Debye):
    X=             -0.3010    Y=             -0.0000    Z=             -0.0000  Tot=              0.3010
 Quadrupole moment (field-independent basis, Debye-Ang):
   XX=             -7.5453   YY=             -7.6323   ZZ=             -7.6323
   XY=             -0.0000   XZ=             -0.0000   YZ=             -0.0000

  Exact polarizability:      30.007      -0.000       2.027      -0.000      -0.000       2.027
 Approx polarizability:      24.723      -0.000       1.930      -0.000       0.000       1.930

 ******    2 imaginary frequencies (negative Signs) ******

                      1                      2                      3
                      A                      A                      A
 Frequencies --   -376.8253              -149.9303               132.0975
 Red. masses --      1.0138                 1.1014                 1.0167
 Frc consts  --      0.0848                 0.0146                 0.0105
 IR Inten    --     13.2479                 5.4093                 0.2149

                      4
                      A
 Frequencies --    132.0975
 Red. masses --      1.0167
 Frc consts  --      0.0105
 IR Inten    --      0.2149

 - Thermochemistry -
 -------------------
 Temperature   298.150 Kelvin.  Pressure   1.00000 Atm.
 Atom     1 has atomic number  1 and mass   1.00783

 Molecular mass:    21.01405 amu.
 Principal axes and moments of inertia in atomic units:
                           1         2         3
     Eigenvalues --     0.00000 169.27031 169.27031
           X            1.00000  -0.00000   0.00000
           Y            0.00000   1.00000   0.00000
           Z            0.00000   0.00000   1.00000
 This molecule is a prolate symmetric top.
 Rotational symmetry number  1.
 Rotational temperature (Kelvin)      0.51169
 Rotational constant (GHZ):          10.661889
    2 imaginary frequencies ignored.
 Zero-point vibrational energy       1580.2 (Joules/Mol)
                                    0.37769 (Kcal/Mol)
 Warning -- explicit consideration of   2 degrees of freedom as
           vibrations may cause significant error
 Vibrational temperatures:    190.06   190.06
          (Kelvin)

 Zero-point correction=                           0.000602 (Hartree/Particle)
 Thermal correction to Energy=                    0.004312
 Thermal correction to Enthalpy=                  0.005257
 Thermal correction to Gibbs Free Energy=        -0.021787
 Sum of electronic and zero-point Energies=           -100.759738
 Sum of electronic and thermal Energies=              -100.756027
 Sum of electronic and thermal Enthalpies=            -100.755083
 Sum of electronic and thermal Free Energies=         -100.782126

                     E (Thermal)             CV                S
                      KCal/Mol        Cal/Mol-Kelvin    Cal/Mol-Kelvin
 Total                    2.706              8.811             56.917
 Electronic               0.000              0.000              1.377
 Translational            0.889              2.981             35.068
 Rotational               0.592              1.987             14.641
 Vibrational              1.225              3.843              5.831
 Vibration     1          0.612              1.921              2.915
 Vibration     2          0.612              1.921              2.915

 Normal termination of Gaussian 16 at Fri Aug 22 21:02:35 2025.
