 Gaussian 16, Revision C.01,
 Gaussian 16:  ES64L-G16RevC.01  3-Jul-2019

 -----------------------------------------
 # sp b3lyp/6-311g** Force nosymm scf=(qc)
 -----------------------------------------

 -------------------
 Title Card Required
 -------------------
 Symbolic Z-matrix:
 Charge =  0 Multiplicity = 2

                          Input orientation:
 ---------------------------------------------------------------------
 Center     Atomic      Atomic             Coordinates (Angstroms)
 Number     Number       Type             X           Y           Z
 ---------------------------------------------------------------------
      1          1           0        0.000000    0.000000    0.000000
      2          1           0       -2.500000    0.000000    0.000000
      3          9           0        0.650000    0.000000    0.000000
 ---------------------------------------------------------------------

 SCF Done:  E(UB3LYP) =  -100.800829606     a.u. after    6 cycles

 Alpha  occ. eigenvalues --  -24.62896  -1.31269  -0.59792  -0.42312  -0.42312
 Alpha  occ. eigenvalues --   -0.34388
 Alpha virt. eigenvalues --    0.08420   0.25556   0.55321   0.92927   0.92927
 Alpha virt. eigenvalues --    0.94701   1.17858   1.23161   1.23161   1.44835
 Alpha virt. eigenvalues --    1.46950   1.46950   1.95482   2.14837   3.09722

  Beta  occ. eigenvalues --  -24.62888  -1.31245  -0.59767  -0.42307  -0.42307
  Beta virt. eigenvalues --   -0.08147   0.09783   0.38213   0.55055   0.92921
  Beta virt. eigenvalues --    0.92921   0.94823   1.29444   1.45942   1.45942
  Beta virt. eigenvalues --    1.46953   1.46953   1.57406   1.95590   2.43608

 Mulliken charges and spin densities:
               1          2
     1  H    0.249534   0.003500
     2  H    0.004516   0.993613
     3  F   -0.254050   0.002887
 Sum of Mulliken charges =   0.00000   1.00000

 Dipole moment (field-independent basis, Debye):
    X=             -1.5605    Y=              0.0000    Z=              0.0000  Tot=              1.5605
 Quadrupole moment (field-independent basis, Debye-Ang):
   XX=             -6.9653   YY=             -6.6012   ZZ=             -6.6012
   XY=              0.0000   XZ=              0.0000   YZ=             -0.0000

  Exact polarizability:       5.127       0.000       2.470       0.000      -0.000       2.470
 Approx polarizability:       5.197       0.000       2.454      -0.000      -0.000       2.454

 ******    2 imaginary frequencies (negative Signs) ******

                      1                      2                      3
                      A                      A                      A
 Frequencies --  -4559.9160             -4559.9160               116.9312
 Red. masses --      1.0384                 1.0384                 1.0532
 Frc consts  --     12.7207                12.7207                 0.0085
 IR Inten    --    210.9085               210.9085                 0.1917

                      4
                      A
 Frequencies --  10873.1402
 Red. masses --      1.0583
 Frc consts  --     73.7180
 IR Inten    --    116.1873

 - Thermochemistry -
 -------------------
 Temperature   298.150 Kelvin.  Pressure   1.00000 Atm.
 Atom     1 has atomic number  1 and mass   1.00783

 Molecular mass:    21.01405 amu.
 Principal axes and moments of inertia in atomic units:
                           1         2         3
     Eigenvalues --     0.00000  34.73930  34.73930
           X            1.00000  -0.00000   0.00000
           Y            0.00000   1.00000   0.00000
           Z            0.00000   0.00000   1.00000
 This molecule is a prolate symmetric top.
 Rotational symmetry number  1.
 Rotational temperature (Kelvin)      2.49325
 Rotational constant (GHZ):          51.950996
    2 imaginary frequencies ignored.
 Zero-point vibrational energy      65735.2 (Joules/Mol)
                                   15.71110 (Kcal/Mol)
 Warning -- explicit consideration of   1 degrees of freedom as
           vibrations may cause significant error
 Vibrational temperatures:    168.24 15644.02
          (Kelvin)

 Zero-point correction=                           0.025037 (Hartree/Particle)
 Thermal correction to Energy=                    0.028100
 Thermal correction to Enthalpy=                  0.029045
 Thermal correction to Gibbs Free Energy=         0.004770
 Sum of electronic and zero-point Energies=           -100.775792
 Sum of electronic and thermal Energies=              -100.772729
 Sum of electronic and thermal Enthalpies=            -100.771785
 Sum of electronic and thermal Free Energies=         -100.796059

                     E (Thermal)             CV                S
                      KCal/Mol        Cal/Mol-Kelvin    Cal/Mol-Kelvin
 Total                   17.633              6.903             51.090
 Electronic               0.000              0.000              1.377
 Translational            0.889              2.981             35.068
 Rotational               0.592              1.987             11.494
 Vibrational             16.152              1.935              3.150
 Vibration     1          0.608              1.935              3.150

 Normal termination of Gaussian 16 at Fri Aug 22 15:44:24 2025.
