 Gaussian 16, Revision C.01,
 Gaussian 16:  ES64L-G16RevC.01  3-Jul-2019

 -----------------------------------------
 # sp b3lyp/6-311g** Force nosymm scf=(qc)
 -----------------------------------------

 -------------------
 Title Card Required
 -------------------
 Symbolic Z-matrix:
 Charge =  0 Multiplicity = 2

                          Input orientation:
 ---------------------------------------------------------------------
 Center     Atomic      Atomic             Coordinates (Angstroms)
 Number     Number       Type             X           Y           Z
 ---------------------------------------------------------------------
      1          1           0        0.000000    0.000000    0.000000
      2          1           0       -0.550000    0.000000    0.000000
      3          9           0        0.550000    0.000000    0.000000
 ---------------------------------------------------------------------

 SCF Done:  E(UB3LYP) =  -100.241068374     a.u. after    6 cycles

 Alpha  occ. eigenvalues --  -24.72434  -1.56524  -0.77181  -0.52768  -0.52768
 Alpha  occ. eigenvalues --   -0.23381
 Alpha virt. eigenvalues --    0.16305   0.20413   0.81715   0.81726   0.81726
 Alpha virt. eigenvalues --    0.96622   1.12474   1.12474   1.42816   1.51657
 Alpha virt. eigenvalues --    2.08928   2.08928   2.23534   3.68398   3.68398

  Beta  occ. eigenvalues --  -24.71595  -1.53547  -0.74736  -0.52070  -0.52070
  Beta virt. eigenvalues --   -0.06039   0.17037   0.26762   0.82785   0.83080
  Beta virt. eigenvalues --    0.83080   1.02573   1.17864   1.17864   1.45098
  Beta virt. eigenvalues --    1.55296   2.14456   2.14456   2.31677   3.68817

 Mulliken charges and spin densities:
               1          2
     1  H    0.222301  -0.142104
     2  H   -0.252736   1.100329
     3  F    0.030435   0.041775
 Sum of Mulliken charges =   0.00000   1.00000

 Dipole moment (field-independent basis, Debye):
    X=              0.2611    Y=              0.0000    Z=             -0.0000  Tot=              0.2611
 Quadrupole moment (field-independent basis, Debye-Ang):
   XX=             -7.7554   YY=             -6.5385   ZZ=             -6.5385
   XY=              0.0000   XZ=             -0.0000   YZ=             -0.0000

  Exact polarizability:       8.089      -0.000       2.385       0.000      -0.000       2.385
 Approx polarizability:       7.657      -0.000       2.508       0.000      -0.000       2.508

 ******    2 imaginary frequencies (negative Signs) ******

                      1                      2                      3
                      A                      A                      A
 Frequencies --  -8257.7454             -8257.7454              6045.9107
 Red. masses --      1.0179                 1.0179                 1.0672
 Frc consts  --     40.8976                40.8976                22.9826
 IR Inten    --    211.6282               211.6282               750.4990

                      4
                      A
 Frequencies --  16709.7134
 Red. masses --      1.0446
 Frc consts  --    171.8513
 IR Inten    --      0.1912

 - Thermochemistry -
 -------------------
 Temperature   298.150 Kelvin.  Pressure   1.00000 Atm.
 Atom     1 has atomic number  1 and mass   1.00783

 Molecular mass:    21.01405 amu.
 Principal axes and moments of inertia in atomic units:
                           1         2         3
     Eigenvalues --     0.00000   4.97358   4.97358
           X            1.00000  -0.00000   0.00000
           Y            0.00000   1.00000   0.00000
           Z            0.00000   0.00000   1.00000
 This molecule is a prolate symmetric top.
 Rotational symmetry number  1.
 Rotational temperature (Kelvin)     17.41481
 Rotational constant (GHZ):         362.865762
    2 imaginary frequencies ignored.
 Zero-point vibrational energy     136108.9 (Joules/Mol)
                                   32.53080 (Kcal/Mol)
 Vibrational temperatures:   8698.72 24041.55
          (Kelvin)

 Zero-point correction=                           0.051841 (Hartree/Particle)
 Thermal correction to Energy=                    0.054202
 Thermal correction to Enthalpy=                  0.055146
 Thermal correction to Gibbs Free Energy=         0.034203
 Sum of electronic and zero-point Energies=           -100.189227
 Sum of electronic and thermal Energies=              -100.186867
 Sum of electronic and thermal Enthalpies=            -100.185923
 Sum of electronic and thermal Free Energies=         -100.206865

                     E (Thermal)             CV                S
                      KCal/Mol        Cal/Mol-Kelvin    Cal/Mol-Kelvin
 Total                   34.012              4.968             44.077
 Electronic               0.000              0.000              1.377
 Translational            0.889              2.981             35.068
 Rotational               0.592              1.987              7.631
 Vibrational             32.531              0.000              0.000

 Normal termination of Gaussian 16 at Fri Aug 22 15:38:19 2025.
