 Gaussian 16, Revision C.01,
 Gaussian 16:  ES64L-G16RevC.01  3-Jul-2019

 -----------------------------------------
 # sp b3lyp/6-311g** Force nosymm scf=(qc)
 -----------------------------------------

 -------------------
 Title Card Required
 -------------------
 Symbolic Z-matrix:
 Charge =  0 Multiplicity = 2

                          Input orientation:
 ---------------------------------------------------------------------
 Center     Atomic      Atomic             Coordinates (Angstroms)
 Number     Number       Type             X           Y           Z
 ---------------------------------------------------------------------
      1          1           0        0.000000    0.000000    0.000000
      2          1           0       -2.050000    0.000000    0.000000
      3          9           0        2.200000    0.000000    0.000000
 ---------------------------------------------------------------------

 SCF Done:  E(UB3LYP) =  -100.788715632     a.u. after   13 cycles

 Alpha  occ. eigenvalues --  -24.69745  -1.16043  -0.48828  -0.41016  -0.41016
 Alpha  occ. eigenvalues --   -0.35595
 Alpha virt. eigenvalues --   -0.13340   0.24366   0.31696   0.88432   0.94558
 Alpha virt. eigenvalues --    0.94558   1.05455   1.22315   1.22315   1.26485
 Alpha virt. eigenvalues --    1.34436   1.34436   1.52109   2.10979   2.32182

  Beta  occ. eigenvalues --  -24.67113  -1.08611  -0.38405  -0.38405  -0.36389
  Beta virt. eigenvalues --   -0.22289  -0.11604   0.26424   0.32151   0.92645
  Beta virt. eigenvalues --    0.95680   0.95680   1.08538   1.22465   1.22465
  Beta virt. eigenvalues --    1.35009   1.37004   1.37004   1.49715   2.11503

 Mulliken charges and spin densities:
               1          2
     1  H    0.103328  -0.722758
     2  H    0.035893   0.893572
     3  F   -0.139221   0.829186
 Sum of Mulliken charges =  -0.00000   1.00000

 Dipole moment (field-independent basis, Debye):
    X=             -1.8920    Y=             -0.0000    Z=             -0.0000  Tot=              1.8920
 Quadrupole moment (field-independent basis, Debye-Ang):
   XX=             -8.6253   YY=             -7.5997   ZZ=             -7.5997
   XY=              0.0000   XZ=              0.0000   YZ=             -0.0000

  Exact polarizability:      52.973       0.000       2.030       0.000       0.000       2.030
 Approx polarizability:      60.227      -0.000       1.940      -0.000       0.000       1.940

 ******    2 imaginary frequencies (negative Signs) ******

                      1                      2                      3
                      A                      A                      A
 Frequencies --  -1384.9476              -499.3993               567.6708
 Red. masses --      1.0141                 1.1010                 1.0171
 Frc consts  --      1.1461                 0.1618                 0.1931
 IR Inten    --     87.7149                46.7648                 6.6959

                      4
                      A
 Frequencies --    567.6708
 Red. masses --      1.0171
 Frc consts  --      0.1931
 IR Inten    --      6.6959

 - Thermochemistry -
 -------------------
 Temperature   298.150 Kelvin.  Pressure   1.00000 Atm.
 Atom     1 has atomic number  1 and mass   1.00783

 Molecular mass:    21.01405 amu.
 Principal axes and moments of inertia in atomic units:
                           1         2         3
     Eigenvalues --     0.00000  75.24541  75.24541
           X            1.00000  -0.00000   0.00000
           Y            0.00000   1.00000   0.00000
           Z            0.00000   0.00000   1.00000
 This molecule is a prolate symmetric top.
 Rotational symmetry number  1.
 Rotational temperature (Kelvin)      1.15109
 Rotational constant (GHZ):          23.984734
    2 imaginary frequencies ignored.
 Zero-point vibrational energy       6790.9 (Joules/Mol)
                                    1.62305 (Kcal/Mol)
 Warning -- explicit consideration of   2 degrees of freedom as
           vibrations may cause significant error
 Vibrational temperatures:    816.75   816.75
          (Kelvin)

 Zero-point correction=                           0.002586 (Hartree/Particle)
 Thermal correction to Energy=                    0.005304
 Thermal correction to Enthalpy=                  0.006248
 Thermal correction to Gibbs Free Energy=        -0.017742
 Sum of electronic and zero-point Energies=           -100.786129
 Sum of electronic and thermal Energies=              -100.783411
 Sum of electronic and thermal Enthalpies=            -100.782467
 Sum of electronic and thermal Free Energies=         -100.806458

                     E (Thermal)             CV                S
                      KCal/Mol        Cal/Mol-Kelvin    Cal/Mol-Kelvin
 Total                    3.328              7.170             50.493
 Electronic               0.000              0.000              1.377
 Translational            0.889              2.981             35.068
 Rotational               0.592              1.987             13.030
 Vibrational              1.847              2.202              1.017
 Vibration     1          0.924              1.101              0.509
 Vibration     2          0.924              1.101              0.509

 Normal termination of Gaussian 16 at Fri Aug 22 17:11:42 2025.
