 Gaussian 16, Revision C.01,
 Gaussian 16:  ES64L-G16RevC.01  3-Jul-2019

 -----------------------------------------
 # sp b3lyp/6-311g** Force nosymm scf=(qc)
 -----------------------------------------

 -------------------
 Title Card Required
 -------------------
 Symbolic Z-matrix:
 Charge =  0 Multiplicity = 2

                          Input orientation:
 ---------------------------------------------------------------------
 Center     Atomic      Atomic             Coordinates (Angstroms)
 Number     Number       Type             X           Y           Z
 ---------------------------------------------------------------------
      1          1           0        0.000000    0.000000    0.000000
      2          1           0       -3.900000    0.000000    0.000000
      3          9           0        3.950000    0.000000    0.000000
 ---------------------------------------------------------------------

 SCF Done:  E(UB3LYP) =  -100.758424857     a.u. after   42 cycles

 Alpha  occ. eigenvalues --  -24.75852  -1.21781  -0.54977  -0.46159  -0.46159
 Alpha  occ. eigenvalues --   -0.32232
 Alpha virt. eigenvalues --   -0.06079   0.24196   0.37871   0.86621   0.91189
 Alpha virt. eigenvalues --    0.91189   1.01119   1.25263   1.25263   1.25295
 Alpha virt. eigenvalues --    1.46352   1.46414   1.46414   2.14657   2.42206

  Beta  occ. eigenvalues --  -24.72708  -1.12741  -0.43008  -0.43008  -0.32449
  Beta virt. eigenvalues --   -0.25716  -0.05891   0.24026   0.38218   0.92687
  Beta virt. eigenvalues --    0.92687   0.95983   1.05239   1.25029   1.25029
  Beta virt. eigenvalues --    1.25046   1.46608   1.46721   1.46721   2.14633

 Mulliken charges and spin densities:
               1          2
     1  H    0.002873  -0.995980
     2  H    0.000025   0.999195
     3  F   -0.002898   0.996785
 Sum of Mulliken charges =  -0.00000   1.00000

 Dipole moment (field-independent basis, Debye):
    X=             -0.0598    Y=             -0.0000    Z=             -0.0000  Tot=              0.0598
 Quadrupole moment (field-independent basis, Debye-Ang):
   XX=             -6.9532   YY=             -7.6195   ZZ=             -7.6195
   XY=             -0.0000   XZ=             -0.0000   YZ=             -0.0000

  Exact polarizability:      11.157      -0.000       2.035      -0.000      -0.000       2.035
 Approx polarizability:       8.270      -0.000       1.937      -0.000       0.000       1.937

 ******    2 imaginary frequencies (negative Signs) ******

                      1                      2                      3
                      A                      A                      A
 Frequencies --   -142.8594               -61.1146                45.4566
 Red. masses --      1.0222                 1.0916                 1.0178
 Frc consts  --      0.0123                 0.0024                 0.0012
 IR Inten    --      1.2893                 0.2387                 0.0081

                      4
                      A
 Frequencies --     45.4566
 Red. masses --      1.0178
 Frc consts  --      0.0012
 IR Inten    --      0.0081

 - Thermochemistry -
 -------------------
 Temperature   298.150 Kelvin.  Pressure   1.00000 Atm.
 Atom     1 has atomic number  1 and mass   1.00783

 Molecular mass:    21.01405 amu.
 Principal axes and moments of inertia in atomic units:
                           1         2         3
     Eigenvalues --     0.00000 253.89965 253.89965
           X            1.00000  -0.00000   0.00000
           Y            0.00000   1.00000   0.00000
           Z            0.00000   0.00000   1.00000
 This molecule is a prolate symmetric top.
 Rotational symmetry number  1.
 Rotational temperature (Kelvin)      0.34113
 Rotational constant (GHZ):           7.108089
    2 imaginary frequencies ignored.
 Zero-point vibrational energy        543.8 (Joules/Mol)
                                    0.12997 (Kcal/Mol)
 Warning -- explicit consideration of   2 degrees of freedom as
           vibrations may cause significant error
 Vibrational temperatures:     65.40    65.40
          (Kelvin)

 Zero-point correction=                           0.000207 (Hartree/Particle)
 Thermal correction to Energy=                    0.004256
 Thermal correction to Enthalpy=                  0.005201
 Thermal correction to Gibbs Free Energy=        -0.024212
 Sum of electronic and zero-point Energies=           -100.758218
 Sum of electronic and thermal Energies=              -100.754168
 Sum of electronic and thermal Enthalpies=            -100.753224
 Sum of electronic and thermal Free Energies=         -100.782637

                     E (Thermal)             CV                S
                      KCal/Mol        Cal/Mol-Kelvin    Cal/Mol-Kelvin
 Total                    2.671              8.927             61.904
 Electronic               0.000              0.000              1.377
 Translational            0.889              2.981             35.068
 Rotational               0.592              1.987             15.447
 Vibrational              1.190              3.959             10.012
 Vibration     1          0.595              1.979              5.006
 Vibration     2          0.595              1.979              5.006

 Normal termination of Gaussian 16 at Sat Aug 23 01:42:38 2025.
