 Gaussian 16, Revision C.01,
 Gaussian 16:  ES64L-G16RevC.01  3-Jul-2019

 -----------------------------------------
 # sp b3lyp/6-311g** Force nosymm scf=(qc)
 -----------------------------------------

 -------------------
 Title Card Required
 -------------------
 Symbolic Z-matrix:
 Charge =  0 Multiplicity = 2

                          Input orientation:
 ---------------------------------------------------------------------
 Center     Atomic      Atomic             Coordinates (Angstroms)
 Number     Number       Type             X           Y           Z
 ---------------------------------------------------------------------
      1          1           0        0.000000    0.000000    0.000000
      2          1           0       -1.550000    0.000000    0.000000
      3          9           0        1.050000    0.000000    0.000000
 ---------------------------------------------------------------------

 SCF Done:  E(UB3LYP) =  -100.960408493     a.u. after    6 cycles

 Alpha  occ. eigenvalues --  -24.63495  -1.14501  -0.51683  -0.37875  -0.37875
 Alpha  occ. eigenvalues --   -0.37219
 Alpha virt. eigenvalues --    0.05728   0.21258   0.32496   0.94086   0.94086
 Alpha virt. eigenvalues --    0.99526   1.14063   1.16403   1.16403   1.40268
 Alpha virt. eigenvalues --    1.40268   1.52751   1.95127   2.33995   2.36445

  Beta  occ. eigenvalues --  -24.63199  -1.13761  -0.49770  -0.37612  -0.37612
  Beta virt. eigenvalues --   -0.16238   0.08446   0.26776   0.35890   0.94234
  Beta virt. eigenvalues --    0.94234   1.00194   1.22796   1.27384   1.27384
  Beta virt. eigenvalues --    1.45232   1.45232   1.55614   2.06080   2.33486

 Mulliken charges and spin densities:
               1          2
     1  H    0.300681  -0.006194
     2  H    0.036801   0.925101
     3  F   -0.337482   0.081093
 Sum of Mulliken charges =   0.00000   1.00000

 Dipole moment (field-independent basis, Debye):
    X=             -2.4061    Y=              0.0000    Z=             -0.0000  Tot=              2.4061
 Quadrupole moment (field-independent basis, Debye-Ang):
   XX=             -7.7412   YY=             -6.8866   ZZ=             -6.8866
   XY=              0.0000   XZ=             -0.0000   YZ=             -0.0000

  Exact polarizability:      14.113       0.000       2.493      -0.000       0.000       2.493
 Approx polarizability:      15.860      -0.000       2.482       0.000       0.000       2.482

 ******    1 imaginary frequencies (negative Signs) ******

                      1                      2                      3
                      A                      A                      A
 Frequencies --   -231.7567              1013.6721              1013.6721
 Red. masses --      1.0413                 1.0233                 1.0233
 Frc consts  --      0.0330                 0.6195                 0.6195
 IR Inten    --      3.5820                96.6327                96.6327

                      4
                      A
 Frequencies --   2164.7789
 Red. masses --      1.0706
 Frc consts  --      2.9560
 IR Inten    --    199.7335

 - Thermochemistry -
 -------------------
 Temperature   298.150 Kelvin.  Pressure   1.00000 Atm.
 Atom     1 has atomic number  1 and mass   1.00783

 Molecular mass:    21.01405 amu.
 Principal axes and moments of inertia in atomic units:
                           1         2         3
     Eigenvalues --     0.00000  25.99765  25.99765
           X            1.00000  -0.00000   0.00000
           Y            0.00000   1.00000   0.00000
           Z            0.00000   0.00000   1.00000
 This molecule is a prolate symmetric top.
 Rotational symmetry number  1.
 Rotational temperature (Kelvin)      3.33161
 Rotational constant (GHZ):          69.419400
    1 imaginary frequencies ignored.
 Zero-point vibrational energy      25074.5 (Joules/Mol)
                                    5.99294 (Kcal/Mol)
 Vibrational temperatures:   1458.45  1458.45  3114.63
          (Kelvin)

 Zero-point correction=                           0.009550 (Hartree/Particle)
 Thermal correction to Energy=                    0.011981
 Thermal correction to Enthalpy=                  0.012925
 Thermal correction to Gibbs Free Energy=        -0.009663
 Sum of electronic and zero-point Energies=           -100.950858
 Sum of electronic and thermal Energies=              -100.948427
 Sum of electronic and thermal Enthalpies=            -100.947483
 Sum of electronic and thermal Free Energies=         -100.970072

                     E (Thermal)             CV                S
                      KCal/Mol        Cal/Mol-Kelvin    Cal/Mol-Kelvin
 Total                    7.518              5.699             47.541
 Electronic               0.000              0.000              1.377
 Translational            0.889              2.981             35.068
 Rotational               0.592              1.987             10.918
 Vibrational              6.037              0.731              0.178

 Normal termination of Gaussian 16 at Fri Aug 22 16:02:37 2025.
