 Gaussian 16, Revision C.01,
 Gaussian 16:  ES64L-G16RevC.01  3-Jul-2019

 -----------------------------------------
 # sp b3lyp/6-311g** Force nosymm scf=(qc)
 -----------------------------------------

 -------------------
 Title Card Required
 -------------------
 Symbolic Z-matrix:
 Charge =  0 Multiplicity = 2

                          Input orientation:
 ---------------------------------------------------------------------
 Center     Atomic      Atomic             Coordinates (Angstroms)
 Number     Number       Type             X           Y           Z
 ---------------------------------------------------------------------
      1          1           0        0.000000    0.000000    0.000000
      2          1           0       -2.600000    0.000000    0.000000
      3          9           0        3.650000    0.000000    0.000000
 ---------------------------------------------------------------------

 SCF Done:  E(UB3LYP) =  -100.761807501     a.u. after   28 cycles

 Alpha  occ. eigenvalues --  -24.75645  -1.21588  -0.54768  -0.45985  -0.45985
 Alpha  occ. eigenvalues --   -0.32554
 Alpha virt. eigenvalues --   -0.09052   0.25616   0.34840   0.87175   0.91317
 Alpha virt. eigenvalues --    0.91317   1.01460   1.25060   1.25060   1.26586
 Alpha virt. eigenvalues --    1.42151   1.42151   1.43180   2.15985   2.37499

  Beta  occ. eigenvalues --  -24.72515  -1.12593  -0.42848  -0.42848  -0.32807
  Beta virt. eigenvalues --   -0.25625  -0.08676   0.25416   0.35394   0.92810
  Beta virt. eigenvalues --    0.92810   0.96429   1.05538   1.24769   1.24769
  Beta virt. eigenvalues --    1.26246   1.42724   1.42724   1.43752   2.16289

 Mulliken charges and spin densities:
               1          2
     1  H    0.005612  -0.969561
     2  H    0.001338   0.977367
     3  F   -0.006949   0.992194
 Sum of Mulliken charges =  -0.00000   1.00000

 Dipole moment (field-independent basis, Debye):
    X=             -0.1470    Y=             -0.0000    Z=              0.0000  Tot=              0.1470
 Quadrupole moment (field-independent basis, Debye-Ang):
   XX=             -6.9836   YY=             -7.6580   ZZ=             -7.6580
   XY=             -0.0000   XZ=              0.0000   YZ=              0.0000

  Exact polarizability:      26.651       0.000       2.016      -0.000      -0.000       2.016
 Approx polarizability:      19.706      -0.000       1.930       0.000      -0.000       1.930

 ******    2 imaginary frequencies (negative Signs) ******

                      1                      2                      3
                      A                      A                      A
 Frequencies --   -579.3625              -115.9490               211.8293
 Red. masses --      1.0080                 1.1083                 1.0144
 Frc consts  --      0.1993                 0.0088                 0.0268
 IR Inten    --      3.2709                 3.3241                 0.0261

                      4
                      A
 Frequencies --    211.8293
 Red. masses --      1.0144
 Frc consts  --      0.0268
 IR Inten    --      0.0261

 - Thermochemistry -
 -------------------
 Temperature   298.150 Kelvin.  Pressure   1.00000 Atm.
 Atom     1 has atomic number  1 and mass   1.00783

 Molecular mass:    21.01405 amu.
 Principal axes and moments of inertia in atomic units:
                           1         2         3
     Eigenvalues --     0.00000 171.61686 171.61686
           X            1.00000  -0.00000   0.00000
           Y            0.00000   1.00000   0.00000
           Z            0.00000   0.00000   1.00000
 This molecule is a prolate symmetric top.
 Rotational symmetry number  1.
 Rotational temperature (Kelvin)      0.50469
 Rotational constant (GHZ):          10.516107
    2 imaginary frequencies ignored.
 Zero-point vibrational energy       2534.0 (Joules/Mol)
                                    0.60565 (Kcal/Mol)
 Warning -- explicit consideration of   2 degrees of freedom as
           vibrations may cause significant error
 Vibrational temperatures:    304.78   304.78
          (Kelvin)

 Zero-point correction=                           0.000965 (Hartree/Particle)
 Thermal correction to Energy=                    0.004410
 Thermal correction to Enthalpy=                  0.005355
 Thermal correction to Gibbs Free Energy=        -0.020858
 Sum of electronic and zero-point Energies=           -100.760842
 Sum of electronic and thermal Energies=              -100.757397
 Sum of electronic and thermal Enthalpies=            -100.756453
 Sum of electronic and thermal Free Energies=         -100.782666

                     E (Thermal)             CV                S
                      KCal/Mol        Cal/Mol-Kelvin    Cal/Mol-Kelvin
 Total                    2.768              8.614             55.169
 Electronic               0.000              0.000              1.377
 Translational            0.889              2.981             35.068
 Rotational               0.592              1.987             14.668
 Vibrational              1.286              3.646              4.056
 Vibration     1          0.643              1.823              2.028
 Vibration     2          0.643              1.823              2.028

 Normal termination of Gaussian 16 at Fri Aug 22 23:36:42 2025.
