 Gaussian 16, Revision C.01,
 Gaussian 16:  ES64L-G16RevC.01  3-Jul-2019

 -----------------------------------------
 # sp b3lyp/6-311g** Force nosymm scf=(qc)
 -----------------------------------------

 -------------------
 Title Card Required
 -------------------
 Symbolic Z-matrix:
 Charge =  0 Multiplicity = 2

                          Input orientation:
 ---------------------------------------------------------------------
 Center     Atomic      Atomic             Coordinates (Angstroms)
 Number     Number       Type             X           Y           Z
 ---------------------------------------------------------------------
      1          1           0        0.000000    0.000000    0.000000
      2          1           0       -2.750000    0.000000    0.000000
      3          9           0        0.500000    0.000000    0.000000
 ---------------------------------------------------------------------

 SCF Done:  E(UB3LYP) =  -100.269050822     a.u. after    6 cycles

 Alpha  occ. eigenvalues --  -24.63016  -1.42330  -0.63500  -0.44315  -0.44315
 Alpha  occ. eigenvalues --   -0.33873
 Alpha virt. eigenvalues --    0.08856   0.25749   0.62548   0.89040   0.90176
 Alpha virt. eigenvalues --    0.90176   1.20822   1.23663   1.23663   1.44158
 Alpha virt. eigenvalues --    1.58531   1.58531   2.00249   2.14910   3.76652

  Beta  occ. eigenvalues --  -24.63013  -1.42320  -0.63495  -0.44314  -0.44314
  Beta virt. eigenvalues --   -0.06721   0.09983   0.38950   0.62206   0.89090
  Beta virt. eigenvalues --    0.90165   0.90165   1.34478   1.48263   1.48263
  Beta virt. eigenvalues --    1.55185   1.58534   1.58534   1.99926   2.45191

 Mulliken charges and spin densities:
               1          2
     1  H    0.121228   0.001923
     2  H    0.003041   0.996394
     3  F   -0.124270   0.001683
 Sum of Mulliken charges =   0.00000   1.00000

 Dipole moment (field-independent basis, Debye):
    X=             -1.3282    Y=              0.0000    Z=              0.0000  Tot=              1.3282
 Quadrupole moment (field-independent basis, Debye-Ang):
   XX=             -6.5449   YY=             -6.4364   ZZ=             -6.4364
   XY=              0.0000   XZ=             -0.0000   YZ=              0.0000

  Exact polarizability:       3.922      -0.000       2.426       0.000       0.000       2.426
 Approx polarizability:       3.956      -0.000       2.406       0.000       0.000       2.406

 ******    2 imaginary frequencies (negative Signs) ******

                      1                      2                      3
                      A                      A                      A
 Frequencies --  -9560.6503             -9560.6503                71.0916
 Red. masses --      1.0432                 1.0432                 1.0532
 Frc consts  --     56.1795                56.1795                 0.0031
 IR Inten    --    272.9303               272.9303                 0.1022

                      4
                      A
 Frequencies --  19159.0520
 Red. masses --      1.0583
 Frc consts  --    228.8818
 IR Inten    --     81.7305

 - Thermochemistry -
 -------------------
 Temperature   298.150 Kelvin.  Pressure   1.00000 Atm.
 Atom     1 has atomic number  1 and mass   1.00783

 Molecular mass:    21.01405 amu.
 Principal axes and moments of inertia in atomic units:
                           1         2         3
     Eigenvalues --     0.00000  36.48700  36.48700
           X            1.00000  -0.00000   0.00000
           Y            0.00000   1.00000   0.00000
           Z            0.00000   0.00000   1.00000
 This molecule is a prolate symmetric top.
 Rotational symmetry number  1.
 Rotational temperature (Kelvin)      2.37383
 Rotational constant (GHZ):          49.462588
    2 imaginary frequencies ignored.
 Zero-point vibrational energy     115021.8 (Joules/Mol)
                                   27.49087 (Kcal/Mol)
 Warning -- explicit consideration of   1 degrees of freedom as
           vibrations may cause significant error
 Vibrational temperatures:    102.29 27565.60
          (Kelvin)

 Zero-point correction=                           0.043809 (Hartree/Particle)
 Thermal correction to Energy=                    0.046961
 Thermal correction to Enthalpy=                  0.047906
 Thermal correction to Gibbs Free Energy=         0.023123
 Sum of electronic and zero-point Energies=           -100.225241
 Sum of electronic and thermal Energies=              -100.222089
 Sum of electronic and thermal Enthalpies=            -100.221145
 Sum of electronic and thermal Free Energies=         -100.245928

                     E (Thermal)             CV                S
                      KCal/Mol        Cal/Mol-Kelvin    Cal/Mol-Kelvin
 Total                   29.469              6.936             52.160
 Electronic               0.000              0.000              1.377
 Translational            0.889              2.981             35.068
 Rotational               0.592              1.987             11.592
 Vibrational             27.988              1.968              4.123
 Vibration     1          0.598              1.968              4.123

 Normal termination of Gaussian 16 at Fri Aug 22 15:37:26 2025.
