 Gaussian 16, Revision C.01,
 Gaussian 16:  ES64L-G16RevC.01  3-Jul-2019

 -----------------------------------------
 # sp b3lyp/6-311g** Force nosymm scf=(qc)
 -----------------------------------------

 -------------------
 Title Card Required
 -------------------
 Symbolic Z-matrix:
 Charge =  0 Multiplicity = 2

                          Input orientation:
 ---------------------------------------------------------------------
 Center     Atomic      Atomic             Coordinates (Angstroms)
 Number     Number       Type             X           Y           Z
 ---------------------------------------------------------------------
      1          1           0        0.000000    0.000000    0.000000
      2          1           0       -3.300000    0.000000    0.000000
      3          9           0        3.050000    0.000000    0.000000
 ---------------------------------------------------------------------

 SCF Done:  E(UB3LYP) =  -100.760983956     a.u. after   22 cycles

 Alpha  occ. eigenvalues --  -24.74264  -1.20311  -0.53384  -0.44824  -0.44824
 Alpha  occ. eigenvalues --   -0.32569
 Alpha virt. eigenvalues --   -0.08299   0.24266   0.35889   0.89237   0.92168
 Alpha virt. eigenvalues --    0.92168   1.03637   1.24946   1.24946   1.25266
 Alpha virt. eigenvalues --    1.43643   1.43643   1.43911   2.15123   2.39875

  Beta  occ. eigenvalues --  -24.71225  -1.11597  -0.41782  -0.41782  -0.33624
  Beta virt. eigenvalues --   -0.24877  -0.06929   0.24194   0.37533   0.93633
  Beta virt. eigenvalues --    0.93633   0.97999   1.07424   1.23729   1.23729
  Beta virt. eigenvalues --    1.24215   1.45385   1.45631   1.45631   2.15436

 Mulliken charges and spin densities:
               1          2
     1  H    0.032768  -0.959828
     2  H    0.000694   0.996587
     3  F   -0.033462   0.963241
 Sum of Mulliken charges =  -0.00000   1.00000

 Dipole moment (field-independent basis, Debye):
    X=             -0.5352    Y=              0.0000    Z=             -0.0000  Tot=              0.5352
 Quadrupole moment (field-independent basis, Debye-Ang):
   XX=             -8.1718   YY=             -7.6152   ZZ=             -7.6152
   XY=             -0.0000   XZ=             -0.0000   YZ=             -0.0000

  Exact polarizability:      32.415      -0.000       2.025      -0.000      -0.000       2.025
 Approx polarizability:      31.760      -0.000       1.926      -0.000       0.000       1.926

 ******    2 imaginary frequencies (negative Signs) ******

                      1                      2                      3
                      A                      A                      A
 Frequencies --   -378.1858              -142.6032               134.7531
 Red. masses --      1.0380                 1.0742                 1.0189
 Frc consts  --      0.0875                 0.0129                 0.0109
 IR Inten    --     34.8034                 1.7889                 0.9845

                      4
                      A
 Frequencies --    134.7531
 Red. masses --      1.0189
 Frc consts  --      0.0109
 IR Inten    --      0.9845

 - Thermochemistry -
 -------------------
 Temperature   298.150 Kelvin.  Pressure   1.00000 Atm.
 Atom     1 has atomic number  1 and mass   1.00783

 Molecular mass:    21.01405 amu.
 Principal axes and moments of inertia in atomic units:
                           1         2         3
     Eigenvalues --     0.00000 163.34925 163.34925
           X            1.00000  -0.00000   0.00000
           Y            0.00000   1.00000   0.00000
           Z            0.00000   0.00000   1.00000
 This molecule is a prolate symmetric top.
 Rotational symmetry number  1.
 Rotational temperature (Kelvin)      0.53024
 Rotational constant (GHZ):          11.048359
    2 imaginary frequencies ignored.
 Zero-point vibrational energy       1612.0 (Joules/Mol)
                                    0.38528 (Kcal/Mol)
 Warning -- explicit consideration of   2 degrees of freedom as
           vibrations may cause significant error
 Vibrational temperatures:    193.88   193.88
          (Kelvin)

 Zero-point correction=                           0.000614 (Hartree/Particle)
 Thermal correction to Energy=                    0.004315
 Thermal correction to Enthalpy=                  0.005259
 Thermal correction to Gibbs Free Energy=        -0.021714
 Sum of electronic and zero-point Energies=           -100.760370
 Sum of electronic and thermal Energies=              -100.756669
 Sum of electronic and thermal Enthalpies=            -100.755725
 Sum of electronic and thermal Free Energies=         -100.782698

                     E (Thermal)             CV                S
                      KCal/Mol        Cal/Mol-Kelvin    Cal/Mol-Kelvin
 Total                    2.708              8.805             56.770
 Electronic               0.000              0.000              1.377
 Translational            0.889              2.981             35.068
 Rotational               0.592              1.987             14.570
 Vibrational              1.226              3.837              5.754
 Vibration     1          0.613              1.919              2.877
 Vibration     2          0.613              1.919              2.877

 Normal termination of Gaussian 16 at Fri Aug 22 19:45:07 2025.
