 Gaussian 16, Revision C.01,
 Gaussian 16:  ES64L-G16RevC.01  3-Jul-2019

 -----------------------------------------
 # sp b3lyp/6-311g** Force nosymm scf=(qc)
 -----------------------------------------

 -------------------
 Title Card Required
 -------------------
 Symbolic Z-matrix:
 Charge =  0 Multiplicity = 2

                          Input orientation:
 ---------------------------------------------------------------------
 Center     Atomic      Atomic             Coordinates (Angstroms)
 Number     Number       Type             X           Y           Z
 ---------------------------------------------------------------------
      1          1           0        0.000000    0.000000    0.000000
      2          1           0       -3.700000    0.000000    0.000000
      3          9           0        1.600000    0.000000    0.000000
 ---------------------------------------------------------------------

 SCF Done:  E(UB3LYP) =  -100.833862720     a.u. after   10 cycles

 Alpha  occ. eigenvalues --  -24.64074  -1.08359  -0.41469  -0.36019  -0.36019
 Alpha  occ. eigenvalues --   -0.33778
 Alpha virt. eigenvalues --   -0.17067   0.19637   0.26936   0.93864   0.93864
 Alpha virt. eigenvalues --    1.01099   1.07166   1.23712   1.23726   1.23726
 Alpha virt. eigenvalues --    1.27693   1.27693   1.71971   2.11980   2.15752

  Beta  occ. eigenvalues --  -24.64848  -1.10436  -0.43249  -0.36762  -0.36762
  Beta virt. eigenvalues --   -0.15618  -0.06182   0.24050   0.38601   0.94164
  Beta virt. eigenvalues --    0.94164   1.00445   1.06927   1.31888   1.31888
  Beta virt. eigenvalues --    1.46122   1.46563   1.46563   1.74039   2.20036

 Mulliken charges and spin densities:
               1          2
     1  H    0.330566   0.245750
     2  H    0.001198   0.998800
     3  F   -0.331764  -0.244549
 Sum of Mulliken charges =   0.00000   1.00000

 Dipole moment (field-independent basis, Debye):
    X=             -2.6162    Y=             -0.0000    Z=             -0.0000  Tot=              2.6162
 Quadrupole moment (field-independent basis, Debye-Ang):
   XX=            -10.2062   YY=             -7.3678   ZZ=             -7.3678
   XY=             -0.0000   XZ=              0.0000   YZ=             -0.0000

  Exact polarizability:      19.188       0.000       2.147      -0.000      -0.000       2.147
 Approx polarizability:      34.207       0.000       2.060      -0.000       0.000       2.060

 ******    2 imaginary frequencies (negative Signs) ******

                      1                      2                      3
                      A                      A                      A
 Frequencies --  -1917.7610               -50.9613               915.1563
 Red. masses --      1.0586                 1.0530                 1.0304
 Frc consts  --      2.2938                 0.0016                 0.5085
 IR Inten    --     70.2389                 0.1958               104.3840

                      4
                      A
 Frequencies --    915.1563
 Red. masses --      1.0304
 Frc consts  --      0.5085
 IR Inten    --    104.3840

 - Thermochemistry -
 -------------------
 Temperature   298.150 Kelvin.  Pressure   1.00000 Atm.
 Atom     1 has atomic number  1 and mass   1.00783

 Molecular mass:    21.01405 amu.
 Principal axes and moments of inertia in atomic units:
                           1         2         3
     Eigenvalues --     0.00000 102.09180 102.09180
           X            1.00000  -0.00000   0.00000
           Y            0.00000   1.00000   0.00000
           Z            0.00000   0.00000   1.00000
 This molecule is a prolate symmetric top.
 Rotational symmetry number  1.
 Rotational temperature (Kelvin)      0.84839
 Rotational constant (GHZ):          17.677632
    2 imaginary frequencies ignored.
 Zero-point vibrational energy      10947.7 (Joules/Mol)
                                    2.61656 (Kcal/Mol)
 Vibrational temperatures:   1316.71  1316.71
          (Kelvin)

 Zero-point correction=                           0.004170 (Hartree/Particle)
 Thermal correction to Energy=                    0.006632
 Thermal correction to Enthalpy=                  0.007576
 Thermal correction to Gibbs Free Energy=        -0.016344
 Sum of electronic and zero-point Energies=           -100.829693
 Sum of electronic and thermal Energies=              -100.827231
 Sum of electronic and thermal Enthalpies=            -100.826286
 Sum of electronic and thermal Free Energies=         -100.850207

                     E (Thermal)             CV                S
                      KCal/Mol        Cal/Mol-Kelvin    Cal/Mol-Kelvin
 Total                    4.162              5.927             50.345
 Electronic               0.000              0.000              1.377
 Translational            0.889              2.981             35.068
 Rotational               0.592              1.987             13.636
 Vibrational              2.681              0.959              0.263

 Normal termination of Gaussian 16 at Fri Aug 22 16:32:43 2025.
