 Gaussian 16, Revision C.01,
 Gaussian 16:  ES64L-G16RevC.01  3-Jul-2019

 -----------------------------------------
 # sp b3lyp/6-311g** Force nosymm scf=(qc)
 -----------------------------------------

 -------------------
 Title Card Required
 -------------------
 Symbolic Z-matrix:
 Charge =  0 Multiplicity = 2

                          Input orientation:
 ---------------------------------------------------------------------
 Center     Atomic      Atomic             Coordinates (Angstroms)
 Number     Number       Type             X           Y           Z
 ---------------------------------------------------------------------
      1          1           0        0.000000    0.000000    0.000000
      2          1           0       -0.900000    0.000000    0.000000
      3          9           0        2.000000    0.000000    0.000000
 ---------------------------------------------------------------------

 SCF Done:  E(UB3LYP) =  -100.924413066     a.u. after    7 cycles

 Alpha  occ. eigenvalues --  -24.74162  -1.20308  -0.54025  -0.44820  -0.44820
 Alpha  occ. eigenvalues --   -0.42207
 Alpha virt. eigenvalues --    0.03435   0.20824   0.40396   0.91011   0.91011
 Alpha virt. eigenvalues --    0.91042   1.06831   1.06831   1.12109   1.55212
 Alpha virt. eigenvalues --    1.70552   1.70552   2.16208   2.36400   2.75176

  Beta  occ. eigenvalues --  -24.71194  -1.11867  -0.42329  -0.41865  -0.41865
  Beta virt. eigenvalues --   -0.25435   0.04475   0.21444   0.40917   0.92342
  Beta virt. eigenvalues --    0.92342   0.98820   1.07676   1.07676   1.15301
  Beta virt. eigenvalues --    1.57073   1.71074   1.71074   2.17126   2.37262

 Mulliken charges and spin densities:
               1          2
     1  H    0.015902  -0.039562
     2  H    0.035422   0.108931
     3  F   -0.051325   0.930631
 Sum of Mulliken charges =   0.00000   1.00000

 Dipole moment (field-independent basis, Debye):
    X=             -0.6437    Y=             -0.0000    Z=             -0.0000  Tot=              0.6437
 Quadrupole moment (field-independent basis, Debye-Ang):
   XX=             -6.2982   YY=             -7.0924   ZZ=             -7.0924
   XY=              0.0000   XZ=             -0.0000   YZ=              0.0000

  Exact polarizability:      24.925       0.000       2.145       0.000       0.000       2.145
 Approx polarizability:      30.032      -0.000       2.185      -0.000       0.000       2.185

 ******    1 imaginary frequencies (negative Signs) ******

                      1                      2                      3
                      A                      A                      A
 Frequencies --   -331.7163              1347.6933              1347.6933
 Red. masses --      1.1082                 1.0111                 1.0111
 Frc consts  --      0.0718                 1.0820                 1.0820
 IR Inten    --     60.8212                 0.0707                 0.0707

                      4
                      A
 Frequencies --   2482.4678
 Red. masses --      1.0081
 Frc consts  --      3.6604
 IR Inten    --    421.5960

 - Thermochemistry -
 -------------------
 Temperature   298.150 Kelvin.  Pressure   1.00000 Atm.
 Atom     1 has atomic number  1 and mass   1.00783

 Molecular mass:    21.01405 amu.
 Principal axes and moments of inertia in atomic units:
                           1         2         3
     Eigenvalues --     0.00000  40.51940  40.51940
           X            1.00000  -0.00000   0.00000
           Y            0.00000   1.00000   0.00000
           Z            0.00000   0.00000   1.00000
 This molecule is a prolate symmetric top.
 Rotational symmetry number  1.
 Rotational temperature (Kelvin)      2.13759
 Rotational constant (GHZ):          44.540172
    1 imaginary frequencies ignored.
 Zero-point vibrational energy      30970.4 (Joules/Mol)
                                    7.40211 (Kcal/Mol)
 Vibrational temperatures:   1939.03  1939.03  3571.72
          (Kelvin)

 Zero-point correction=                           0.011796 (Hartree/Particle)
 Thermal correction to Energy=                    0.014175
 Thermal correction to Enthalpy=                  0.015119
 Thermal correction to Gibbs Free Energy=        -0.007825
 Sum of electronic and zero-point Energies=           -100.912617
 Sum of electronic and thermal Energies=              -100.910238
 Sum of electronic and thermal Enthalpies=            -100.909294
 Sum of electronic and thermal Free Energies=         -100.932238

                     E (Thermal)             CV                S
                      KCal/Mol        Cal/Mol-Kelvin    Cal/Mol-Kelvin
 Total                    8.895              5.222             48.290
 Electronic               0.000              0.000              1.377
 Translational            0.889              2.981             35.068
 Rotational               0.592              1.987             11.800
 Vibrational              7.414              0.254              0.045

 Normal termination of Gaussian 16 at Fri Aug 22 16:55:28 2025.
