 Gaussian 16, Revision C.01,
 Gaussian 16:  ES64L-G16RevC.01  3-Jul-2019

 -----------------------------------------
 # sp b3lyp/6-311g** Force nosymm scf=(qc)
 -----------------------------------------

 -------------------
 Title Card Required
 -------------------
 Symbolic Z-matrix:
 Charge =  0 Multiplicity = 2

                          Input orientation:
 ---------------------------------------------------------------------
 Center     Atomic      Atomic             Coordinates (Angstroms)
 Number     Number       Type             X           Y           Z
 ---------------------------------------------------------------------
      1          1           0        0.000000    0.000000    0.000000
      2          1           0       -3.400000    0.000000    0.000000
      3          9           0        3.600000    0.000000    0.000000
 ---------------------------------------------------------------------

 SCF Done:  E(UB3LYP) =  -100.759073405     a.u. after   34 cycles

 Alpha  occ. eigenvalues --  -24.75539  -1.21490  -0.54662  -0.45895  -0.45895
 Alpha  occ. eigenvalues --   -0.32330
 Alpha virt. eigenvalues --   -0.07073   0.24417   0.37040   0.87312   0.91386
 Alpha virt. eigenvalues --    0.91386   1.01585   1.25178   1.25178   1.25392
 Alpha virt. eigenvalues --    1.45031   1.45216   1.45216   2.15184   2.40896

  Beta  occ. eigenvalues --  -24.72415  -1.12513  -0.42764  -0.42764  -0.32724
  Beta virt. eigenvalues --   -0.25561  -0.06636   0.24197   0.37787   0.92878
  Beta virt. eigenvalues --    0.92878   0.96515   1.05630   1.24730   1.24730
  Beta virt. eigenvalues --    1.24923   1.45685   1.45921   1.45921   2.15341

 Mulliken charges and spin densities:
               1          2
     1  H    0.008493  -0.987697
     2  H    0.000193   0.997276
     3  F   -0.008686   0.990420
 Sum of Mulliken charges =  -0.00000   1.00000

 Dipole moment (field-independent basis, Debye):
    X=             -0.1641    Y=             -0.0000    Z=             -0.0000  Tot=              0.1641
 Quadrupole moment (field-independent basis, Debye-Ang):
   XX=             -7.2484   YY=             -7.6243   ZZ=             -7.6243
   XY=              0.0000   XZ=             -0.0000   YZ=              0.0000

  Exact polarizability:      21.268       0.000       2.042      -0.000       0.000       2.042
 Approx polarizability:      16.231       0.000       1.934      -0.000      -0.000       1.934

 ******    2 imaginary frequencies (negative Signs) ******

                      1                      2                      3
                      A                      A                      A
 Frequencies --   -245.6384              -103.9255                72.6133
 Red. masses --      1.0189                 1.0954                 1.0173
 Frc consts  --      0.0362                 0.0070                 0.0032
 IR Inten    --      6.4854                 1.5923                 0.0554

                      4
                      A
 Frequencies --     72.6133
 Red. masses --      1.0173
 Frc consts  --      0.0032
 IR Inten    --      0.0554

 - Thermochemistry -
 -------------------
 Temperature   298.150 Kelvin.  Pressure   1.00000 Atm.
 Atom     1 has atomic number  1 and mass   1.00783

 Molecular mass:    21.01405 amu.
 Principal axes and moments of inertia in atomic units:
                           1         2         3
     Eigenvalues --     0.00000 203.60046 203.60046
           X            1.00000  -0.00000   0.00000
           Y            0.00000   1.00000   0.00000
           Z            0.00000   0.00000   1.00000
 This molecule is a prolate symmetric top.
 Rotational symmetry number  1.
 Rotational temperature (Kelvin)      0.42541
 Rotational constant (GHZ):           8.864131
    2 imaginary frequencies ignored.
 Zero-point vibrational energy        868.6 (Joules/Mol)
                                    0.20761 (Kcal/Mol)
 Warning -- explicit consideration of   2 degrees of freedom as
           vibrations may cause significant error
 Vibrational temperatures:    104.47   104.47
          (Kelvin)

 Zero-point correction=                           0.000331 (Hartree/Particle)
 Thermal correction to Energy=                    0.004268
 Thermal correction to Enthalpy=                  0.005212
 Thermal correction to Gibbs Free Energy=        -0.023113
 Sum of electronic and zero-point Energies=           -100.758743
 Sum of electronic and thermal Energies=              -100.754805
 Sum of electronic and thermal Enthalpies=            -100.753861
 Sum of electronic and thermal Free Energies=         -100.782187

                     E (Thermal)             CV                S
                      KCal/Mol        Cal/Mol-Kelvin    Cal/Mol-Kelvin
 Total                    2.678              8.902             59.616
 Electronic               0.000              0.000              1.377
 Translational            0.889              2.981             35.068
 Rotational               0.592              1.987             15.008
 Vibrational              1.197              3.934              8.162
 Vibration     1          0.599              1.967              4.081
 Vibration     2          0.599              1.967              4.081

 Normal termination of Gaussian 16 at Fri Aug 22 23:07:44 2025.
