 Gaussian 16, Revision C.01,
 Gaussian 16:  ES64L-G16RevC.01  3-Jul-2019

 -----------------------------------------
 # sp b3lyp/6-311g** Force nosymm scf=(qc)
 -----------------------------------------

 -------------------
 Title Card Required
 -------------------
 Symbolic Z-matrix:
 Charge =  0 Multiplicity = 2

                          Input orientation:
 ---------------------------------------------------------------------
 Center     Atomic      Atomic             Coordinates (Angstroms)
 Number     Number       Type             X           Y           Z
 ---------------------------------------------------------------------
      1          1           0        0.000000    0.000000    0.000000
      2          1           0       -2.250000    0.000000    0.000000
      3          9           0        2.350000    0.000000    0.000000
 ---------------------------------------------------------------------

 SCF Done:  E(UB3LYP) =  -100.778458653     a.u. after   20 cycles

 Alpha  occ. eigenvalues --  -24.70783  -1.17038  -0.49868  -0.41892  -0.41892
 Alpha  occ. eigenvalues --   -0.34626
 Alpha virt. eigenvalues --   -0.12898   0.24721   0.32395   0.89551   0.94124
 Alpha virt. eigenvalues --    0.94124   1.06486   1.23165   1.23165   1.26957
 Alpha virt. eigenvalues --    1.35838   1.35838   1.45867   2.12644   2.31800

  Beta  occ. eigenvalues --  -24.68033  -1.09238  -0.39157  -0.39157  -0.35826
  Beta virt. eigenvalues --   -0.22814  -0.10788   0.26262   0.33418   0.95222
  Beta virt. eigenvalues --    0.95400   0.95400   1.09169   1.22261   1.22261
  Beta virt. eigenvalues --    1.34290   1.39221   1.39221   1.43778   2.12626

 Mulliken charges and spin densities:
               1          2
     1  H    0.090058  -0.807246
     2  H    0.022165   0.939535
     3  F   -0.112222   0.867710
 Sum of Mulliken charges =  -0.00000   1.00000

 Dipole moment (field-independent basis, Debye):
    X=             -1.5729    Y=             -0.0000    Z=              0.0000  Tot=              1.5729
 Quadrupole moment (field-independent basis, Debye-Ang):
   XX=             -8.7528   YY=             -7.6113   ZZ=             -7.6113
   XY=             -0.0000   XZ=              0.0000   YZ=              0.0000

  Exact polarizability:      49.625      -0.000       2.018       0.000       0.000       2.018
 Approx polarizability:      53.562       0.000       1.923      -0.000      -0.000       1.923

 ******    2 imaginary frequencies (negative Signs) ******

                      1                      2                      3
                      A                      A                      A
 Frequencies --  -1082.2396              -423.6551               436.4575
 Red. masses --      1.0157                 1.0992                 1.0174
 Frc consts  --      0.7009                 0.1162                 0.1142
 IR Inten    --     56.6476                41.0868                 5.8810

                      4
                      A
 Frequencies --    436.4575
 Red. masses --      1.0174
 Frc consts  --      0.1142
 IR Inten    --      5.8810

 - Thermochemistry -
 -------------------
 Temperature   298.150 Kelvin.  Pressure   1.00000 Atm.
 Atom     1 has atomic number  1 and mass   1.00783

 Molecular mass:    21.01405 amu.
 Principal axes and moments of inertia in atomic units:
                           1         2         3
     Eigenvalues --     0.00000  87.69320  87.69320
           X            1.00000  -0.00000   0.00000
           Y            0.00000   1.00000   0.00000
           Z            0.00000   0.00000   1.00000
 This molecule is a prolate symmetric top.
 Rotational symmetry number  1.
 Rotational temperature (Kelvin)      0.98769
 Rotational constant (GHZ):          20.580173
    2 imaginary frequencies ignored.
 Zero-point vibrational energy       5221.2 (Joules/Mol)
                                    1.24789 (Kcal/Mol)
 Warning -- explicit consideration of   2 degrees of freedom as
           vibrations may cause significant error
 Vibrational temperatures:    627.97   627.97
          (Kelvin)

 Zero-point correction=                           0.001989 (Hartree/Particle)
 Thermal correction to Energy=                    0.004900
 Thermal correction to Enthalpy=                  0.005844
 Thermal correction to Gibbs Free Energy=        -0.018604
 Sum of electronic and zero-point Energies=           -100.776470
 Sum of electronic and thermal Energies=              -100.773558
 Sum of electronic and thermal Enthalpies=            -100.772614
 Sum of electronic and thermal Free Energies=         -100.797062

                     E (Thermal)             CV                S
                      KCal/Mol        Cal/Mol-Kelvin    Cal/Mol-Kelvin
 Total                    3.075              7.749             51.455
 Electronic               0.000              0.000              1.377
 Translational            0.889              2.981             35.068
 Rotational               0.592              1.987             13.334
 Vibrational              1.594              2.781              1.676
 Vibration     1          0.797              1.391              0.838
 Vibration     2          0.797              1.391              0.838

 Normal termination of Gaussian 16 at Fri Aug 22 17:26:34 2025.
