 Gaussian 16, Revision C.01,
 Gaussian 16:  ES64L-G16RevC.01  3-Jul-2019

 -----------------------------------------
 # sp b3lyp/6-311g** Force nosymm scf=(qc)
 -----------------------------------------

 -------------------
 Title Card Required
 -------------------
 Symbolic Z-matrix:
 Charge =  0 Multiplicity = 2

                          Input orientation:
 ---------------------------------------------------------------------
 Center     Atomic      Atomic             Coordinates (Angstroms)
 Number     Number       Type             X           Y           Z
 ---------------------------------------------------------------------
      1          1           0        0.000000    0.000000    0.000000
      2          1           0       -3.550000    0.000000    0.000000
      3          9           0        2.250000    0.000000    0.000000
 ---------------------------------------------------------------------

 SCF Done:  E(UB3LYP) =  -100.774124669     a.u. after   16 cycles

 Alpha  occ. eigenvalues --  -24.67389  -1.08821  -0.38656  -0.38656  -0.36535
 Alpha  occ. eigenvalues --   -0.33027
 Alpha virt. eigenvalues --   -0.22180   0.20713   0.27940   0.92093   0.95563
 Alpha virt. eigenvalues --    0.95563   1.08255   1.21538   1.21538   1.24417
 Alpha virt. eigenvalues --    1.24417   1.24468   1.39567   2.10836   2.15634

  Beta  occ. eigenvalues --  -24.70055  -1.16355  -0.49122  -0.41302  -0.41302
  Beta virt. eigenvalues --   -0.12215  -0.04568   0.31443   0.40229   0.88620
  Beta virt. eigenvalues --    0.94408   0.94408   1.06162   1.38100   1.38100
  Beta virt. eigenvalues --    1.47962   1.47962   1.48009   1.50247   2.33109

 Mulliken charges and spin densities:
               1          2
     1  H    0.134194   0.841005
     2  H    0.000967   0.999054
     3  F   -0.135161  -0.840059
 Sum of Mulliken charges =  -0.00000   1.00000

 Dipole moment (field-independent basis, Debye):
    X=             -1.5445    Y=             -0.0000    Z=             -0.0000  Tot=              1.5445
 Quadrupole moment (field-independent basis, Debye-Ang):
   XX=             -9.7946   YY=             -7.5253   ZZ=             -7.5253
   XY=             -0.0000   XZ=             -0.0000   YZ=              0.0000

  Exact polarizability:      29.035      -0.000       2.037      -0.000      -0.000       2.037
 Approx polarizability:      39.844      -0.000       1.927      -0.000       0.000       1.927

 ******    1 imaginary frequencies (negative Signs) ******

                      1                      2                      3
                      A                      A                      A
 Frequencies --   -801.0144                71.4474               332.6797
 Red. masses --      1.0595                 1.0521                 1.0243
 Frc consts  --      0.4005                 0.0032                 0.0668
 IR Inten    --     95.4632                 0.1342                17.1456

                      4
                      A
 Frequencies --    332.6797
 Red. masses --      1.0243
 Frc consts  --      0.0668
 IR Inten    --     17.1456

 - Thermochemistry -
 -------------------
 Temperature   298.150 Kelvin.  Pressure   1.00000 Atm.
 Atom     1 has atomic number  1 and mass   1.00783

 Molecular mass:    21.01405 amu.
 Principal axes and moments of inertia in atomic units:
                           1         2         3
     Eigenvalues --     0.00000 128.10527 128.10527
           X            1.00000  -0.00000   0.00000
           Y            0.00000   1.00000   0.00000
           Z            0.00000   0.00000   1.00000
 This molecule is a prolate symmetric top.
 Rotational symmetry number  1.
 Rotational temperature (Kelvin)      0.67612
 Rotational constant (GHZ):          14.087955
    1 imaginary frequencies ignored.
 Zero-point vibrational energy       4407.1 (Joules/Mol)
                                    1.05332 (Kcal/Mol)
 Warning -- explicit consideration of   3 degrees of freedom as
           vibrations may cause significant error
 Vibrational temperatures:    102.80   478.65   478.65
          (Kelvin)

 Zero-point correction=                           0.001679 (Hartree/Particle)
 Thermal correction to Energy=                    0.005592
 Thermal correction to Enthalpy=                  0.006536
 Thermal correction to Gibbs Free Energy=        -0.020613
 Sum of electronic and zero-point Energies=           -100.772446
 Sum of electronic and thermal Energies=              -100.768533
 Sum of electronic and thermal Enthalpies=            -100.767589
 Sum of electronic and thermal Free Energies=         -100.794738

                     E (Thermal)             CV                S
                      KCal/Mol        Cal/Mol-Kelvin    Cal/Mol-Kelvin
 Total                    3.509             10.156             57.140
 Electronic               0.000              0.000              1.377
 Translational            0.889              2.981             35.068
 Rotational               0.592              1.987             14.087
 Vibrational              2.028              5.188              6.607
 Vibration     1          0.598              1.968              4.113
 Vibration     2          0.715              1.610              1.247
 Vibration     3          0.715              1.610              1.247

 Normal termination of Gaussian 16 at Fri Aug 22 17:17:52 2025.
