 Gaussian 16, Revision C.01,
 Gaussian 16:  ES64L-G16RevC.01  3-Jul-2019

 -----------------------------------------
 # sp b3lyp/6-311g** Force nosymm scf=(qc)
 -----------------------------------------

 -------------------
 Title Card Required
 -------------------
 Symbolic Z-matrix:
 Charge =  0 Multiplicity = 2

                          Input orientation:
 ---------------------------------------------------------------------
 Center     Atomic      Atomic             Coordinates (Angstroms)
 Number     Number       Type             X           Y           Z
 ---------------------------------------------------------------------
      1          1           0        0.000000    0.000000    0.000000
      2          1           0       -2.250000    0.000000    0.000000
      3          9           0        1.800000    0.000000    0.000000
 ---------------------------------------------------------------------

 SCF Done:  E(UB3LYP) =  -100.810688218     a.u. after   19 cycles

 Alpha  occ. eigenvalues --  -24.66315  -1.12550  -0.45276  -0.38097  -0.38097
 Alpha  occ. eigenvalues --   -0.36153
 Alpha virt. eigenvalues --   -0.14103   0.23774   0.29316   0.93224   0.95011
 Alpha virt. eigenvalues --    0.95011   1.06076   1.21574   1.21574   1.26814
 Alpha virt. eigenvalues --    1.33779   1.33779   1.69365   2.11629   2.26728

  Beta  occ. eigenvalues --  -24.64383  -1.07229  -0.38892  -0.36212  -0.36212
  Beta virt. eigenvalues --   -0.19726  -0.10516   0.25006   0.33372   0.94808
  Beta virt. eigenvalues --    0.95096   0.95096   1.08588   1.24510   1.24510
  Beta virt. eigenvalues --    1.38822   1.38822   1.42261   1.65185   2.12796

 Mulliken charges and spin densities:
               1          2
     1  H    0.221905  -0.552697
     2  H    0.032855   0.945595
     3  F   -0.254760   0.607102
 Sum of Mulliken charges =   0.00000   1.00000

 Dipole moment (field-independent basis, Debye):
    X=             -2.5977    Y=             -0.0000    Z=              0.0000  Tot=              2.5977
 Quadrupole moment (field-independent basis, Debye-Ang):
   XX=             -9.2015   YY=             -7.4717   ZZ=             -7.4717
   XY=             -0.0000   XZ=              0.0000   YZ=             -0.0000

  Exact polarizability:      38.478      -0.000       2.104       0.000      -0.000       2.104
 Approx polarizability:      48.372      -0.000       2.003       0.000       0.000       2.003

 ******    2 imaginary frequencies (negative Signs) ******

                      1                      2                      3
                      A                      A                      A
 Frequencies --  -1633.0251              -488.4010               686.1592
 Red. masses --      1.0413                 1.0706                 1.0209
 Frc consts  --      1.6361                 0.1505                 0.2832
 IR Inten    --     87.6303                17.9063                37.3158

                      4
                      A
 Frequencies --    686.1592
 Red. masses --      1.0209
 Frc consts  --      0.2832
 IR Inten    --     37.3158

 - Thermochemistry -
 -------------------
 Temperature   298.150 Kelvin.  Pressure   1.00000 Atm.
 Atom     1 has atomic number  1 and mass   1.00783

 Molecular mass:    21.01405 amu.
 Principal axes and moments of inertia in atomic units:
                           1         2         3
     Eigenvalues --     0.00000  64.78649  64.78649
           X            1.00000  -0.00000   0.00000
           Y            0.00000   1.00000   0.00000
           Z            0.00000   0.00000   1.00000
 This molecule is a prolate symmetric top.
 Rotational symmetry number  1.
 Rotational temperature (Kelvin)      1.33691
 Rotational constant (GHZ):          27.856754
    2 imaginary frequencies ignored.
 Zero-point vibrational energy       8208.3 (Joules/Mol)
                                    1.96183 (Kcal/Mol)
 Vibrational temperatures:    987.23   987.23
          (Kelvin)

 Zero-point correction=                           0.003126 (Hartree/Particle)
 Thermal correction to Energy=                    0.005724
 Thermal correction to Enthalpy=                  0.006668
 Thermal correction to Gibbs Free Energy=        -0.017005
 Sum of electronic and zero-point Energies=           -100.807562
 Sum of electronic and thermal Energies=              -100.804965
 Sum of electronic and thermal Enthalpies=            -100.804021
 Sum of electronic and thermal Free Energies=         -100.827693

                     E (Thermal)             CV                S
                      KCal/Mol        Cal/Mol-Kelvin    Cal/Mol-Kelvin
 Total                    3.592              6.680             49.824
 Electronic               0.000              0.000              1.377
 Translational            0.889              2.981             35.068
 Rotational               0.592              1.987             12.732
 Vibrational              2.110              1.712              0.646

 Normal termination of Gaussian 16 at Fri Aug 22 16:43:45 2025.
