 Gaussian 16, Revision C.01,
 Gaussian 16:  ES64L-G16RevC.01  3-Jul-2019

 -----------------------------------------
 # sp b3lyp/6-311g** Force nosymm scf=(qc)
 -----------------------------------------

 -------------------
 Title Card Required
 -------------------
 Symbolic Z-matrix:
 Charge =  0 Multiplicity = 2

                          Input orientation:
 ---------------------------------------------------------------------
 Center     Atomic      Atomic             Coordinates (Angstroms)
 Number     Number       Type             X           Y           Z
 ---------------------------------------------------------------------
      1          1           0        0.000000    0.000000    0.000000
      2          1           0       -1.650000    0.000000    0.000000
      3          9           0        1.700000    0.000000    0.000000
 ---------------------------------------------------------------------

 SCF Done:  E(UB3LYP) =  -100.842622500     a.u. after   13 cycles

 Alpha  occ. eigenvalues --  -24.66149  -1.12561  -0.46220  -0.38405  -0.38054
 Alpha  occ. eigenvalues --   -0.38054
 Alpha virt. eigenvalues --   -0.10758   0.22033   0.29421   0.89453   0.94353
 Alpha virt. eigenvalues --    0.94353   1.03556   1.17854   1.17854   1.36397
 Alpha virt. eigenvalues --    1.36397   1.36809   1.79231   2.16047   2.37424

  Beta  occ. eigenvalues --  -24.64257  -1.07374  -0.39403  -0.36214  -0.36214
  Beta virt. eigenvalues --   -0.21769  -0.08215   0.24973   0.29904   0.92909
  Beta virt. eigenvalues --    0.94522   0.94522   1.07318   1.23215   1.23215
  Beta virt. eigenvalues --    1.37043   1.37043   1.43120   1.81277   2.17358

 Mulliken charges and spin densities:
               1          2
     1  H    0.193529  -0.366049
     2  H    0.068624   0.774174
     3  F   -0.262154   0.591875
 Sum of Mulliken charges =   0.00000   1.00000

 Dipole moment (field-independent basis, Debye):
    X=             -2.7257    Y=              0.0000    Z=             -0.0000  Tot=              2.7257
 Quadrupole moment (field-independent basis, Debye-Ang):
   XX=             -8.3336   YY=             -7.3983   ZZ=             -7.3983
   XY=              0.0000   XZ=             -0.0000   YZ=             -0.0000

  Exact polarizability:      43.894       0.000       2.183      -0.000      -0.000       2.183
 Approx polarizability:      62.441       0.000       2.109      -0.000       0.000       2.109

 ******    2 imaginary frequencies (negative Signs) ******

                      1                      2                      3
                      A                      A                      A
 Frequencies --  -2312.6097              -593.2076               946.7293
 Red. masses --      1.0213                 1.0926                 1.0176
 Frc consts  --      3.2182                 0.2265                 0.5374
 IR Inten    --    369.5089                 2.0581                18.1674

                      4
                      A
 Frequencies --    946.7293
 Red. masses --      1.0176
 Frc consts  --      0.5374
 IR Inten    --     18.1674

 - Thermochemistry -
 -------------------
 Temperature   298.150 Kelvin.  Pressure   1.00000 Atm.
 Atom     1 has atomic number  1 and mass   1.00783

 Molecular mass:    21.01405 amu.
 Principal axes and moments of inertia in atomic units:
                           1         2         3
     Eigenvalues --     0.00000  46.38910  46.38910
           X            1.00000  -0.00000   0.00000
           Y            0.00000   1.00000   0.00000
           Z            0.00000   0.00000   1.00000
 This molecule is a prolate symmetric top.
 Rotational symmetry number  1.
 Rotational temperature (Kelvin)      1.86712
 Rotational constant (GHZ):          38.904424
    2 imaginary frequencies ignored.
 Zero-point vibrational energy      11325.4 (Joules/Mol)
                                    2.70684 (Kcal/Mol)
 Vibrational temperatures:   1362.13  1362.13
          (Kelvin)

 Zero-point correction=                           0.004314 (Hartree/Particle)
 Thermal correction to Energy=                    0.006765
 Thermal correction to Enthalpy=                  0.007709
 Thermal correction to Gibbs Free Energy=        -0.015452
 Sum of electronic and zero-point Energies=           -100.838309
 Sum of electronic and thermal Energies=              -100.835858
 Sum of electronic and thermal Enthalpies=            -100.834914
 Sum of electronic and thermal Free Energies=         -100.858075

                     E (Thermal)             CV                S
                      KCal/Mol        Cal/Mol-Kelvin    Cal/Mol-Kelvin
 Total                    4.245              5.847             48.746
 Electronic               0.000              0.000              1.377
 Translational            0.889              2.981             35.068
 Rotational               0.592              1.987             12.069
 Vibrational              2.764              0.879              0.232

 Normal termination of Gaussian 16 at Fri Aug 22 16:37:07 2025.
