 Gaussian 16, Revision C.01,
 Gaussian 16:  ES64L-G16RevC.01  3-Jul-2019

 -----------------------------------------
 # sp b3lyp/6-311g** Force nosymm scf=(qc)
 -----------------------------------------

 -------------------
 Title Card Required
 -------------------
 Symbolic Z-matrix:
 Charge =  0 Multiplicity = 2

                          Input orientation:
 ---------------------------------------------------------------------
 Center     Atomic      Atomic             Coordinates (Angstroms)
 Number     Number       Type             X           Y           Z
 ---------------------------------------------------------------------
      1          1           0        0.000000    0.000000    0.000000
      2          1           0       -1.950000    0.000000    0.000000
      3          9           0        2.100000    0.000000    0.000000
 ---------------------------------------------------------------------

 SCF Done:  E(UB3LYP) =  -100.796798001     a.u. after   15 cycles

 Alpha  occ. eigenvalues --  -24.69034  -1.15357  -0.48137  -0.40419  -0.40419
 Alpha  occ. eigenvalues --   -0.36232
 Alpha virt. eigenvalues --   -0.13337   0.24016   0.31234   0.87550   0.94756
 Alpha virt. eigenvalues --    0.94756   1.04637   1.21656   1.21656   1.26807
 Alpha virt. eigenvalues --    1.34023   1.34023   1.57496   2.11086   2.32927

  Beta  occ. eigenvalues --  -24.66499  -1.08227  -0.37911  -0.37911  -0.36827
  Beta virt. eigenvalues --   -0.22015  -0.11732   0.26320   0.31461   0.90968
  Beta virt. eigenvalues --    0.95728   0.95728   1.08155   1.22693   1.22693
  Beta virt. eigenvalues --    1.35074   1.35975   1.35975   1.55722   2.11868

 Mulliken charges and spin densities:
               1          2
     1  H    0.115218  -0.659510
     2  H    0.044340   0.861897
     3  F   -0.159558   0.797614
 Sum of Mulliken charges =  -0.00000   1.00000

 Dipole moment (field-independent basis, Debye):
    X=             -2.0898    Y=             -0.0000    Z=             -0.0000  Tot=              2.0898
 Quadrupole moment (field-independent basis, Debye-Ang):
   XX=             -8.5538   YY=             -7.5810   ZZ=             -7.5810
   XY=              0.0000   XZ=              0.0000   YZ=             -0.0000

  Exact polarizability:      53.053       0.000       2.046       0.000      -0.000       2.046
 Approx polarizability:      63.466      -0.000       1.958      -0.000       0.000       1.958

 ******    2 imaginary frequencies (negative Signs) ******

                      1                      2                      3
                      A                      A                      A
 Frequencies --  -1574.1207              -543.8012               650.9829
 Red. masses --      1.0145                 1.1006                 1.0171
 Frc consts  --      1.4811                 0.1918                 0.2539
 IR Inten    --    128.1387                42.6431                 7.6750

                      4
                      A
 Frequencies --    650.9829
 Red. masses --      1.0171
 Frc consts  --      0.2539
 IR Inten    --      7.6750

 - Thermochemistry -
 -------------------
 Temperature   298.150 Kelvin.  Pressure   1.00000 Atm.
 Atom     1 has atomic number  1 and mass   1.00783

 Molecular mass:    21.01405 amu.
 Principal axes and moments of inertia in atomic units:
                           1         2         3
     Eigenvalues --     0.00000  68.37594  68.37594
           X            1.00000  -0.00000   0.00000
           Y            0.00000   1.00000   0.00000
           Z            0.00000   0.00000   1.00000
 This molecule is a prolate symmetric top.
 Rotational symmetry number  1.
 Rotational temperature (Kelvin)      1.26673
 Rotational constant (GHZ):          26.394390
    2 imaginary frequencies ignored.
 Zero-point vibrational energy       7787.5 (Joules/Mol)
                                    1.86125 (Kcal/Mol)
 Vibrational temperatures:    936.62   936.62
          (Kelvin)

 Zero-point correction=                           0.002966 (Hartree/Particle)
 Thermal correction to Energy=                    0.005595
 Thermal correction to Enthalpy=                  0.006539
 Thermal correction to Gibbs Free Energy=        -0.017230
 Sum of electronic and zero-point Energies=           -100.793832
 Sum of electronic and thermal Energies=              -100.791203
 Sum of electronic and thermal Enthalpies=            -100.790259
 Sum of electronic and thermal Free Energies=         -100.814028

                     E (Thermal)             CV                S
                      KCal/Mol        Cal/Mol-Kelvin    Cal/Mol-Kelvin
 Total                    3.511              6.820             50.025
 Electronic               0.000              0.000              1.377
 Translational            0.889              2.981             35.068
 Rotational               0.592              1.987             12.840
 Vibrational              2.029              1.852              0.740

 Normal termination of Gaussian 16 at Fri Aug 22 17:03:47 2025.
