 Gaussian 16, Revision C.01,
 Gaussian 16:  ES64L-G16RevC.01  3-Jul-2019

 -----------------------------------------
 # sp b3lyp/6-311g** Force nosymm scf=(qc)
 -----------------------------------------

 -------------------
 Title Card Required
 -------------------
 Symbolic Z-matrix:
 Charge =  0 Multiplicity = 2

                          Input orientation:
 ---------------------------------------------------------------------
 Center     Atomic      Atomic             Coordinates (Angstroms)
 Number     Number       Type             X           Y           Z
 ---------------------------------------------------------------------
      1          1           0        0.000000    0.000000    0.000000
      2          1           0       -1.100000    0.000000    0.000000
      3          9           0        1.200000    0.000000    0.000000
 ---------------------------------------------------------------------

 SCF Done:  E(UB3LYP) =  -100.943299840     a.u. after    7 cycles

 Alpha  occ. eigenvalues --  -24.65169  -1.14186  -0.53997  -0.38505  -0.38505
 Alpha  occ. eigenvalues --   -0.37927
 Alpha virt. eigenvalues --    0.06663   0.19258   0.34587   0.90683   0.90683
 Alpha virt. eigenvalues --    0.99267   1.08526   1.08526   1.28100   1.56911
 Alpha virt. eigenvalues --    1.56911   1.59525   2.19017   2.31428   2.51408

  Beta  occ. eigenvalues --  -24.63892  -1.10900  -0.47537  -0.37322  -0.37322
  Beta virt. eigenvalues --   -0.20978   0.09393   0.21786   0.38450   0.91697
  Beta virt. eigenvalues --    0.91697   1.02113   1.14052   1.14052   1.33297
  Beta virt. eigenvalues --    1.60514   1.60514   1.63339   2.29685   2.31113

 Mulliken charges and spin densities:
               1          2
     1  H    0.268612  -0.066386
     2  H    0.046424   0.698098
     3  F   -0.315036   0.368288
 Sum of Mulliken charges =  -0.00000   1.00000

 Dipole moment (field-independent basis, Debye):
    X=             -2.2893    Y=              0.0000    Z=              0.0000  Tot=              2.2893
 Quadrupole moment (field-independent basis, Debye-Ang):
   XX=             -7.7390   YY=             -6.8698   ZZ=             -6.8698
   XY=              0.0000   XZ=              0.0000   YZ=              0.0000

  Exact polarizability:      21.480       0.000       2.509       0.000       0.000       2.509
 Approx polarizability:      28.728       0.000       2.505      -0.000       0.000       2.505

 ******    1 imaginary frequencies (negative Signs) ******

                      1                      2                      3
                      A                      A                      A
 Frequencies --  -2259.9338              1022.3057              1042.2866
 Red. masses --      1.0240                 1.0896                 1.0169
 Frc consts  --      3.0813                 0.6709                 0.6509
 IR Inten    --    183.1877                53.2381                33.7011

                      4
                      A
 Frequencies --   1042.2866
 Red. masses --      1.0169
 Frc consts  --      0.6509
 IR Inten    --     33.7011

 - Thermochemistry -
 -------------------
 Temperature   298.150 Kelvin.  Pressure   1.00000 Atm.
 Atom     1 has atomic number  1 and mass   1.00783

 Molecular mass:    21.01405 amu.
 Principal axes and moments of inertia in atomic units:
                           1         2         3
     Eigenvalues --     0.00000  22.10689  22.10689
           X            1.00000  -0.00000   0.00000
           Y            0.00000   1.00000   0.00000
           Z            0.00000   0.00000   1.00000
 This molecule is a prolate symmetric top.
 Rotational symmetry number  1.
 Rotational temperature (Kelvin)      3.91796
 Rotational constant (GHZ):          81.637036
    1 imaginary frequencies ignored.
 Zero-point vibrational energy      18583.3 (Joules/Mol)
                                    4.44151 (Kcal/Mol)
 Vibrational temperatures:   1470.87  1499.62  1499.62
          (Kelvin)

 Zero-point correction=                           0.007078 (Hartree/Particle)
 Thermal correction to Energy=                    0.009535
 Thermal correction to Enthalpy=                  0.010479
 Thermal correction to Gibbs Free Energy=        -0.011987
 Sum of electronic and zero-point Energies=           -100.936222
 Sum of electronic and thermal Energies=              -100.933765
 Sum of electronic and thermal Enthalpies=            -100.932821
 Sum of electronic and thermal Free Energies=         -100.955287

                     E (Thermal)             CV                S
                      KCal/Mol        Cal/Mol-Kelvin    Cal/Mol-Kelvin
 Total                    5.983              5.988             47.284
 Electronic               0.000              0.000              1.377
 Translational            0.889              2.981             35.068
 Rotational               0.592              1.987             10.596
 Vibrational              4.502              1.020              0.243

 Normal termination of Gaussian 16 at Fri Aug 22 16:09:30 2025.
