 Gaussian 16, Revision C.01,
 Gaussian 16:  ES64L-G16RevC.01  3-Jul-2019

 -----------------------------------------
 # sp b3lyp/6-311g** Force nosymm scf=(qc)
 -----------------------------------------

 -------------------
 Title Card Required
 -------------------
 Symbolic Z-matrix:
 Charge =  0 Multiplicity = 2

                          Input orientation:
 ---------------------------------------------------------------------
 Center     Atomic      Atomic             Coordinates (Angstroms)
 Number     Number       Type             X           Y           Z
 ---------------------------------------------------------------------
      1          1           0        0.000000    0.000000    0.000000
      2          1           0       -0.950000    0.000000    0.000000
      3          9           0        2.300000    0.000000    0.000000
 ---------------------------------------------------------------------

 SCF Done:  E(UB3LYP) =  -100.915852599     a.u. after    8 cycles

 Alpha  occ. eigenvalues --  -24.75270  -1.21258  -0.54608  -0.45695  -0.45695
 Alpha  occ. eigenvalues --   -0.40858
 Alpha virt. eigenvalues --    0.01640   0.21107   0.40576   0.89377   0.91233
 Alpha virt. eigenvalues --    0.91233   1.07466   1.07466   1.11525   1.43637
 Alpha virt. eigenvalues --    1.67776   1.67776   2.20802   2.36591   2.64026

  Beta  occ. eigenvalues --  -24.72206  -1.12484  -0.42631  -0.42631  -0.40741
  Beta virt. eigenvalues --   -0.25920   0.02323   0.21502   0.40946   0.92669
  Beta virt. eigenvalues --    0.92669   0.97598   1.07851   1.07851   1.15296
  Beta virt. eigenvalues --    1.44612   1.68041   1.68041   2.21311   2.36950

 Mulliken charges and spin densities:
               1          2
     1  H   -0.005031  -0.024240
     2  H    0.026628   0.057599
     3  F   -0.021596   0.966641
 Sum of Mulliken charges =  -0.00000   1.00000

 Dipole moment (field-independent basis, Debye):
    X=             -0.3669    Y=             -0.0000    Z=              0.0000  Tot=              0.3669
 Quadrupole moment (field-independent basis, Debye-Ang):
   XX=             -5.9567   YY=             -7.1877   ZZ=             -7.1877
   XY=             -0.0000   XZ=              0.0000   YZ=             -0.0000

  Exact polarizability:      23.472       0.000       1.879       0.000       0.000       1.879
 Approx polarizability:      27.021      -0.000       2.141       0.000       0.000       2.141

 ******    1 imaginary frequencies (negative Signs) ******

                      1                      2                      3
                      A                      A                      A
 Frequencies --   -241.1506              1785.1414              1785.1414
 Red. masses --      1.1084                 1.0107                 1.0107
 Frc consts  --      0.0380                 1.8977                 1.8977
 IR Inten    --     24.1817                10.9131                10.9131

                      4
                      A
 Frequencies --   2109.5042
 Red. masses --      1.0079
 Frc consts  --      2.6427
 IR Inten    --    194.5662

 - Thermochemistry -
 -------------------
 Temperature   298.150 Kelvin.  Pressure   1.00000 Atm.
 Atom     1 has atomic number  1 and mass   1.00783

 Molecular mass:    21.01405 amu.
 Principal axes and moments of inertia in atomic units:
                           1         2         3
     Eigenvalues --     0.00000  51.73656  51.73656
           X            1.00000  -0.00000   0.00000
           Y            0.00000   1.00000   0.00000
           Z            0.00000   0.00000   1.00000
 This molecule is a prolate symmetric top.
 Rotational symmetry number  1.
 Rotational temperature (Kelvin)      1.67413
 Rotational constant (GHZ):          34.883287
    1 imaginary frequencies ignored.
 Zero-point vibrational energy      33972.7 (Joules/Mol)
                                    8.11966 (Kcal/Mol)
 Vibrational temperatures:   2568.42  2568.42  3035.11
          (Kelvin)

 Zero-point correction=                           0.012940 (Hartree/Particle)
 Thermal correction to Energy=                    0.015303
 Thermal correction to Enthalpy=                  0.016247
 Thermal correction to Gibbs Free Energy=        -0.006910
 Sum of electronic and zero-point Energies=           -100.902913
 Sum of electronic and thermal Energies=              -100.900549
 Sum of electronic and thermal Enthalpies=            -100.899605
 Sum of electronic and thermal Free Energies=         -100.922762

                     E (Thermal)             CV                S
                      KCal/Mol        Cal/Mol-Kelvin    Cal/Mol-Kelvin
 Total                    9.603              5.029             48.739
 Electronic               0.000              0.000              1.377
 Translational            0.889              2.981             35.068
 Rotational               0.592              1.987             12.285
 Vibrational              8.122              0.061              0.008

 Normal termination of Gaussian 16 at Fri Aug 22 17:20:49 2025.
