 Gaussian 16, Revision C.01,
 Gaussian 16:  ES64L-G16RevC.01  3-Jul-2019

 -----------------------------------------
 # sp b3lyp/6-311g** Force nosymm scf=(qc)
 -----------------------------------------

 -------------------
 Title Card Required
 -------------------
 Symbolic Z-matrix:
 Charge =  0 Multiplicity = 2

                          Input orientation:
 ---------------------------------------------------------------------
 Center     Atomic      Atomic             Coordinates (Angstroms)
 Number     Number       Type             X           Y           Z
 ---------------------------------------------------------------------
      1          1           0        0.000000    0.000000    0.000000
      2          1           0       -0.550000    0.000000    0.000000
      3          9           0        2.100000    0.000000    0.000000
 ---------------------------------------------------------------------

 SCF Done:  E(UB3LYP) =  -100.893818907     a.u. after   54 cycles

 Alpha  occ. eigenvalues --  -24.75658  -1.21648  -0.55631  -0.48448  -0.46029
 Alpha  occ. eigenvalues --   -0.46029
 Alpha virt. eigenvalues --    0.10722   0.19568   0.51847   0.90647   0.90647
 Alpha virt. eigenvalues --    0.92093   1.10257   1.10257   1.16876   1.63281
 Alpha virt. eigenvalues --    1.81537   1.95371   1.95371   2.42124   3.66948

  Beta  occ. eigenvalues --  -24.72552  -1.12761  -0.49044  -0.42926  -0.42926
  Beta virt. eigenvalues --   -0.25859   0.11243   0.20113   0.52292   0.92076
  Beta virt. eigenvalues --    0.92076   0.99979   1.10583   1.10583   1.20906
  Beta virt. eigenvalues --    1.63945   1.81888   1.95481   1.95481   2.42560

 Mulliken charges and spin densities:
               1          2
     1  H   -0.012113  -0.013860
     2  H    0.024078   0.036590
     3  F   -0.011965   0.977269
 Sum of Mulliken charges =   0.00000   1.00000

 Dipole moment (field-independent basis, Debye):
    X=             -0.1769    Y=              0.0000    Z=             -0.0000  Tot=              0.1769
 Quadrupole moment (field-independent basis, Debye-Ang):
   XX=             -5.6584   YY=             -6.6461   ZZ=             -6.6461
   XY=             -0.0000   XZ=              0.0000   YZ=              0.0000

  Exact polarizability:      10.093      -0.000       1.954       0.000      -0.000       1.954
 Approx polarizability:      10.404      -0.000       2.033       0.000      -0.000       2.033

 ******    2 imaginary frequencies (negative Signs) ******

                      1                      2                      3
                      A                      A                      A
 Frequencies --  -3725.3141             -3725.3141               136.3820
 Red. masses --      1.0092                 1.0092                 1.1085
 Frc consts  --      8.2516                 8.2516                 0.0121
 IR Inten    --      0.6026                 0.6026                 6.9891

                      4
                      A
 Frequencies --   8321.3193
 Red. masses --      1.0078
 Frc consts  --     41.1168
 IR Inten    --     62.0855

 - Thermochemistry -
 -------------------
 Temperature   298.150 Kelvin.  Pressure   1.00000 Atm.
 Atom     1 has atomic number  1 and mass   1.00783

 Molecular mass:    21.01405 amu.
 Principal axes and moments of inertia in atomic units:
                           1         2         3
     Eigenvalues --     0.00000  37.25122  37.25122
           X            1.00000  -0.00000   0.00000
           Y            0.00000   1.00000   0.00000
           Z            0.00000   0.00000   1.00000
 This molecule is a prolate symmetric top.
 Rotational symmetry number  1.
 Rotational temperature (Kelvin)      2.32513
 Rotational constant (GHZ):          48.447839
    2 imaginary frequencies ignored.
 Zero-point vibrational energy      50588.3 (Joules/Mol)
                                   12.09089 (Kcal/Mol)
 Warning -- explicit consideration of   1 degrees of freedom as
           vibrations may cause significant error
 Vibrational temperatures:    196.22 11972.52
          (Kelvin)

 Zero-point correction=                           0.019268 (Hartree/Particle)
 Thermal correction to Energy=                    0.022296
 Thermal correction to Enthalpy=                  0.023240
 Thermal correction to Gibbs Free Energy=        -0.000959
 Sum of electronic and zero-point Energies=           -100.874551
 Sum of electronic and thermal Energies=              -100.871523
 Sum of electronic and thermal Enthalpies=            -100.870579
 Sum of electronic and thermal Free Energies=         -100.894778

                     E (Thermal)             CV                S
                      KCal/Mol        Cal/Mol-Kelvin    Cal/Mol-Kelvin
 Total                   13.991              6.885             50.932
 Electronic               0.000              0.000              1.377
 Translational            0.889              2.981             35.068
 Rotational               0.592              1.987             11.633
 Vibrational             12.510              1.917              2.854
 Vibration     1          0.614              1.917              2.854

 Normal termination of Gaussian 16 at Fri Aug 22 17:02:31 2025.
