 Gaussian 16, Revision C.01,
 Gaussian 16:  ES64L-G16RevC.01  3-Jul-2019

 -----------------------------------------
 # sp b3lyp/6-311g** Force nosymm scf=(qc)
 -----------------------------------------

 -------------------
 Title Card Required
 -------------------
 Symbolic Z-matrix:
 Charge =  0 Multiplicity = 2

                          Input orientation:
 ---------------------------------------------------------------------
 Center     Atomic      Atomic             Coordinates (Angstroms)
 Number     Number       Type             X           Y           Z
 ---------------------------------------------------------------------
      1          1           0        0.000000    0.000000    0.000000
      2          1           0       -2.750000    0.000000    0.000000
      3          9           0        1.000000    0.000000    0.000000
 ---------------------------------------------------------------------

 SCF Done:  E(UB3LYP) =  -100.966385887     a.u. after    6 cycles

 Alpha  occ. eigenvalues --  -24.64116  -1.16001  -0.51622  -0.38743  -0.38743
 Alpha  occ. eigenvalues --   -0.34566
 Alpha virt. eigenvalues --    0.01194   0.25074   0.34176   0.94096   0.94096
 Alpha virt. eigenvalues --    0.98597   1.21654   1.22976   1.22976   1.34047
 Alpha virt. eigenvalues --    1.35991   1.35991   1.90790   2.14276   2.34335

  Beta  occ. eigenvalues --  -24.64104  -1.15970  -0.51576  -0.38732  -0.38732
  Beta virt. eigenvalues --   -0.08702   0.02711   0.34166   0.37870   0.94097
  Beta virt. eigenvalues --    0.94097   0.98613   1.30149   1.35976   1.35976
  Beta virt. eigenvalues --    1.46067   1.46067   1.49223   1.91002   2.34189

 Mulliken charges and spin densities:
               1          2
     1  H    0.317057   0.001984
     2  H    0.004431   0.994100
     3  F   -0.321488   0.003916
 Sum of Mulliken charges =   0.00000   1.00000

 Dipole moment (field-independent basis, Debye):
    X=             -2.0862    Y=              0.0000    Z=              0.0000  Tot=              2.0862
 Quadrupole moment (field-independent basis, Debye-Ang):
   XX=             -8.0583   YY=             -6.9593   ZZ=             -6.9593
   XY=             -0.0000   XZ=              0.0000   YZ=             -0.0000

  Exact polarizability:       8.119       0.000       2.416      -0.000       0.000       2.416
 Approx polarizability:       9.446      -0.000       2.391      -0.000       0.000       2.391

 ******    1 imaginary frequencies (negative Signs) ******

                      1                      2                      3
                      A                      A                      A
 Frequencies --    -86.0096               971.2737               971.2737
 Red. masses --      1.0530                 1.0332                 1.0332
 Frc consts  --      0.0046                 0.5743                 0.5743
 IR Inten    --      0.5327               159.8993               159.8993

                      4
                      A
 Frequencies --   3020.0432
 Red. masses --      1.0585
 Frc consts  --      5.6883
 IR Inten    --    110.0138

 - Thermochemistry -
 -------------------
 Temperature   298.150 Kelvin.  Pressure   1.00000 Atm.
 Atom     1 has atomic number  1 and mass   1.00783

 Molecular mass:    21.01405 amu.
 Principal axes and moments of inertia in atomic units:
                           1         2         3
     Eigenvalues --     0.00000  50.31562  50.31562
           X            1.00000  -0.00000   0.00000
           Y            0.00000   1.00000   0.00000
           Z            0.00000   0.00000   1.00000
 This molecule is a prolate symmetric top.
 Rotational symmetry number  1.
 Rotational temperature (Kelvin)      1.72141
 Rotational constant (GHZ):          35.868406
    1 imaginary frequencies ignored.
 Zero-point vibrational energy      29682.9 (Joules/Mol)
                                    7.09438 (Kcal/Mol)
 Vibrational temperatures:   1397.45  1397.45  4345.17
          (Kelvin)

 Zero-point correction=                           0.011306 (Hartree/Particle)
 Thermal correction to Energy=                    0.013748
 Thermal correction to Enthalpy=                  0.014693
 Thermal correction to Gibbs Free Energy=        -0.008535
 Sum of electronic and zero-point Energies=           -100.955080
 Sum of electronic and thermal Energies=              -100.952637
 Sum of electronic and thermal Enthalpies=            -100.951693
 Sum of electronic and thermal Free Energies=         -100.974920

                     E (Thermal)             CV                S
                      KCal/Mol        Cal/Mol-Kelvin    Cal/Mol-Kelvin
 Total                    8.627              5.788             48.886
 Electronic               0.000              0.000              1.377
 Translational            0.889              2.981             35.068
 Rotational               0.592              1.987             12.230
 Vibrational              7.146              0.820              0.210

 Normal termination of Gaussian 16 at Fri Aug 22 16:01:03 2025.
