 Gaussian 16, Revision C.01,
 Gaussian 16:  ES64L-G16RevC.01  3-Jul-2019

 -----------------------------------------
 # sp b3lyp/6-311g** Force nosymm scf=(qc)
 -----------------------------------------

 -------------------
 Title Card Required
 -------------------
 Symbolic Z-matrix:
 Charge =  0 Multiplicity = 2

                          Input orientation:
 ---------------------------------------------------------------------
 Center     Atomic      Atomic             Coordinates (Angstroms)
 Number     Number       Type             X           Y           Z
 ---------------------------------------------------------------------
      1          1           0        0.000000    0.000000    0.000000
      2          1           0       -3.950000    0.000000    0.000000
      3          9           0        1.150000    0.000000    0.000000
 ---------------------------------------------------------------------

 SCF Done:  E(UB3LYP) =  -100.937321509     a.u. after    6 cycles

 Alpha  occ. eigenvalues --  -24.64339  -1.13013  -0.48663  -0.37809  -0.37809
 Alpha  occ. eigenvalues --   -0.33476
 Alpha virt. eigenvalues --   -0.04144   0.22546   0.29883   0.93342   0.93342
 Alpha virt. eigenvalues --    1.00182   1.23981   1.24031   1.24031   1.27432
 Alpha virt. eigenvalues --    1.34917   1.34917   1.75357   2.13565   2.30126

  Beta  occ. eigenvalues --  -24.64338  -1.13010  -0.48660  -0.37808  -0.37808
  Beta virt. eigenvalues --   -0.05907  -0.03460   0.27884   0.39162   0.93342
  Beta virt. eigenvalues --    0.93342   1.00185   1.27430   1.34914   1.34914
  Beta virt. eigenvalues --    1.49342   1.49342   1.49619   1.75377   2.29490

 Mulliken charges and spin densities:
               1          2
     1  H    0.348186   0.000082
     2  H    0.000428   0.999539
     3  F   -0.348614   0.000379
 Sum of Mulliken charges =   0.00000   1.00000

 Dipole moment (field-independent basis, Debye):
    X=             -2.2224    Y=              0.0000    Z=              0.0000  Tot=              2.2224
 Quadrupole moment (field-independent basis, Debye-Ang):
   XX=             -8.7583   YY=             -7.0891   ZZ=             -7.0891
   XY=              0.0000   XZ=              0.0000   YZ=              0.0000

  Exact polarizability:       8.350       0.000       2.342      -0.000       0.000       2.342
 Approx polarizability:      11.543       0.000       2.301       0.000      -0.000       2.301

 ******    1 imaginary frequencies (negative Signs) ******

                      1                      2                      3
                      A                      A                      A
 Frequencies --    -33.5803              1212.9052              1212.9052
 Red. masses --      1.0532                 1.0367                 1.0367
 Frc consts  --      0.0007                 0.8986                 0.8986
 IR Inten    --      0.0191               154.0565               154.0565

                      4
                      A
 Frequencies --   1468.5560
 Red. masses --      1.0584
 Frc consts  --      1.3448
 IR Inten    --     68.8727

 - Thermochemistry -
 -------------------
 Temperature   298.150 Kelvin.  Pressure   1.00000 Atm.
 Atom     1 has atomic number  1 and mass   1.00783

 Molecular mass:    21.01405 amu.
 Principal axes and moments of inertia in atomic units:
                           1         2         3
     Eigenvalues --     0.00000  91.62744  91.62744
           X            1.00000  -0.00000   0.00000
           Y            0.00000   1.00000   0.00000
           Z            0.00000   0.00000   1.00000
 This molecule is a prolate symmetric top.
 Rotational symmetry number  1.
 Rotational temperature (Kelvin)      0.94528
 Rotational constant (GHZ):          19.696514
    1 imaginary frequencies ignored.
 Zero-point vibrational energy      23293.5 (Joules/Mol)
                                    5.56728 (Kcal/Mol)
 Vibrational temperatures:   1745.10  1745.10  2112.92
          (Kelvin)

 Zero-point correction=                           0.008872 (Hartree/Particle)
 Thermal correction to Energy=                    0.011270
 Thermal correction to Enthalpy=                  0.012214
 Thermal correction to Gibbs Free Energy=        -0.011523
 Sum of electronic and zero-point Energies=           -100.928449
 Sum of electronic and thermal Energies=              -100.926052
 Sum of electronic and thermal Enthalpies=            -100.925107
 Sum of electronic and thermal Free Energies=         -100.948844

                     E (Thermal)             CV                S
                      KCal/Mol        Cal/Mol-Kelvin    Cal/Mol-Kelvin
 Total                    7.072              5.445             49.959
 Electronic               0.000              0.000              1.377
 Translational            0.889              2.981             35.068
 Rotational               0.592              1.987             13.421
 Vibrational              5.591              0.477              0.092

 Normal termination of Gaussian 16 at Fri Aug 22 16:09:00 2025.
