 Gaussian 16, Revision C.01,
 Gaussian 16:  ES64L-G16RevC.01  3-Jul-2019

 -----------------------------------------
 # sp b3lyp/6-311g** Force nosymm scf=(qc)
 -----------------------------------------

 -------------------
 Title Card Required
 -------------------
 Symbolic Z-matrix:
 Charge =  0 Multiplicity = 2

                          Input orientation:
 ---------------------------------------------------------------------
 Center     Atomic      Atomic             Coordinates (Angstroms)
 Number     Number       Type             X           Y           Z
 ---------------------------------------------------------------------
      1          1           0        0.000000    0.000000    0.000000
      2          1           0       -3.950000    0.000000    0.000000
      3          9           0        2.800000    0.000000    0.000000
 ---------------------------------------------------------------------

 SCF Done:  E(UB3LYP) =  -100.762572803     a.u. after   23 cycles

 Alpha  occ. eigenvalues --  -24.73271  -1.19390  -0.52388  -0.43993  -0.43993
 Alpha  occ. eigenvalues --   -0.32556
 Alpha virt. eigenvalues --   -0.08530   0.23750   0.35988   0.89823   0.92758
 Alpha virt. eigenvalues --    0.92758   1.05010   1.24942   1.24942   1.24962
 Alpha virt. eigenvalues --    1.42961   1.42961   1.44655   2.14268   2.40071

  Beta  occ. eigenvalues --  -24.70302  -1.10900  -0.41026  -0.41026  -0.34278
  Beta virt. eigenvalues --   -0.24297  -0.05993   0.23784   0.38122   0.94197
  Beta virt. eigenvalues --    0.94197   0.98030   1.08367   1.23029   1.23029
  Beta virt. eigenvalues --    1.24574   1.46568   1.46705   1.46705   2.13769

 Mulliken charges and spin densities:
               1          2
     1  H    0.054289  -0.939298
     2  H    0.000186   0.999321
     3  F   -0.054475   0.939977
 Sum of Mulliken charges =  -0.00000   1.00000

 Dipole moment (field-independent basis, Debye):
    X=             -0.7851    Y=             -0.0000    Z=             -0.0000  Tot=              0.7851
 Quadrupole moment (field-independent basis, Debye-Ang):
   XX=             -8.7613   YY=             -7.5938   ZZ=             -7.5938
   XY=             -0.0000   XZ=             -0.0000   YZ=              0.0000

  Exact polarizability:      31.263      -0.000       2.025      -0.000      -0.000       2.025
 Approx polarizability:      35.515      -0.000       1.924      -0.000       0.000       1.924

 ******    2 imaginary frequencies (negative Signs) ******

                      1                      2                      3
                      A                      A                      A
 Frequencies --   -447.9750               -72.9318               163.3477
 Red. masses --      1.0555                 1.0561                 1.0226
 Frc consts  --      0.1248                 0.0033                 0.0161
 IR Inten    --     54.9770                 0.0586                 2.8681

                      4
                      A
 Frequencies --    163.3477
 Red. masses --      1.0226
 Frc consts  --      0.0161
 IR Inten    --      2.8681

 - Thermochemistry -
 -------------------
 Temperature   298.150 Kelvin.  Pressure   1.00000 Atm.
 Atom     1 has atomic number  1 and mass   1.00783

 Molecular mass:    21.01405 amu.
 Principal axes and moments of inertia in atomic units:
                           1         2         3
     Eigenvalues --     0.00000 176.45387 176.45387
           X            1.00000  -0.00000   0.00000
           Y            0.00000   1.00000   0.00000
           Z            0.00000   0.00000   1.00000
 This molecule is a prolate symmetric top.
 Rotational symmetry number  1.
 Rotational temperature (Kelvin)      0.49086
 Rotational constant (GHZ):          10.227836
    2 imaginary frequencies ignored.
 Zero-point vibrational energy       1954.1 (Joules/Mol)
                                    0.46703 (Kcal/Mol)
 Warning -- explicit consideration of   2 degrees of freedom as
           vibrations may cause significant error
 Vibrational temperatures:    235.02   235.02
          (Kelvin)

 Zero-point correction=                           0.000744 (Hartree/Particle)
 Thermal correction to Energy=                    0.004346
 Thermal correction to Enthalpy=                  0.005290
 Thermal correction to Gibbs Free Energy=        -0.021408
 Sum of electronic and zero-point Energies=           -100.761829
 Sum of electronic and thermal Energies=              -100.758227
 Sum of electronic and thermal Enthalpies=            -100.757283
 Sum of electronic and thermal Free Energies=         -100.783981

                     E (Thermal)             CV                S
                      KCal/Mol        Cal/Mol-Kelvin    Cal/Mol-Kelvin
 Total                    2.727              8.743             56.190
 Electronic               0.000              0.000              1.377
 Translational            0.889              2.981             35.068
 Rotational               0.592              1.987             14.724
 Vibrational              1.246              3.775              5.021
 Vibration     1          0.623              1.887              2.511
 Vibration     2          0.623              1.887              2.511

 Normal termination of Gaussian 16 at Fri Aug 22 18:45:03 2025.
