 Gaussian 16, Revision C.01,
 Gaussian 16:  ES64L-G16RevC.01  3-Jul-2019

 -----------------------------------------
 # sp b3lyp/6-311g** Force nosymm scf=(qc)
 -----------------------------------------

 -------------------
 Title Card Required
 -------------------
 Symbolic Z-matrix:
 Charge =  0 Multiplicity = 2

                          Input orientation:
 ---------------------------------------------------------------------
 Center     Atomic      Atomic             Coordinates (Angstroms)
 Number     Number       Type             X           Y           Z
 ---------------------------------------------------------------------
      1          1           0        0.000000    0.000000    0.000000
      2          1           0       -0.600000    0.000000    0.000000
      3          9           0        3.400000    0.000000    0.000000
 ---------------------------------------------------------------------

 SCF Done:  E(UB3LYP) =  -100.914866479     a.u. after  305 cycles

 Alpha  occ. eigenvalues --  -24.76388  -1.22228  -0.55428  -0.46795  -0.46580
 Alpha  occ. eigenvalues --   -0.46366
 Alpha virt. eigenvalues --    0.08510   0.18912   0.51697   0.85996   0.90871
 Alpha virt. eigenvalues --    0.93439   1.03003   1.10254   1.10258   1.60832
 Alpha virt. eigenvalues --    1.82748   1.92799   1.92804   2.37185   3.64805

  Beta  occ. eigenvalues --  -24.73229  -1.13147  -0.46559  -0.43433  -0.43413
  Beta virt. eigenvalues --   -0.26062   0.08538   0.18927   0.51784   0.92371
  Beta virt. eigenvalues --    0.95051   0.95458   1.06904   1.10253   1.10257
  Beta virt. eigenvalues --    1.60843   1.82782   1.92799   1.92804   2.37187

 Mulliken charges and spin densities:
               1          2
     1  H   -0.003926  -0.000795
     2  H   -0.001618   0.000131
     3  F    0.005545   1.000664
 Sum of Mulliken charges =   0.00000   1.00000

 Dipole moment (field-independent basis, Debye):
    X=              0.0576    Y=             -0.0000    Z=              0.0000  Tot=              0.0576
 Quadrupole moment (field-independent basis, Debye-Ang):
   XX=             -6.1028   YY=             -6.7411   ZZ=             -5.8774
   XY=              0.0000   XZ=             -0.0000   YZ=              0.0108

  Exact polarizability:       6.561      -0.000       1.869      -0.000       0.006       2.332
 Approx polarizability:       7.118      -0.000       1.951      -0.000       0.007       2.531

 ******    2 imaginary frequencies (negative Signs) ******

                      1                      2                      3
                      A                      A                      A
 Frequencies --  -2761.0459             -2760.5925                30.9338
 Red. masses --      1.0085                 1.0085                 1.1085
 Frc consts  --      4.5297                 4.5282                 0.0006
 IR Inten    --      0.0102                 0.0090                 0.1467

                      4
                      A
 Frequencies --   7042.4903
 Red. masses --      1.0078
 Frc consts  --     29.4502
 IR Inten    --      0.0855

 - Thermochemistry -
 -------------------
 Temperature   298.150 Kelvin.  Pressure   1.00000 Atm.
 Atom     1 has atomic number  1 and mass   1.00783

 Molecular mass:    21.01405 amu.
 Principal axes and moments of inertia in atomic units:
                           1         2         3
     Eigenvalues --     0.00000  89.73672  89.73672
           X            1.00000  -0.00000   0.00000
           Y            0.00000   1.00000   0.00000
           Z            0.00000   0.00000   1.00000
 This molecule is a prolate symmetric top.
 Rotational symmetry number  1.
 Rotational temperature (Kelvin)      0.96520
 Rotational constant (GHZ):          20.111513
    2 imaginary frequencies ignored.
 Zero-point vibrational energy      42308.5 (Joules/Mol)
                                   10.11197 (Kcal/Mol)
 Warning -- explicit consideration of   1 degrees of freedom as
           vibrations may cause significant error
 Vibrational temperatures:     44.51 10132.57
          (Kelvin)

 Zero-point correction=                           0.016114 (Hartree/Particle)
 Thermal correction to Energy=                    0.019350
 Thermal correction to Enthalpy=                  0.020295
 Thermal correction to Gibbs Free Energy=        -0.006120
 Sum of electronic and zero-point Energies=           -100.898752
 Sum of electronic and thermal Energies=              -100.895516
 Sum of electronic and thermal Enthalpies=            -100.894572
 Sum of electronic and thermal Free Energies=         -100.920986

                     E (Thermal)             CV                S
                      KCal/Mol        Cal/Mol-Kelvin    Cal/Mol-Kelvin
 Total                   12.143              6.952             55.594
 Electronic               0.000              0.000              1.377
 Translational            0.889              2.981             35.068
 Rotational               0.592              1.987             13.380
 Vibrational             10.661              1.984              5.769
 Vibration     1          0.594              1.984              5.769

 Normal termination of Gaussian 16 at Fri Aug 22 21:05:20 2025.
