 Gaussian 16, Revision C.01,
 Gaussian 16:  ES64L-G16RevC.01  3-Jul-2019

 -----------------------------------------
 # sp b3lyp/6-311g** Force nosymm scf=(qc)
 -----------------------------------------

 -------------------
 Title Card Required
 -------------------
 Symbolic Z-matrix:
 Charge =  0 Multiplicity = 2

                          Input orientation:
 ---------------------------------------------------------------------
 Center     Atomic      Atomic             Coordinates (Angstroms)
 Number     Number       Type             X           Y           Z
 ---------------------------------------------------------------------
      1          1           0        0.000000    0.000000    0.000000
      2          1           0       -3.550000    0.000000    0.000000
      3          9           0        1.250000    0.000000    0.000000
 ---------------------------------------------------------------------

 SCF Done:  E(UB3LYP) =  -100.913446378     a.u. after    6 cycles

 Alpha  occ. eigenvalues --  -24.64364  -1.11644  -0.46879  -0.37285  -0.37285
 Alpha  occ. eigenvalues --   -0.33829
 Alpha virt. eigenvalues --   -0.07357   0.21803   0.28841   0.93056   0.93056
 Alpha virt. eigenvalues --    1.01436   1.23533   1.23685   1.23685   1.24266
 Alpha virt. eigenvalues --    1.34250   1.34250   1.71115   2.13699   2.26612

  Beta  occ. eigenvalues --  -24.64359  -1.11632  -0.46867  -0.37281  -0.37281
  Beta virt. eigenvalues --   -0.08472  -0.05243   0.25843   0.38560   0.93055
  Beta virt. eigenvalues --    0.93055   1.01449   1.24142   1.34238   1.34238
  Beta virt. eigenvalues --    1.46968   1.47109   1.47109   1.71144   2.26175

 Mulliken charges and spin densities:
               1          2
     1  H    0.356467  -0.000161
     2  H    0.001199   0.998687
     3  F   -0.357666   0.001474
 Sum of Mulliken charges =   0.00000   1.00000

 Dipole moment (field-independent basis, Debye):
    X=             -2.3535    Y=             -0.0000    Z=              0.0000  Tot=              2.3535
 Quadrupole moment (field-independent basis, Debye-Ang):
   XX=             -9.0375   YY=             -7.1646   ZZ=             -7.1646
   XY=             -0.0000   XZ=              0.0000   YZ=              0.0000

  Exact polarizability:      10.374       0.000       2.302      -0.000      -0.000       2.302
 Approx polarizability:      15.322       0.000       2.251      -0.000      -0.000       2.251

 ******    1 imaginary frequencies (negative Signs) ******

                      1                      2                      3
                      A                      A                      A
 Frequencies --    -60.0638               444.6747              1188.0540
 Red. masses --      1.0505                 1.0611                 1.0337
 Frc consts  --      0.0022                 0.1236                 0.8597
 IR Inten    --      0.2767                62.6844               141.3401

                      4
                      A
 Frequencies --   1188.0540
 Red. masses --      1.0337
 Frc consts  --      0.8597
 IR Inten    --    141.3401

 - Thermochemistry -
 -------------------
 Temperature   298.150 Kelvin.  Pressure   1.00000 Atm.
 Atom     1 has atomic number  1 and mass   1.00783

 Molecular mass:    21.01405 amu.
 Principal axes and moments of inertia in atomic units:
                           1         2         3
     Eigenvalues --     0.00000  82.22676  82.22676
           X            1.00000  -0.00000   0.00000
           Y            0.00000   1.00000   0.00000
           Z            0.00000   0.00000   1.00000
 This molecule is a prolate symmetric top.
 Rotational symmetry number  1.
 Rotational temperature (Kelvin)      1.05335
 Rotational constant (GHZ):          21.948343
    1 imaginary frequencies ignored.
 Zero-point vibrational energy      16872.0 (Joules/Mol)
                                    4.03251 (Kcal/Mol)
 Warning -- explicit consideration of   1 degrees of freedom as
           vibrations may cause significant error
 Vibrational temperatures:    639.79  1709.34  1709.34
          (Kelvin)

 Zero-point correction=                           0.006426 (Hartree/Particle)
 Thermal correction to Energy=                    0.009090
 Thermal correction to Enthalpy=                  0.010034
 Thermal correction to Gibbs Free Energy=        -0.013984
 Sum of electronic and zero-point Energies=           -100.907020
 Sum of electronic and thermal Energies=              -100.904356
 Sum of electronic and thermal Enthalpies=            -100.903412
 Sum of electronic and thermal Free Energies=         -100.927430

                     E (Thermal)             CV                S
                      KCal/Mol        Cal/Mol-Kelvin    Cal/Mol-Kelvin
 Total                    5.704              6.766             50.551
 Electronic               0.000              0.000              1.377
 Translational            0.889              2.981             35.068
 Rotational               0.592              1.987             13.206
 Vibrational              4.223              1.798              0.899
 Vibration     1          0.804              1.373              0.812

 Normal termination of Gaussian 16 at Fri Aug 22 16:13:38 2025.
