 Gaussian 16, Revision C.01,
 Gaussian 16:  ES64L-G16RevC.01  3-Jul-2019

 -----------------------------------------
 # sp b3lyp/6-311g** Force nosymm scf=(qc)
 -----------------------------------------

 -------------------
 Title Card Required
 -------------------
 Symbolic Z-matrix:
 Charge =  0 Multiplicity = 2

                          Input orientation:
 ---------------------------------------------------------------------
 Center     Atomic      Atomic             Coordinates (Angstroms)
 Number     Number       Type             X           Y           Z
 ---------------------------------------------------------------------
      1          1           0        0.000000    0.000000    0.000000
      2          1           0       -1.400000    0.000000    0.000000
      3          9           0        3.400000    0.000000    0.000000
 ---------------------------------------------------------------------

 SCF Done:  E(UB3LYP) =  -100.836714455     a.u. after   57 cycles

 Alpha  occ. eigenvalues --  -24.76441  -1.22307  -0.55504  -0.46707  -0.46658
 Alpha  occ. eigenvalues --   -0.34327
 Alpha virt. eigenvalues --   -0.08065   0.24282   0.31366   0.85903   0.90778
 Alpha virt. eigenvalues --    0.92284   1.01518   1.10778   1.17960   1.17963
 Alpha virt. eigenvalues --    1.45157   1.45161   1.90270   2.25702   2.50149

  Beta  occ. eigenvalues --  -24.73283  -1.13228  -0.43542  -0.43492  -0.34324
  Beta virt. eigenvalues --   -0.26144  -0.08060   0.24293   0.31402   0.92278
  Beta virt. eigenvalues --    0.93799   0.95366   1.05595   1.10795   1.17960
  Beta virt. eigenvalues --    1.17963   1.45157   1.45160   1.90277   2.25704

 Mulliken charges and spin densities:
               1          2
     1  H    0.000266   0.000339
     2  H   -0.003761  -0.000764
     3  F    0.003495   1.000425
 Sum of Mulliken charges =   0.00000   1.00000

 Dipole moment (field-independent basis, Debye):
    X=              0.0591    Y=             -0.0000    Z=              0.0000  Tot=              0.0591
 Quadrupole moment (field-independent basis, Debye-Ang):
   XX=             -6.2301   YY=             -7.5614   ZZ=             -6.9443
   XY=              0.0000   XZ=             -0.0000   YZ=             -0.3025

  Exact polarizability:      20.566       0.000       2.125       0.000      -0.163       2.457
 Approx polarizability:      36.144       0.000       2.147      -0.000      -0.204       2.562

 ******    2 imaginary frequencies (negative Signs) ******

                      1                      2                      3
                      A                      A                      A
 Frequencies --  -1167.1384               -30.9519              1309.1280
 Red. masses --      1.0078                 1.1085                 1.0107
 Frc consts  --      0.8089                 0.0006                 1.0205
 IR Inten    --      0.2961                 0.2283                 0.0029

                      4
                      A
 Frequencies --   1310.5831
 Red. masses --      1.0107
 Frc consts  --      1.0228
 IR Inten    --      0.0024

 - Thermochemistry -
 -------------------
 Temperature   298.150 Kelvin.  Pressure   1.00000 Atm.
 Atom     1 has atomic number  1 and mass   1.00783

 Molecular mass:    21.01405 amu.
 Principal axes and moments of inertia in atomic units:
                           1         2         3
     Eigenvalues --     0.00000 112.91961 112.91961
           X            1.00000  -0.00000   0.00000
           Y            0.00000   1.00000   0.00000
           Z            0.00000   0.00000   1.00000
 This molecule is a prolate symmetric top.
 Rotational symmetry number  1.
 Rotational temperature (Kelvin)      0.76704
 Rotational constant (GHZ):          15.982532
    2 imaginary frequencies ignored.
 Zero-point vibrational energy      15669.4 (Joules/Mol)
                                    3.74506 (Kcal/Mol)
 Vibrational temperatures:   1883.54  1885.64
          (Kelvin)

 Zero-point correction=                           0.005968 (Hartree/Particle)
 Thermal correction to Energy=                    0.008350
 Thermal correction to Enthalpy=                  0.009294
 Thermal correction to Gibbs Free Energy=        -0.014621
 Sum of electronic and zero-point Energies=           -100.830746
 Sum of electronic and thermal Energies=              -100.828364
 Sum of electronic and thermal Enthalpies=            -100.827420
 Sum of electronic and thermal Free Energies=         -100.851336

                     E (Thermal)             CV                S
                      KCal/Mol        Cal/Mol-Kelvin    Cal/Mol-Kelvin
 Total                    5.240              5.255             50.334
 Electronic               0.000              0.000              1.377
 Translational            0.889              2.981             35.068
 Rotational               0.592              1.987             13.837
 Vibrational              3.759              0.287              0.052

 Normal termination of Gaussian 16 at Fri Aug 22 21:13:45 2025.
