 Gaussian 16, Revision C.01,
 Gaussian 16:  ES64L-G16RevC.01  3-Jul-2019

 -----------------------------------------
 # sp b3lyp/6-311g** Force nosymm scf=(qc)
 -----------------------------------------

 -------------------
 Title Card Required
 -------------------
 Symbolic Z-matrix:
 Charge =  0 Multiplicity = 2

                          Input orientation:
 ---------------------------------------------------------------------
 Center     Atomic      Atomic             Coordinates (Angstroms)
 Number     Number       Type             X           Y           Z
 ---------------------------------------------------------------------
      1          1           0        0.000000    0.000000    0.000000
      2          1           0       -2.700000    0.000000    0.000000
      3          9           0        1.450000    0.000000    0.000000
 ---------------------------------------------------------------------

 SCF Done:  E(UB3LYP) =  -100.866571143     a.u. after    8 cycles

 Alpha  occ. eigenvalues --  -24.64174  -1.09878  -0.43876  -0.36407  -0.36407
 Alpha  occ. eigenvalues --   -0.35174
 Alpha virt. eigenvalues --   -0.12691   0.22475   0.27036   0.93467   0.93467
 Alpha virt. eigenvalues --    1.03555   1.13087   1.22333   1.22333   1.23877
 Alpha virt. eigenvalues --    1.32286   1.32286   1.73505   2.13445   2.20777

  Beta  occ. eigenvalues --  -24.64061  -1.09582  -0.43535  -0.36300  -0.36300
  Beta virt. eigenvalues --   -0.14524  -0.07264   0.25065   0.36398   0.93431
  Beta virt. eigenvalues --    0.93431   1.03841   1.13414   1.31836   1.31836
  Beta virt. eigenvalues --    1.43636   1.43636   1.43884   1.73589   2.20072

 Mulliken charges and spin densities:
               1          2
     1  H    0.345166  -0.022818
     2  H    0.011343   0.987204
     3  F   -0.356509   0.035613
 Sum of Mulliken charges =   0.00000   1.00000

 Dipole moment (field-independent basis, Debye):
    X=             -2.6977    Y=             -0.0000    Z=             -0.0000  Tot=              2.6977
 Quadrupole moment (field-independent basis, Debye-Ang):
   XX=             -9.3656   YY=             -7.2956   ZZ=             -7.2956
   XY=             -0.0000   XZ=             -0.0000   YZ=              0.0000

  Exact polarizability:      18.392      -0.000       2.221      -0.000      -0.000       2.221
 Approx polarizability:      29.274      -0.000       2.153      -0.000      -0.000       2.153

 ******    2 imaginary frequencies (negative Signs) ******

                      1                      2                      3
                      A                      A                      A
 Frequencies --  -1172.7656              -190.8280              1037.4178
 Red. masses --      1.0521                 1.0595                 1.0269
 Frc consts  --      0.8526                 0.0227                 0.6512
 IR Inten    --     99.4209                 1.7644               109.6540

                      4
                      A
 Frequencies --   1037.4178
 Red. masses --      1.0269
 Frc consts  --      0.6512
 IR Inten    --    109.6540

 - Thermochemistry -
 -------------------
 Temperature   298.150 Kelvin.  Pressure   1.00000 Atm.
 Atom     1 has atomic number  1 and mass   1.00783

 Molecular mass:    21.01405 amu.
 Principal axes and moments of inertia in atomic units:
                           1         2         3
     Eigenvalues --     0.00000  64.13789  64.13789
           X            1.00000  -0.00000   0.00000
           Y            0.00000   1.00000   0.00000
           Z            0.00000   0.00000   1.00000
 This molecule is a prolate symmetric top.
 Rotational symmetry number  1.
 Rotational temperature (Kelvin)      1.35043
 Rotational constant (GHZ):          28.138457
    2 imaginary frequencies ignored.
 Zero-point vibrational energy      12410.3 (Joules/Mol)
                                    2.96613 (Kcal/Mol)
 Vibrational temperatures:   1492.61  1492.61
          (Kelvin)

 Zero-point correction=                           0.004727 (Hartree/Particle)
 Thermal correction to Energy=                    0.007151
 Thermal correction to Enthalpy=                  0.008095
 Thermal correction to Gibbs Free Energy=        -0.015338
 Sum of electronic and zero-point Energies=           -100.861844
 Sum of electronic and thermal Energies=              -100.859420
 Sum of electronic and thermal Enthalpies=            -100.858476
 Sum of electronic and thermal Free Energies=         -100.881909

                     E (Thermal)             CV                S
                      KCal/Mol        Cal/Mol-Kelvin    Cal/Mol-Kelvin
 Total                    4.487              5.644             49.319
 Electronic               0.000              0.000              1.377
 Translational            0.889              2.981             35.068
 Rotational               0.592              1.987             12.712
 Vibrational              3.006              0.676              0.161

 Normal termination of Gaussian 16 at Fri Aug 22 16:23:19 2025.
