 Gaussian 16, Revision C.01,
 Gaussian 16:  ES64L-G16RevC.01  3-Jul-2019

 -----------------------------------------
 # sp b3lyp/6-311g** Force nosymm scf=(qc)
 -----------------------------------------

 -------------------
 Title Card Required
 -------------------
 Symbolic Z-matrix:
 Charge =  0 Multiplicity = 2

                          Input orientation:
 ---------------------------------------------------------------------
 Center     Atomic      Atomic             Coordinates (Angstroms)
 Number     Number       Type             X           Y           Z
 ---------------------------------------------------------------------
      1          1           0        0.000000    0.000000    0.000000
      2          1           0       -1.950000    0.000000    0.000000
      3          9           0        0.650000    0.000000    0.000000
 ---------------------------------------------------------------------

 SCF Done:  E(UB3LYP) =  -100.800001430     a.u. after    7 cycles

 Alpha  occ. eigenvalues --  -24.62852  -1.31262  -0.59903  -0.42278  -0.42278
 Alpha  occ. eigenvalues --   -0.35284
 Alpha virt. eigenvalues --    0.10906   0.24090   0.52411   0.92939   0.92939
 Alpha virt. eigenvalues --    0.95129   1.19682   1.22052   1.22052   1.47134
 Alpha virt. eigenvalues --    1.47134   1.56629   1.97891   2.17864   3.10666

  Beta  occ. eigenvalues --  -24.62817  -1.31161  -0.59749  -0.42256  -0.42256
  Beta virt. eigenvalues --   -0.10360   0.12352   0.34805   0.53654   0.92938
  Beta virt. eigenvalues --    0.92938   0.95258   1.29051   1.41495   1.41495
  Beta virt. eigenvalues --    1.47771   1.47771   1.64830   2.00966   2.42673

 Mulliken charges and spin densities:
               1          2
     1  H    0.238641   0.010407
     2  H    0.010069   0.984219
     3  F   -0.248710   0.005373
 Sum of Mulliken charges =   0.00000   1.00000

 Dipole moment (field-independent basis, Debye):
    X=             -1.5914    Y=             -0.0000    Z=             -0.0000  Tot=              1.5914
 Quadrupole moment (field-independent basis, Debye-Ang):
   XX=             -6.8815   YY=             -6.5725   ZZ=             -6.5725
   XY=             -0.0000   XZ=             -0.0000   YZ=             -0.0000

  Exact polarizability:       6.185       0.000       2.495      -0.000       0.000       2.495
 Approx polarizability:       6.049       0.000       2.489       0.000       0.000       2.489

 ******    2 imaginary frequencies (negative Signs) ******

                      1                      2                      3
                      A                      A                      A
 Frequencies --  -4521.3789             -4521.3789               391.5153
 Red. masses --      1.0346                 1.0346                 1.0533
 Frc consts  --     12.4612                12.4612                 0.0951
 IR Inten    --    188.1649               188.1649                 0.0123

                      4
                      A
 Frequencies --  10871.4440
 Red. masses --      1.0583
 Frc consts  --     73.6919
 IR Inten    --    130.9804

 - Thermochemistry -
 -------------------
 Temperature   298.150 Kelvin.  Pressure   1.00000 Atm.
 Atom     1 has atomic number  1 and mass   1.00783

 Molecular mass:    21.01405 amu.
 Principal axes and moments of inertia in atomic units:
                           1         2         3
     Eigenvalues --     0.00000  24.02672  24.02672
           X            1.00000  -0.00000   0.00000
           Y            0.00000   1.00000   0.00000
           Z            0.00000   0.00000   1.00000
 This molecule is a prolate symmetric top.
 Rotational symmetry number  1.
 Rotational temperature (Kelvin)      3.60490
 Rotational constant (GHZ):          75.113929
    2 imaginary frequencies ignored.
 Zero-point vibrational energy      67367.5 (Joules/Mol)
                                   16.10121 (Kcal/Mol)
 Warning -- explicit consideration of   1 degrees of freedom as
           vibrations may cause significant error
 Vibrational temperatures:    563.30 15641.58
          (Kelvin)

 Zero-point correction=                           0.025659 (Hartree/Particle)
 Thermal correction to Energy=                    0.028337
 Thermal correction to Enthalpy=                  0.029281
 Thermal correction to Gibbs Free Energy=         0.006379
 Sum of electronic and zero-point Energies=           -100.774343
 Sum of electronic and thermal Energies=              -100.771664
 Sum of electronic and thermal Enthalpies=            -100.770720
 Sum of electronic and thermal Free Energies=         -100.793622

                     E (Thermal)             CV                S
                      KCal/Mol        Cal/Mol-Kelvin    Cal/Mol-Kelvin
 Total                   17.782              6.456             48.201
 Electronic               0.000              0.000              1.377
 Translational            0.889              2.981             35.068
 Rotational               0.592              1.987             10.761
 Vibrational             16.301              1.488              0.994
 Vibration     1          0.759              1.488              0.994

 Normal termination of Gaussian 16 at Fri Aug 22 15:44:02 2025.
