 Gaussian 16, Revision C.01,
 Gaussian 16:  ES64L-G16RevC.01  3-Jul-2019

 -----------------------------------------
 # sp b3lyp/6-311g** Force nosymm scf=(qc)
 -----------------------------------------

 -------------------
 Title Card Required
 -------------------
 Symbolic Z-matrix:
 Charge =  0 Multiplicity = 2

                          Input orientation:
 ---------------------------------------------------------------------
 Center     Atomic      Atomic             Coordinates (Angstroms)
 Number     Number       Type             X           Y           Z
 ---------------------------------------------------------------------
      1          1           0        0.000000    0.000000    0.000000
      2          1           0       -1.650000    0.000000    0.000000
      3          9           0        3.450000    0.000000    0.000000
 ---------------------------------------------------------------------

 SCF Done:  E(UB3LYP) =  -100.800254449     a.u. after  192 cycles

 Alpha  occ. eigenvalues --  -24.76359  -1.22235  -0.55436  -0.46626  -0.46590
 Alpha  occ. eigenvalues --   -0.33125
 Alpha virt. eigenvalues --   -0.10381   0.25612   0.30716   0.85956   0.90832
 Alpha virt. eigenvalues --    0.92087   1.01371   1.06995   1.23235   1.23237
 Alpha virt. eigenvalues --    1.38826   1.38830   1.71230   2.18211   2.43136

  Beta  occ. eigenvalues --  -24.73204  -1.13162  -0.43473  -0.43427  -0.33110
  Beta virt. eigenvalues --   -0.26080  -0.10421   0.25605   0.30812   0.92335
  Beta virt. eigenvalues --    0.93541   0.95423   1.05435   1.06983   1.23225
  Beta virt. eigenvalues --    1.23230   1.38815   1.38817   1.71285   2.18518

 Mulliken charges and spin densities:
               1          2
     1  H    0.000359  -0.539987
     2  H   -0.003101   0.539954
     3  F    0.002742   1.000033
 Sum of Mulliken charges =   0.00000   1.00000

 Dipole moment (field-independent basis, Debye):
    X=              0.0521    Y=              0.0000    Z=             -0.0000  Tot=              0.0521
 Quadrupole moment (field-independent basis, Debye-Ang):
   XX=             -6.4708   YY=             -7.7729   ZZ=             -6.9086
   XY=              0.0000   XZ=              0.0000   YZ=             -0.0009

  Exact polarizability:      23.983      -0.000       2.022      -0.000      -0.001       2.485
 Approx polarizability:      39.847      -0.000       1.992       0.000      -0.001       2.574

 ******    2 imaginary frequencies (negative Signs) ******

                      1                      2                      3
                      A                      A                      A
 Frequencies --  -1987.8302               -31.6608               979.4877
 Red. masses --      1.0078                 1.1085                 1.0115
 Frc consts  --      2.3464                 0.0007                 0.5717
 IR Inten    --      0.0564                 0.1906                 0.0025

                      4
                      A
 Frequencies --    980.1530
 Red. masses --      1.0115
 Frc consts  --      0.5725
 IR Inten    --      0.0013

 - Thermochemistry -
 -------------------
 Temperature   298.150 Kelvin.  Pressure   1.00000 Atm.
 Atom     1 has atomic number  1 and mass   1.00783

 Molecular mass:    21.01405 amu.
 Principal axes and moments of inertia in atomic units:
                           1         2         3
     Eigenvalues --     0.00000 123.82941 123.82941
           X            1.00000  -0.00000   0.00000
           Y            0.00000   1.00000   0.00000
           Z            0.00000   0.00000   1.00000
 This molecule is a prolate symmetric top.
 Rotational symmetry number  1.
 Rotational temperature (Kelvin)      0.69946
 Rotational constant (GHZ):          14.574414
    2 imaginary frequencies ignored.
 Zero-point vibrational energy      11721.3 (Joules/Mol)
                                    2.80145 (Kcal/Mol)
 Vibrational temperatures:   1409.26  1410.22
          (Kelvin)

 Zero-point correction=                           0.004464 (Hartree/Particle)
 Thermal correction to Energy=                    0.006905
 Thermal correction to Enthalpy=                  0.007849
 Thermal correction to Gibbs Free Energy=        -0.016225
 Sum of electronic and zero-point Energies=           -100.795790
 Sum of electronic and thermal Energies=              -100.793350
 Sum of electronic and thermal Enthalpies=            -100.792406
 Sum of electronic and thermal Free Energies=         -100.816480

                     E (Thermal)             CV                S
                      KCal/Mol        Cal/Mol-Kelvin    Cal/Mol-Kelvin
 Total                    4.333              5.768             50.668
 Electronic               0.000              0.000              1.377
 Translational            0.889              2.981             35.068
 Rotational               0.592              1.987             14.020
 Vibrational              2.851              0.800              0.203

 Normal termination of Gaussian 16 at Fri Aug 22 21:40:17 2025.
