 Gaussian 16, Revision C.01,
 Gaussian 16:  ES64L-G16RevC.01  3-Jul-2019

 -----------------------------------------
 # sp b3lyp/6-311g** Force nosymm scf=(qc)
 -----------------------------------------

 -------------------
 Title Card Required
 -------------------
 Symbolic Z-matrix:
 Charge =  0 Multiplicity = 2

                          Input orientation:
 ---------------------------------------------------------------------
 Center     Atomic      Atomic             Coordinates (Angstroms)
 Number     Number       Type             X           Y           Z
 ---------------------------------------------------------------------
      1          1           0        0.000000    0.000000    0.000000
      2          1           0       -4.000000    0.000000    0.000000
      3          9           0        3.250000    0.000000    0.000000
 ---------------------------------------------------------------------

 SCF Done:  E(UB3LYP) =  -100.759541278     a.u. after   21 cycles

 Alpha  occ. eigenvalues --  -24.74844  -1.20848  -0.53966  -0.45311  -0.45311
 Alpha  occ. eigenvalues --   -0.32355
 Alpha virt. eigenvalues --   -0.06843   0.24026   0.36713   0.88443   0.91816
 Alpha virt. eigenvalues --    0.91816   1.02642   1.25140   1.25140   1.25158
 Alpha virt. eigenvalues --    1.45785   1.45785   1.46084   2.14445   2.41859

  Beta  occ. eigenvalues --  -24.71765  -1.12010  -0.42226  -0.42226  -0.33185
  Beta virt. eigenvalues --   -0.25195  -0.05842   0.23764   0.38164   0.93294
  Beta virt. eigenvalues --    0.93294   0.97391   1.06529   1.24187   1.24187
  Beta virt. eigenvalues --    1.24234   1.46706   1.46800   1.46800   2.14663

 Mulliken charges and spin densities:
               1          2
     1  H    0.021795  -0.975453
     2  H    0.000079   0.999386
     3  F   -0.021874   0.976067
 Sum of Mulliken charges =  -0.00000   1.00000

 Dipole moment (field-independent basis, Debye):
    X=             -0.3667    Y=              0.0000    Z=              0.0000  Tot=              0.3667
 Quadrupole moment (field-independent basis, Debye-Ang):
   XX=             -7.8553   YY=             -7.6127   ZZ=             -7.6127
   XY=             -0.0000   XZ=             -0.0000   YZ=             -0.0000

  Exact polarizability:      28.135      -0.000       2.031      -0.000      -0.000       2.031
 Approx polarizability:      25.307      -0.000       1.931      -0.000       0.000       1.931

 ******    2 imaginary frequencies (negative Signs) ******

                      1                      2                      3
                      A                      A                      A
 Frequencies --   -279.5504               -68.7691                88.5682
 Red. masses --      1.0516                 1.0600                 1.0206
 Frc consts  --      0.0484                 0.0030                 0.0047
 IR Inten    --     23.6522                 0.1114                 0.4498

                      4
                      A
 Frequencies --     88.5682
 Red. masses --      1.0206
 Frc consts  --      0.0047
 IR Inten    --      0.4498

 - Thermochemistry -
 -------------------
 Temperature   298.150 Kelvin.  Pressure   1.00000 Atm.
 Atom     1 has atomic number  1 and mass   1.00783

 Molecular mass:    21.01405 amu.
 Principal axes and moments of inertia in atomic units:
                           1         2         3
     Eigenvalues --     0.00000 208.15750 208.15750
           X            1.00000  -0.00000   0.00000
           Y            0.00000   1.00000   0.00000
           Z            0.00000   0.00000   1.00000
 This molecule is a prolate symmetric top.
 Rotational symmetry number  1.
 Rotational temperature (Kelvin)      0.41610
 Rotational constant (GHZ):           8.670075
    2 imaginary frequencies ignored.
 Zero-point vibrational energy       1059.5 (Joules/Mol)
                                    0.25323 (Kcal/Mol)
 Warning -- explicit consideration of   2 degrees of freedom as
           vibrations may cause significant error
 Vibrational temperatures:    127.43   127.43
          (Kelvin)

 Zero-point correction=                           0.000404 (Hartree/Particle)
 Thermal correction to Energy=                    0.004277
 Thermal correction to Enthalpy=                  0.005222
 Thermal correction to Gibbs Free Energy=        -0.022754
 Sum of electronic and zero-point Energies=           -100.759138
 Sum of electronic and thermal Energies=              -100.755264
 Sum of electronic and thermal Enthalpies=            -100.754320
 Sum of electronic and thermal Free Energies=         -100.782296

                     E (Thermal)             CV                S
                      KCal/Mol        Cal/Mol-Kelvin    Cal/Mol-Kelvin
 Total                    2.684              8.882             58.880
 Electronic               0.000              0.000              1.377
 Translational            0.889              2.981             35.068
 Rotational               0.592              1.987             15.052
 Vibrational              1.203              3.914              7.383
 Vibration     1          0.601              1.957              3.691
 Vibration     2          0.601              1.957              3.691

 Normal termination of Gaussian 16 at Fri Aug 22 20:36:48 2025.
