 Gaussian 16, Revision C.01,
 Gaussian 16:  ES64L-G16RevC.01  3-Jul-2019

 -----------------------------------------
 # sp b3lyp/6-311g** Force nosymm scf=(qc)
 -----------------------------------------

 -------------------
 Title Card Required
 -------------------
 Symbolic Z-matrix:
 Charge =  0 Multiplicity = 2

                          Input orientation:
 ---------------------------------------------------------------------
 Center     Atomic      Atomic             Coordinates (Angstroms)
 Number     Number       Type             X           Y           Z
 ---------------------------------------------------------------------
      1          1           0        0.000000    0.000000    0.000000
      2          1           0       -2.850000    0.000000    0.000000
      3          9           0        0.950000    0.000000    0.000000
 ---------------------------------------------------------------------

 SCF Done:  E(UB3LYP) =  -100.971189669     a.u. after    6 cycles

 Alpha  occ. eigenvalues --  -24.64058  -1.17401  -0.52715  -0.39170  -0.39170
 Alpha  occ. eigenvalues --   -0.34351
 Alpha virt. eigenvalues --    0.02423   0.25139   0.36568   0.94263   0.94263
 Alpha virt. eigenvalues --    0.98156   1.22018   1.23186   1.23186   1.33400
 Alpha virt. eigenvalues --    1.36524   1.36524   1.96407   2.14489   2.35173

  Beta  occ. eigenvalues --  -24.64051  -1.17381  -0.52687  -0.39163  -0.39163
  Beta virt. eigenvalues --   -0.07910   0.03768   0.36491   0.38390   0.94264
  Beta virt. eigenvalues --    0.94264   0.98157   1.30248   1.36516   1.36516
  Beta virt. eigenvalues --    1.47494   1.47494   1.49876   1.96611   2.35053

 Mulliken charges and spin densities:
               1          2
     1  H    0.305745   0.001820
     2  H    0.003375   0.995482
     3  F   -0.309119   0.002698
 Sum of Mulliken charges =   0.00000   1.00000

 Dipole moment (field-independent basis, Debye):
    X=             -2.0024    Y=             -0.0000    Z=             -0.0000  Tot=              2.0024
 Quadrupole moment (field-independent basis, Debye-Ang):
   XX=             -7.9375   YY=             -6.9144   ZZ=             -6.9144
   XY=              0.0000   XZ=              0.0000   YZ=             -0.0000

  Exact polarizability:       7.197      -0.000       2.427       0.000       0.000       2.427
 Approx polarizability:       8.234      -0.000       2.405      -0.000       0.000       2.405

 ******    1 imaginary frequencies (negative Signs) ******

                      1                      2                      3
                      A                      A                      A
 Frequencies --    -71.1196               667.9932               667.9932
 Red. masses --      1.0531                 1.0346                 1.0346
 Frc consts  --      0.0031                 0.2720                 0.2720
 IR Inten    --      0.3239               167.8901               167.8901

                      4
                      A
 Frequencies --   3676.0354
 Red. masses --      1.0584
 Frc consts  --      8.4268
 IR Inten    --    109.3813

 - Thermochemistry -
 -------------------
 Temperature   298.150 Kelvin.  Pressure   1.00000 Atm.
 Atom     1 has atomic number  1 and mass   1.00783

 Molecular mass:    21.01405 amu.
 Principal axes and moments of inertia in atomic units:
                           1         2         3
     Eigenvalues --     0.00000  51.32335  51.32335
           X            1.00000  -0.00000   0.00000
           Y            0.00000   1.00000   0.00000
           Z            0.00000   0.00000   1.00000
 This molecule is a prolate symmetric top.
 Rotational symmetry number  1.
 Rotational temperature (Kelvin)      1.68761
 Rotational constant (GHZ):          35.164138
    1 imaginary frequencies ignored.
 Zero-point vibrational energy      29978.5 (Joules/Mol)
                                    7.16504 (Kcal/Mol)
 Vibrational temperatures:    961.09   961.09  5288.99
          (Kelvin)

 Zero-point correction=                           0.011418 (Hartree/Particle)
 Thermal correction to Energy=                    0.014031
 Thermal correction to Enthalpy=                  0.014975
 Thermal correction to Gibbs Free Energy=        -0.008500
 Sum of electronic and zero-point Energies=           -100.959771
 Sum of electronic and thermal Energies=              -100.957159
 Sum of electronic and thermal Enthalpies=            -100.956214
 Sum of electronic and thermal Free Energies=         -100.979690

                     E (Thermal)             CV                S
                      KCal/Mol        Cal/Mol-Kelvin    Cal/Mol-Kelvin
 Total                    8.805              6.751             49.408
 Electronic               0.000              0.000              1.377
 Translational            0.889              2.981             35.068
 Rotational               0.592              1.987             12.270
 Vibrational              7.323              1.783              0.693

 Normal termination of Gaussian 16 at Fri Aug 22 15:58:43 2025.
