 Gaussian 16, Revision C.01,
 Gaussian 16:  ES64L-G16RevC.01  3-Jul-2019

 -----------------------------------------
 # sp b3lyp/6-311g** Force nosymm scf=(qc)
 -----------------------------------------

 -------------------
 Title Card Required
 -------------------
 Symbolic Z-matrix:
 Charge =  0 Multiplicity = 2

                          Input orientation:
 ---------------------------------------------------------------------
 Center     Atomic      Atomic             Coordinates (Angstroms)
 Number     Number       Type             X           Y           Z
 ---------------------------------------------------------------------
      1          1           0        0.000000    0.000000    0.000000
      2          1           0       -1.650000    0.000000    0.000000
      3          9           0        1.850000    0.000000    0.000000
 ---------------------------------------------------------------------

 SCF Done:  E(UB3LYP) =  -100.829393401     a.u. after   15 cycles

 Alpha  occ. eigenvalues --  -24.67598  -1.13994  -0.47154  -0.39255  -0.39255
 Alpha  occ. eigenvalues --   -0.38058
 Alpha virt. eigenvalues --   -0.11538   0.22466   0.30177   0.86393   0.94477
 Alpha virt. eigenvalues --    0.94477   1.03254   1.18386   1.18386   1.32343
 Alpha virt. eigenvalues --    1.35938   1.35938   1.76700   2.16357   2.38253

  Beta  occ. eigenvalues --  -24.65349  -1.07743  -0.38268  -0.37047  -0.37047
  Beta virt. eigenvalues --   -0.22272  -0.09588   0.25154   0.30116   0.89594
  Beta virt. eigenvalues --    0.95019   0.95019   1.07388   1.21936   1.21936
  Beta virt. eigenvalues --    1.36534   1.36534   1.38191   1.78125   2.17077

 Mulliken charges and spin densities:
               1          2
     1  H    0.144862  -0.435230
     2  H    0.065670   0.730098
     3  F   -0.210532   0.705133
 Sum of Mulliken charges =   0.00000   1.00000

 Dipole moment (field-independent basis, Debye):
    X=             -2.4382    Y=              0.0000    Z=              0.0000  Tot=              2.4382
 Quadrupole moment (field-independent basis, Debye-Ang):
   XX=             -8.2092   YY=             -7.4813   ZZ=             -7.4813
   XY=             -0.0000   XZ=             -0.0000   YZ=              0.0000

  Exact polarizability:      49.176      -0.000       2.131      -0.000       0.000       2.131
 Approx polarizability:      70.088      -0.000       2.059      -0.000      -0.000       2.059

 ******    2 imaginary frequencies (negative Signs) ******

                      1                      2                      3
                      A                      A                      A
 Frequencies --  -2159.5509              -590.8456               923.4104
 Red. masses --      1.0161                 1.0986                 1.0166
 Frc consts  --      2.7921                 0.2260                 0.5107
 IR Inten    --    426.9665                12.4131                 9.1002

                      4
                      A
 Frequencies --    923.4104
 Red. masses --      1.0166
 Frc consts  --      0.5107
 IR Inten    --      9.1002

 - Thermochemistry -
 -------------------
 Temperature   298.150 Kelvin.  Pressure   1.00000 Atm.
 Atom     1 has atomic number  1 and mass   1.00783

 Molecular mass:    21.01405 amu.
 Principal axes and moments of inertia in atomic units:
                           1         2         3
     Eigenvalues --     0.00000  51.46502  51.46502
           X            1.00000  -0.00000   0.00000
           Y            0.00000   1.00000   0.00000
           Z            0.00000   0.00000   1.00000
 This molecule is a prolate symmetric top.
 Rotational symmetry number  1.
 Rotational temperature (Kelvin)      1.68297
 Rotational constant (GHZ):          35.067337
    2 imaginary frequencies ignored.
 Zero-point vibrational energy      11046.4 (Joules/Mol)
                                    2.64016 (Kcal/Mol)
 Vibrational temperatures:   1328.58  1328.58
          (Kelvin)

 Zero-point correction=                           0.004207 (Hartree/Particle)
 Thermal correction to Energy=                    0.006667
 Thermal correction to Enthalpy=                  0.007611
 Thermal correction to Gibbs Free Energy=        -0.015659
 Sum of electronic and zero-point Energies=           -100.825186
 Sum of electronic and thermal Energies=              -100.822727
 Sum of electronic and thermal Enthalpies=            -100.821783
 Sum of electronic and thermal Free Energies=         -100.845052

                     E (Thermal)             CV                S
                      KCal/Mol        Cal/Mol-Kelvin    Cal/Mol-Kelvin
 Total                    4.183              5.906             48.975
 Electronic               0.000              0.000              1.377
 Translational            0.889              2.981             35.068
 Rotational               0.592              1.987             12.275
 Vibrational              2.702              0.938              0.254

 Normal termination of Gaussian 16 at Fri Aug 22 16:46:24 2025.
