 Gaussian 16, Revision C.01,
 Gaussian 16:  ES64L-G16RevC.01  3-Jul-2019

 -----------------------------------------
 # sp b3lyp/6-311g** Force nosymm scf=(qc)
 -----------------------------------------

 -------------------
 Title Card Required
 -------------------
 Symbolic Z-matrix:
 Charge =  0 Multiplicity = 2

                          Input orientation:
 ---------------------------------------------------------------------
 Center     Atomic      Atomic             Coordinates (Angstroms)
 Number     Number       Type             X           Y           Z
 ---------------------------------------------------------------------
      1          1           0        0.000000    0.000000    0.000000
      2          1           0       -2.750000    0.000000    0.000000
      3          9           0        3.000000    0.000000    0.000000
 ---------------------------------------------------------------------

 SCF Done:  E(UB3LYP) =  -100.762924762     a.u. after   22 cycles

 Alpha  occ. eigenvalues --  -24.74125  -1.20180  -0.53243  -0.44706  -0.44706
 Alpha  occ. eigenvalues --   -0.32863
 Alpha virt. eigenvalues --   -0.09697   0.25057   0.34321   0.89489   0.92253
 Alpha virt. eigenvalues --    0.92253   1.03945   1.24714   1.24714   1.26147
 Alpha virt. eigenvalues --    1.41359   1.41359   1.42161   2.15670   2.37941

  Beta  occ. eigenvalues --  -24.71096  -1.11499  -0.41674  -0.41674  -0.33780
  Beta virt. eigenvalues --   -0.24806  -0.08372   0.25121   0.35802   0.93715
  Beta virt. eigenvalues --    0.93715   0.98237   1.07793   1.23636   1.23636
  Beta virt. eigenvalues --    1.25059   1.43476   1.43476   1.43975   2.16355

 Mulliken charges and spin densities:
               1          2
     1  H    0.033269  -0.945305
     2  H    0.003041   0.985520
     3  F   -0.036310   0.959785
 Sum of Mulliken charges =  -0.00000   1.00000

 Dipole moment (field-independent basis, Debye):
    X=             -0.5991    Y=              0.0000    Z=             -0.0000  Tot=              0.5991
 Quadrupole moment (field-independent basis, Debye-Ang):
   XX=             -8.0930   YY=             -7.6340   ZZ=             -7.6340
   XY=              0.0000   XZ=             -0.0000   YZ=              0.0000

  Exact polarizability:      38.435       0.000       2.019      -0.000       0.000       2.019
 Approx polarizability:      36.168       0.000       1.923      -0.000      -0.000       1.923

 ******    2 imaginary frequencies (negative Signs) ******

                      1                      2                      3
                      A                      A                      A
 Frequencies --   -536.7989              -217.1291               199.8849
 Red. masses --      1.0151                 1.0999                 1.0169
 Frc consts  --      0.1723                 0.0306                 0.0239
 IR Inten    --     28.3511                12.2688                 0.9377

                      4
                      A
 Frequencies --    199.8849
 Red. masses --      1.0169
 Frc consts  --      0.0239
 IR Inten    --      0.9377

 - Thermochemistry -
 -------------------
 Temperature   298.150 Kelvin.  Pressure   1.00000 Atm.
 Atom     1 has atomic number  1 and mass   1.00783

 Molecular mass:    21.01405 amu.
 Principal axes and moments of inertia in atomic units:
                           1         2         3
     Eigenvalues --     0.00000 138.16808 138.16808
           X            1.00000  -0.00000   0.00000
           Y            0.00000   1.00000   0.00000
           Z            0.00000   0.00000   1.00000
 This molecule is a prolate symmetric top.
 Rotational symmetry number  1.
 Rotational temperature (Kelvin)      0.62687
 Rotational constant (GHZ):          13.061926
    2 imaginary frequencies ignored.
 Zero-point vibrational energy       2391.2 (Joules/Mol)
                                    0.57150 (Kcal/Mol)
 Warning -- explicit consideration of   2 degrees of freedom as
           vibrations may cause significant error
 Vibrational temperatures:    287.59   287.59
          (Kelvin)

 Zero-point correction=                           0.000911 (Hartree/Particle)
 Thermal correction to Energy=                    0.004393
 Thermal correction to Enthalpy=                  0.005337
 Thermal correction to Gibbs Free Energy=        -0.020772
 Sum of electronic and zero-point Energies=           -100.762014
 Sum of electronic and thermal Energies=              -100.758532
 Sum of electronic and thermal Enthalpies=            -100.757588
 Sum of electronic and thermal Free Energies=         -100.783697

                     E (Thermal)             CV                S
                      KCal/Mol        Cal/Mol-Kelvin    Cal/Mol-Kelvin
 Total                    2.757              8.648             54.951
 Electronic               0.000              0.000              1.377
 Translational            0.889              2.981             35.068
 Rotational               0.592              1.987             14.238
 Vibrational              1.275              3.680              4.268
 Vibration     1          0.638              1.840              2.134
 Vibration     2          0.638              1.840              2.134

 Normal termination of Gaussian 16 at Fri Aug 22 19:32:21 2025.
